Title
81312
    1CHL1    C3    1   5.671   0.366  10.403 -0.4919 -0.5933 -0.0085
    1CHL1    H3    2   5.563   0.389  10.394 -0.6629 -1.8635 -1.6211
    1CHL1    O3    3   5.705   0.347  10.540 -0.2433  0.0585 -0.1084
    1CHL1   H3'    4   5.798   0.326  10.543 -0.9839 -4.4453 -1.0494
    1CHL1    C4    5   5.700   0.241  10.329  0.1195  0.0077 -0.7091
    1CHL1   H4A    6   5.795   0.189  10.357  1.2576  2.4105  0.1667
    1CHL1   H4B    7   5.620   0.177  10.371 -0.3032  1.5502  0.9705
    1CHL1    C5    8   5.693   0.260  10.178  0.0695 -0.0249 -0.6018
    1CHL1    C6    9   5.621   0.185  10.099 -0.0207  0.7224 -0.3001
    1CHL1    H6   10   5.555   0.111  10.148  0.0050 -0.0876 -1.4553
    1CHL1    C7   11   5.624   0.184   9.953  0.2382  0.0606  0.3302
    1CHL1   H7A   12   5.629   0.078   9.919  1.7480  0.7936 -1.9744
    1CHL1   H7B   13   5.535   0.240   9.916  0.3559 -0.2296 -0.4026
    1CHL1    C8   14   5.736   0.269   9.893  0.3537  0.7384  0.2056
    1CHL1    H8   15   5.826   0.205   9.883 -0.5888 -0.5940 -0.0221
    1CHL1   C14   16   5.698   0.319   9.755 -0.7578  0.3380  0.3517
    1CHL1   H14   17   5.626   0.401   9.775  0.9779  1.7987  0.9193
    1CHL1   C15   18   5.642   0.210   9.663  0.3555  0.5009 -0.0036
    1CHL1  H15A   19   5.708   0.121   9.666  0.4168  0.4468 -1.8783
    1CHL1  H15B   20   5.537   0.183   9.690  0.8763 -1.3530  0.2907
    1CHL1   C16   21   5.667   0.262   9.519 -0.1606 -0.1172  0.1577
    1CHL1  H16A   22   5.729   0.188   9.466 -0.5684 -0.8641  0.7013
    1CHL1  H16B   23   5.572   0.288   9.466 -0.0711 -0.1696 -0.0266
    1CHL1   C17   24   5.755   0.390   9.545  0.2671 -0.5254 -0.6972
    1CHL1   H17   25   5.698   0.485   9.551  0.4380 -0.3940 -1.0964
    1CHL1   C13   26   5.817   0.373   9.681  0.1846  0.0627 -1.3584
    1CHL1   C18   27   5.934   0.265   9.665 -0.1796 -0.5805 -0.6479
    1CHL1  H18A   28   5.966   0.239   9.769  0.0368 -2.3506 -1.1181
    1CHL1  H18B   29   5.900   0.170   9.618 -0.9858 -0.6438  0.0322
    1CHL1  H18C   30   6.013   0.310   9.603  0.5993  0.1348  0.8084
    1CHL1   C12   31   5.862   0.502   9.759 -0.6746  0.4419 -0.1662
    1CHL1  H12A   32   5.957   0.539   9.715 -0.3831 -1.1715 -0.9788
    1CHL1  H12B   33   5.778   0.575   9.752 -2.2821 -1.2788  0.3282
    1CHL1   C11   34   5.887   0.480   9.913  0.0075 -0.1442 -0.7860
    1CHL1  H11A   35   5.983   0.428   9.933  1.3938  2.3577 -0.5686
    1CHL1  H11B   36   5.886   0.577   9.968 -2.0476 -0.6416  0.1405
    1CHL1    C9   37   5.772   0.393   9.969 -0.2755  0.1596 -0.1246
    1CHL1    H9   38   5.677   0.447   9.955 -1.9014 -2.9205 -2.0392
    1CHL1   C10   39   5.786   0.362  10.123 -0.0892 -0.2286 -0.7586
    1CHL1   C19   40   5.931   0.326  10.160 -0.4080  0.6117  0.5802
    1CHL1  H19A   41   5.991   0.417  10.139 -0.4152  0.5304  0.2104
    1CHL1  H19B   42   5.940   0.304  10.269  0.0243 -0.1807  0.3849
    1CHL1  H19C   43   5.977   0.242  10.105 -2.7408 -0.5107  0.2328
    1CHL1    C1   44   5.751   0.498  10.196  0.1882 -0.4209 -0.3555
    1CHL1   H1A   45   5.821   0.579  10.164  0.9314 -0.7807  0.3439
    1CHL1   H1B   46   5.643   0.522  10.182  0.4631  0.5582 -0.8957
    1CHL1    C2   47   5.755   0.480  10.349 -0.2537 -0.3060 -0.1851
    1CHL1   H2A   48   5.733   0.578  10.397  0.5443 -0.2705  0.1209
    1CHL1   H2B   49   5.862   0.460  10.372 -0.7908  0.3277  3.4949
    1CHL1   C20   50   5.849   0.424   9.431 -0.4219  0.1061 -0.3652
    1CHL1   H20   51   5.928   0.350   9.405 -0.0514 -0.0264  1.0861
    1CHL1   C21   52   5.926   0.558   9.458 -0.0694  0.5006  0.4279
    1CHL1  H21A   53   5.854   0.639   9.483 -0.6558  0.2087 -0.2639
    1CHL1  H21B   54   5.976   0.589   9.363 -4.1587  1.6982 -1.5760
    1CHL1  H21C   55   6.005   0.548   9.534 -0.5389  0.1650  0.8792
    1CHL1   C22   56   5.762   0.442   9.302  1.0595 -0.1964  0.3167
    1CHL1  H22A   57   5.705   0.353   9.268  0.5331  0.8686 -1.7704
    1CHL1  H22B   58   5.688   0.522   9.323 -0.4158 -1.0548 -1.3964
    1CHL1   C23   59   5.835   0.480   9.176 -0.5166  0.4296 -0.4411
    1CHL1  H23A   60   5.906   0.562   9.202 -1.0152 -0.2134  3.6802
    1CHL1  H23B   61   5.890   0.387   9.151  1.2604  1.7328 -1.5951
    1CHL1   C24   62   5.751   0.512   9.059  0.5556 -0.1147  0.1722
    1CHL1  H24A   63   5.664   0.443   9.056  1.2034 -0.9239 -1.2269
    1CHL1  H24B   64   5.705   0.612   9.076  0.6973 -0.2878  1.7419
    1CHL1   C25   65   5.832   0.523   8.928  0.6292 -0.2140 -0.9440
    1CHL1   H25   66   5.915   0.593   8.954  1.6142 -1.0253 -1.8061
    1CHL1   C26   67   5.910   0.393   8.887  0.1139  0.6133 -0.1058
    1CHL1  H26A   68   5.959   0.413   8.789 -0.8488  1.0604 -0.5135
    1CHL1  H26B   69   5.978   0.351   8.964  0.8637  0.7424 -0.6844
    1CHL1  H26C   70   5.827   0.320   8.874 -0.1890  0.9927 -0.3550
    1CHL1   C27   71   5.743   0.571   8.815 -0.0622 -0.9774  0.5938
    1CHL1  H27A   72   5.684   0.663   8.834 -0.6541 -1.1331 -0.4122
    1CHL1  H27B   73   5.803   0.588   8.724  0.1450  1.9379  1.1815
    1CHL1  H27C   74   5.679   0.488   8.778 -1.5646 -0.4252  1.8497
    2CHL1    C3   75   0.991   5.177  10.261 -0.1162  1.2716 -0.0241
    2CHL1    H3   76   1.037   5.084  10.222 -1.3973 -0.2259  1.8206
    2CHL1    O3   77   1.017   5.186  10.403 -0.1698 -0.1823 -0.6579
    2CHL1   H3'   78   0.927   5.183  10.438  0.1390 -0.2368  0.1358
    2CHL1    C4   79   1.050   5.301  10.188  0.6574 -0.7957  0.2750
    2CHL1   H4A   80   1.003   5.395  10.224  2.6239  0.6937 -0.8241
    2CHL1   H4B   81   1.157   5.315  10.213  1.0157 -1.5558 -0.7565
    2CHL1    C5   82   1.023   5.283  10.038 -0.4381  0.0001  0.2733
    2CHL1    C6   83   1.123   5.279   9.947 -0.7392 -0.1907  0.4101
    2CHL1    H6   84   1.222   5.301   9.989 -1.1104  0.8411  0.7730
    2CHL1    C7   85   1.120   5.253   9.792  0.5267  1.4467 -1.1753
    2CHL1   H7A   86   1.185   5.320   9.733  2.5378 -0.7525 -1.5717
    2CHL1   H7B   87   1.138   5.146   9.768 -0.1123  0.3607  2.5134
    2CHL1    C8   88   0.970   5.278   9.755  0.2216 -0.5971  0.3382
    2CHL1    H8   89   0.949   5.386   9.766 -1.2542 -0.8129 -0.1584
    2CHL1   C14   90   0.941   5.238   9.613 -0.3553 -0.4581 -0.5416
    2CHL1   H14   91   0.956   5.128   9.621  0.0384 -0.2966  1.7247
    2CHL1   C15   92   1.039   5.275   9.490  0.1763  0.1520  0.1593
    2CHL1  H15A   93   1.090   5.369   9.518  1.6148 -0.1187 -1.4062
    2CHL1  H15B   94   1.120   5.198   9.495 -0.1162 -0.0892  1.5149
    2CHL1   C16   95   0.956   5.265   9.363  0.4923  0.1913 -0.2357
    2CHL1  H16A   96   0.934   5.354   9.299 -1.9382 -0.4012 -0.3313
    2CHL1  H16B   97   0.999   5.189   9.294  2.1726  0.5065  0.4357
    2CHL1   C17   98   0.815   5.205   9.410  0.2295  0.5706  0.5221
    2CHL1   H17   99   0.817   5.094   9.408 -1.9940  0.4796  0.0892
    2CHL1   C13  100   0.803   5.251   9.567  0.1403  0.1926  1.3064
    2CHL1   C18  101   0.775   5.405   9.552  0.4908 -0.1503 -0.2164
    2CHL1  H18A  102   0.844   5.454   9.479 -0.4832 -1.3159 -2.0139
    2CHL1  H18B  103   0.675   5.424   9.507  0.4154 -0.2562 -0.0940
    2CHL1  H18C  104   0.780   5.455   9.650  0.8951  0.5087 -0.5670
    2CHL1   C12  105   0.717   5.161   9.653  0.2171  0.1125  0.0693
    2CHL1  H12A  106   0.610   5.167   9.625 -0.1027  0.0546  1.2301
    2CHL1  H12B  107   0.746   5.054   9.653 -0.0429 -0.0178  2.4827
    2CHL1   C11  108   0.724   5.209   9.794 -0.2394  0.4143 -0.9977
    2CHL1  H11A  109   0.688   5.314   9.792 -0.5151  0.3323 -0.5205
    2CHL1  H11B  110   0.661   5.140   9.854  0.0505 -0.6607 -1.9101
    2CHL1    C9  111   0.868   5.209   9.850  0.5279  0.0366  0.3484
    2CHL1    H9  112   0.903   5.104   9.844 -0.1288 -0.1925  0.4857
    2CHL1   C10  113   0.875   5.256   9.999  0.2723  0.2013  0.2053
    2CHL1   C19  114   0.797   5.387  10.022 -0.0822  0.2969  0.6453
    2CHL1  H19A  115   0.692   5.368   9.992  0.2215  0.3482 -0.5154
    2CHL1  H19B  116   0.808   5.435  10.122  0.6380 -1.1701  1.2898
    2CHL1  H19C  117   0.838   5.464   9.952  0.0701 -2.1746 -2.1964
    2CHL1    C1  118   0.827   5.139  10.089  0.3837  0.9637 -0.2867
    2CHL1   H1A  119   0.720   5.113  10.078  0.4821  0.3520  0.1713
    2CHL1   H1B  120   0.875   5.049  10.044 -1.2700 -0.0248 -0.1549
    2CHL1    C2  121   0.840   5.162  10.240 -0.0861  0.1512  0.3814
    2CHL1   H2A  122   0.787   5.080  10.293  0.8649  0.0260  1.1675
    2CHL1   H2B  123   0.794   5.262  10.254  2.3139  1.5556 -1.0261
    2CHL1   C20  124   0.696   5.227   9.323  0.7394 -0.2940 -0.1475
    2CHL1   H20  125   0.679   5.336   9.316 -0.8790 -0.3949  1.5511
    2CHL1   C21  126   0.576   5.164   9.376 -0.1634  0.3024 -0.0146
    2CHL1  H21A  127   0.495   5.166   9.300 -1.6516 -0.4783  1.4652
    2CHL1  H21B  128   0.525   5.216   9.460 -0.2988  1.2680 -0.6893
    2CHL1  H21C  129   0.579   5.061   9.418 -1.5467  0.3719  0.2882
    2CHL1   C22  130   0.723   5.180   9.177 -0.1075  0.1155 -0.7274
    2CHL1  H22A  131   0.826   5.211   9.147 -0.7714  0.8870 -2.3308
    2CHL1  H22B  132   0.721   5.069   9.170 -0.2032  0.1527 -1.4363
    2CHL1   C23  133   0.649   5.244   9.059  1.0049 -0.3160  0.8210
    2CHL1  H23A  134   0.548   5.197   9.051  1.1813 -0.5353 -0.1625
    2CHL1  H23B  135   0.639   5.355   9.070 -1.7378 -0.5693  1.6712
    2CHL1   C24  136   0.733   5.217   8.929 -0.1330  0.3763 -0.1265
    2CHL1  H24A  137   0.836   5.259   8.932 -0.4335  1.1348 -0.2791
    2CHL1  H24B  138   0.736   5.106   8.922 -0.3645  0.3181  0.6044
    2CHL1   C25  139   0.682   5.309   8.816  0.2917  0.7579 -0.3905
    2CHL1   H25  140   0.703   5.416   8.838 -0.6217  1.3599 -2.2191
    2CHL1   C26  141   0.763   5.269   8.691  0.1559  0.9386  0.3914
    2CHL1  H26A  142   0.736   5.167   8.655  2.2675  1.4122 -2.8872
    2CHL1  H26B  143   0.740   5.318   8.594  0.4651 -1.0432 -0.7372
    2CHL1  H26C  144   0.873   5.271   8.702  0.1781  0.8507  0.1865
    2CHL1   C27  145   0.534   5.288   8.790  0.1131 -0.0670  0.4012
    2CHL1  H27A  146   0.510   5.316   8.685  0.2582 -0.4901  0.2524
    2CHL1  H27B  147   0.508   5.180   8.786  1.0238 -0.3066  0.7931
    2CHL1  H27C  148   0.467   5.353   8.850  0.6100 -1.4057  2.5309
    3CHL1    C3  149   1.691   6.363  10.539 -0.5245  0.6691  0.6409
    3CHL1    H3  150   1.744   6.461  10.541 -0.3486  0.5788  0.5183
    3CHL1    O3  151   1.646   6.333  10.669 -0.7807  0.4348  0.2328
    3CHL1   H3'  152   1.588   6.257  10.671 -1.4401  0.9350  1.2363
    3CHL1    C4  153   1.555   6.373  10.469  0.0246  0.1856 -0.9568
    3CHL1   H4A  154   1.488   6.284  10.481  0.1423 -0.0981 -2.1845
    3CHL1   H4B  155   1.498   6.459  10.509 -0.7898 -0.7043 -0.1408
    3CHL1    C5  156   1.571   6.384  10.316  0.3705 -0.2674  0.4111
    3CHL1    C6  157   1.522   6.496  10.252 -0.0658  0.5567 -0.5452
    3CHL1    H6  158   1.471   6.571  10.313  0.8164 -0.1563  1.1467
    3CHL1    C7  159   1.542   6.524  10.110 -0.7458  0.0888  0.6519
    3CHL1   H7A  160   1.455   6.574  10.062 -0.1047 -0.1880 -0.8684
    3CHL1   H7B  161   1.616   6.606  10.095 -1.6965  0.7224 -0.8699
    3CHL1    C8  162   1.594   6.395  10.026 -0.2513 -0.1322  0.0065
    3CHL1    H8  163   1.502   6.334  10.012  1.3335 -2.2366 -1.9591
    3CHL1   C14  164   1.650   6.438   9.891  0.4532  0.7384 -0.4809
    3CHL1   H14  165   1.742   6.496   9.913  1.2438 -0.1823 -1.2346
    3CHL1   C15  166   1.562   6.522   9.801  0.1403 -0.2552 -0.2415
    3CHL1  H15A  167   1.461   6.476   9.809  0.2723 -0.2737  1.9258
    3CHL1  H15B  168   1.559   6.631   9.822 -0.1583 -0.6447  1.9766
    3CHL1   C16  169   1.625   6.502   9.657 -0.0865  0.1650 -0.3090
    3CHL1  H16A  170   1.548   6.461   9.589  0.7585 -0.1847 -1.0847
    3CHL1  H16B  171   1.671   6.601   9.638  0.5497  0.3042  1.6614
    3CHL1   C17  172   1.740   6.398   9.677 -0.3999  0.4153 -0.2081
    3CHL1   H17  173   1.832   6.451   9.708  0.5398 -2.1873  1.8532
    3CHL1   C13  174   1.698   6.316   9.802  0.1889 -0.3324  0.1870
    3CHL1   C18  175   1.592   6.212   9.756  0.1817 -0.1195 -0.4237
    3CHL1  H18A  176   1.639   6.119   9.718  0.3002 -0.7772  1.2828
    3CHL1  H18B  177   1.532   6.184   9.845  0.7907  0.1835  0.0894
    3CHL1  H18C  178   1.531   6.263   9.678 -0.0117 -0.8453 -0.7544
    3CHL1   C12  179   1.808   6.247   9.880  0.7176 -0.0309  0.3827
    3CHL1  H12A  180   1.851   6.153   9.841 -1.1353 -0.5655 -0.5052
    3CHL1  H12B  181   1.886   6.325   9.896  0.4472  0.1973  0.5963
    3CHL1   C11  182   1.751   6.201  10.015 -0.2559 -0.8978 -0.3144
    3CHL1  H11A  183   1.666   6.131  10.006  0.2711 -1.4307 -1.3199
    3CHL1  H11B  184   1.837   6.145  10.059  0.7205  1.2080  0.6500
    3CHL1    C9  185   1.702   6.320  10.102  0.6246  0.1030 -0.2677
    3CHL1    H9  186   1.778   6.399  10.115 -1.3061  2.0553 -0.3053
    3CHL1   C10  187   1.668   6.274  10.249  0.5198 -0.6054  0.4786
    3CHL1   C19  188   1.587   6.140  10.255 -0.6517 -0.1372  0.7371
    3CHL1  H19A  189   1.493   6.150  10.197  0.1897  2.7976 -0.3104
    3CHL1  H19B  190   1.644   6.054  10.214  0.0824  1.0658 -0.8516
    3CHL1  H19C  191   1.555   6.115  10.359 -2.4596  0.0236  0.2583
    3CHL1    C1  192   1.793   6.268  10.334 -0.6238  0.1002 -0.5045
    3CHL1   H1A  193   1.867   6.193  10.299 -0.7863 -0.2366 -0.1337
    3CHL1   H1B  194   1.847   6.364  10.322  0.8920 -0.8934 -2.2663
    3CHL1    C2  195   1.775   6.246  10.489  0.4283 -0.5227  0.2559
    3CHL1   H2A  196   1.875   6.256  10.535  1.0413  0.6750 -1.2584
    3CHL1   H2B  197   1.733   6.150  10.527 -1.5254  0.4490  0.6745
    3CHL1   C20  198   1.776   6.322   9.545 -0.4476  0.0674  0.3602
    3CHL1   H20  199   1.694   6.251   9.524 -0.1052 -0.0429 -0.6570
    3CHL1   C21  200   1.910   6.235   9.552  0.0754 -0.4723  0.2196
    3CHL1  H21A  201   1.905   6.169   9.641 -0.7373 -1.4293 -0.5177
    3CHL1  H21B  202   2.002   6.295   9.569  0.3569 -1.1926  1.3475
    3CHL1  H21C  203   1.919   6.181   9.455 -2.6173 -0.3488 -0.1738
    3CHL1   C22  204   1.787   6.415   9.416 -0.6158  0.3241  0.5599
    3CHL1  H22A  205   1.781   6.354   9.323  0.8089 -0.8457  1.1913
    3CHL1  H22B  206   1.699   6.481   9.406  1.2158  2.7356 -0.5488
    3CHL1   C23  207   1.916   6.506   9.408  0.2360 -0.0000  0.0650
    3CHL1  H23A  208   1.920   6.562   9.504 -3.5602 -1.7587  1.4680
    3CHL1  H23B  209   2.008   6.444   9.403  2.2042  2.8216 -2.2903
    3CHL1   C24  210   1.939   6.585   9.283  0.9618  0.0685  0.3935
    3CHL1  H24A  211   1.965   6.516   9.200 -2.0878  0.7948 -1.3303
    3CHL1  H24B  212   1.843   6.630   9.250  0.6995  0.0750  1.1543
    3CHL1   C25  213   2.047   6.689   9.297 -0.8439  0.2224 -0.4690
    3CHL1   H25  214   2.029   6.729   9.400  1.6921 -1.1397  0.5884
    3CHL1   C26  215   2.187   6.633   9.291  0.3579 -0.0711  0.3797
    3CHL1  H26A  216   2.260   6.715   9.310  0.6810 -0.4789  0.9299
    3CHL1  H26B  217   2.198   6.556   9.370  0.9668 -0.1646  0.2087
    3CHL1  H26C  218   2.204   6.583   9.194  1.8578  0.6630  0.2258
    3CHL1   C27  219   2.036   6.791   9.184  0.5826 -0.3101  0.5131
    3CHL1  H27A  220   2.041   6.755   9.079 -1.3801  0.3587  0.1480
    3CHL1  H27B  221   1.943   6.851   9.193  0.7123 -0.0314  0.0560
    3CHL1  H27C  222   2.117   6.867   9.189 -0.3238  0.6446  1.0265
    4CHL1    C3  223   0.927   0.522  10.837  0.4531  0.0721  0.8483
    4CHL1    H3  224   0.847   0.455  10.799  0.4982  1.1512 -1.2839
    4CHL1    O3  225   0.925   0.500  10.978 -0.0756 -0.1159 -0.2961
    4CHL1   H3'  226   0.990   0.563  11.011 -1.4068  1.0917  0.0930
    4CHL1    C4  227   1.065   0.481  10.782 -0.2293 -0.0217  0.6015
    4CHL1   H4A  228   1.136   0.551  10.832  1.6452 -1.7858  0.5175
    4CHL1   H4B  229   1.093   0.380  10.818  1.7995  0.5241  0.6797
    4CHL1    C5  230   1.074   0.501  10.627 -0.2838  0.2054 -0.3022
    4CHL1    C6  231   1.102   0.397  10.545 -0.3584 -0.5508 -0.8458
    4CHL1    H6  232   1.122   0.297  10.586 -1.7457 -1.2075 -1.7169
    4CHL1    C7  233   1.110   0.405  10.399 -0.0852  0.3583  0.3059
    4CHL1   H7A  234   1.211   0.373  10.365 -0.8103  1.1954 -2.9076
    4CHL1   H7B  235   1.036   0.336  10.354 -0.2029  2.8728 -3.9157
    4CHL1    C8  236   1.101   0.550  10.346  0.2903  0.7990  0.4057
    4CHL1    H8  237   1.201   0.597  10.353  0.1781  1.3309 -1.1373
    4CHL1   C14  238   1.076   0.554  10.195 -0.0193  0.6503  0.1033
    4CHL1   H14  239   0.981   0.497  10.182  0.4645  0.2951 -2.4808
    4CHL1   C15  240   1.171   0.473  10.101  0.0936 -0.2030 -0.4489
    4CHL1  H15A  241   1.279   0.485  10.126 -0.4371  0.3911  1.7550
    4CHL1  H15B  242   1.148   0.364  10.102 -2.3513  0.2593  1.1061
    4CHL1   C16  243   1.148   0.541   9.968 -0.2555  0.3029  0.4991
    4CHL1  H16A  244   1.248   0.563   9.923 -0.3675 -2.7087 -1.4777
    4CHL1  H16B  245   1.109   0.467   9.896 -0.2703  1.7145 -0.9943
    4CHL1   C17  246   1.059   0.663   9.986  0.1045  0.4714 -0.3344
    4CHL1   H17  247   0.953   0.631   9.974  0.7234 -0.9173 -3.0206
    4CHL1   C13  248   1.068   0.698  10.137 -0.1676  0.8751  0.4442
    4CHL1   C18  249   1.209   0.776  10.155 -0.6976  0.4838 -0.4318
    4CHL1  H18A  250   1.237   0.768  10.262  1.8005 -1.9253 -1.1415
    4CHL1  H18B  251   1.293   0.732  10.097 -0.4090 -3.7989  2.7440
    4CHL1  H18C  252   1.172   0.879  10.137  1.1188  1.0397 -1.2367
    4CHL1   C12  253   0.951   0.768  10.203  0.8149 -0.1497  0.3063
    4CHL1  H12A  254   0.955   0.871  10.164  0.3066 -0.3817 -0.3809
    4CHL1  H12B  255   0.856   0.723  10.166 -0.7282  1.0655  2.5796
    4CHL1   C11  256   0.967   0.775  10.357  0.0989 -0.1833 -0.1972
    4CHL1  H11A  257   1.044   0.851  10.382 -0.7163  0.3545  0.7390
    4CHL1  H11B  258   0.872   0.815  10.398  1.1215 -0.8821  3.1723
    4CHL1    C9  259   1.004   0.637  10.425  0.0819  0.0632 -0.3824
    4CHL1    H9  260   0.910   0.580  10.403 -1.6467  2.4637  0.3249
    4CHL1   C10  261   1.036   0.636  10.575 -0.0050  0.0409  0.0416
    4CHL1   C19  262   1.154   0.730  10.605 -0.1847  0.9397 -0.5770
    4CHL1  H19A  263   1.187   0.727  10.711  0.7616  0.5080 -0.8696
    4CHL1  H19B  264   1.235   0.708  10.531 -2.4302  1.8142 -3.4887
    4CHL1  H19C  265   1.131   0.837  10.589  1.4062  1.4754  0.4452
    4CHL1    C1  266   0.908   0.683  10.647 -0.0937 -0.4357 -0.1779
    4CHL1   H1A  267   0.904   0.792  10.629  1.3220 -0.5938 -1.6183
    4CHL1   H1B  268   0.824   0.621  10.609 -2.0714  0.2504  2.6873
    4CHL1    C2  269   0.901   0.667  10.805 -0.3121  0.3912  0.0554
    4CHL1   H2A  270   0.803   0.704  10.842 -0.0162  3.0606 -1.5888
    4CHL1   H2B  271   0.984   0.731  10.842  0.8831  0.0560 -1.8861
    4CHL1   C20  272   1.077   0.772   9.881 -0.6944 -0.1582  0.4882
    4CHL1   H20  273   1.181   0.812   9.887  0.3995 -2.8493  0.7114
    4CHL1   C21  274   0.968   0.875   9.877 -0.1071  0.5839  0.1942
    4CHL1  H21A  275   0.970   0.923   9.976  0.9688 -2.7920  1.9808
    4CHL1  H21B  276   0.873   0.819   9.865 -0.2279  0.0762  2.8863
    4CHL1  H21C  277   0.990   0.957   9.805  1.3461  0.4616  0.4651
    4CHL1   C22  278   1.071   0.709   9.735  0.5864  0.3696  0.3892
    4CHL1  H22A  279   1.132   0.616   9.736  0.3044  0.1318 -1.4927
    4CHL1  H22B  280   0.970   0.683   9.698  0.2630  1.3412  0.5572
    4CHL1   C23  281   1.141   0.793   9.626 -0.7619 -0.0873  0.2938
    4CHL1  H23A  282   1.075   0.878   9.599  1.5904  1.3364 -1.2742
    4CHL1  H23B  283   1.235   0.839   9.663 -0.5868  0.9653 -1.3513
    4CHL1   C24  284   1.173   0.720   9.502  0.5517 -0.3079 -0.0200
    4CHL1  H24A  285   1.221   0.620   9.508 -1.7903 -1.4547  1.0703
    4CHL1  H24B  286   1.078   0.677   9.462 -0.3359  1.5756 -0.0354
    4CHL1   C25  287   1.241   0.805   9.385  0.3044 -0.5734  0.1431
    4CHL1   H25  288   1.171   0.888   9.364 -2.3139 -2.4175  0.9601
    4CHL1   C26  289   1.369   0.867   9.426 -0.3825 -0.0598 -0.1123
    4CHL1  H26A  290   1.422   0.921   9.344  2.1966  0.3206  1.6783
    4CHL1  H26B  291   1.356   0.928   9.518 -1.0694 -1.6455  0.8834
    4CHL1  H26C  292   1.442   0.784   9.437 -0.3709 -0.0845 -0.3575
    4CHL1   C27  293   1.269   0.726   9.257 -0.1036  1.2843  0.0616
    4CHL1  H27A  294   1.336   0.647   9.296  0.7007  2.1272  0.4294
    4CHL1  H27B  295   1.180   0.688   9.203  0.4820 -0.7580  0.4473
    4CHL1  H27C  296   1.332   0.784   9.186  0.7242 -0.9512 -1.1109
    5CHL1    C3  297   1.144   5.815  10.572  0.4937  0.3421 -0.8405
    5CHL1    H3  298   1.040   5.852  10.559  0.9087  1.1633 -2.0130
    5CHL1    O3  299   1.171   5.775  10.708  0.2943 -0.4838 -0.5228
    5CHL1   H3'  300   1.265   5.758  10.710  0.2612 -0.6636 -0.5078
    5CHL1    C4  301   1.160   5.686  10.489 -0.1028 -0.7770  0.4551
    5CHL1   H4A  302   1.264   5.648  10.495 -0.6052 -2.4011 -0.5670
    5CHL1   H4B  303   1.082   5.617  10.525 -2.0815  2.1197  2.1471
    5CHL1    C5  304   1.144   5.714  10.341 -0.3255 -0.1166 -0.1946
    5CHL1    C6  305   1.053   5.657  10.265  0.5618 -0.1168 -0.2808
    5CHL1    H6  306   0.983   5.585  10.310  2.1915 -0.9001  1.1376
    5CHL1    C7  307   1.039   5.675  10.117  0.4131 -0.4734  0.3485
    5CHL1   H7A  308   1.021   5.575  10.071 -0.7132 -0.4313  0.6636
    5CHL1   H7B  309   0.949   5.736  10.095  0.2619 -1.0015 -0.6094
    5CHL1    C8  310   1.165   5.744  10.047  0.1985 -0.1611  0.6136
    5CHL1    H8  311   1.242   5.664  10.047 -0.9796 -1.3075 -0.0192
    5CHL1   C14  312   1.132   5.797   9.904 -0.1768  0.1460  0.4213
    5CHL1   H14  313   1.044   5.864   9.919 -0.2956  0.3944 -1.1397
    5CHL1   C15  314   1.068   5.698   9.808 -0.0221  0.0219  0.6900
    5CHL1  H15A  315   1.124   5.602   9.802 -0.6688 -0.4117  1.5155
    5CHL1  H15B  316   0.962   5.693   9.838 -0.5473  1.4840 -0.7516
    5CHL1   C16  317   1.091   5.755   9.667  0.6533  0.1233 -0.0209
    5CHL1  H16A  318   1.154   5.684   9.609 -1.7246 -1.6341 -0.5663
    5CHL1  H16B  319   0.999   5.759   9.605 -0.2514 -3.1149  0.8972
    5CHL1   C17  320   1.170   5.892   9.691 -0.6952  0.3213  0.0139
    5CHL1   H17  321   1.091   5.968   9.707 -0.4438  1.1796 -2.4972
    5CHL1   C13  322   1.237   5.886   9.834 -0.6818  0.8513 -0.0014
    5CHL1   C18  323   1.362   5.809   9.805 -0.1927  1.0632  0.1125
    5CHL1  H18A  324   1.394   5.756   9.898  0.4783  1.2281 -0.0200
    5CHL1  H18B  325   1.354   5.731   9.727 -0.3235  2.5020 -1.3542
    5CHL1  H18C  326   1.444   5.877   9.774  0.9762  0.2603  1.3372
    5CHL1   C12  327   1.266   6.004   9.927 -0.5823  0.4894 -0.5311
    5CHL1  H12A  328   1.352   6.062   9.887  0.3977 -1.7728 -1.8500
    5CHL1  H12B  329   1.179   6.070   9.948  0.5245  1.3881  1.5354
    5CHL1   C11  330   1.308   5.956  10.071  0.1158 -0.3037 -0.1467
    5CHL1  H11A  331   1.399   5.893  10.061  0.0624 -1.2133  3.6132
    5CHL1  H11B  332   1.329   6.043  10.137 -0.2115  0.2772 -0.7908
    5CHL1    C9  333   1.205   5.864  10.145 -0.2934 -0.3647 -0.0252
    5CHL1    H9  334   1.119   5.934  10.149  1.1660  1.6808 -1.7809
    5CHL1   C10  335   1.246   5.823  10.283 -0.3350 -0.0276  0.1356
    5CHL1   C19  336   1.387   5.760  10.286  0.4043 -0.5283  0.8412
    5CHL1  H19A  337   1.415   5.726  10.388  0.5461 -0.5153  0.8067
    5CHL1  H19B  338   1.410   5.677  10.215 -1.7849  0.8067 -1.5673
    5CHL1  H19C  339   1.462   5.837  10.257 -0.6760  0.9302  1.7961
    5CHL1    C1  340   1.238   5.947  10.384 -0.6267 -0.4556  0.0625
    5CHL1   H1A  341   1.312   6.026  10.359  1.2618 -2.3228 -0.4784
    5CHL1   H1B  342   1.140   5.996  10.366  0.0420 -0.2195 -3.7703
    5CHL1    C2  343   1.248   5.913  10.527  0.2890 -0.7820  0.5764
    5CHL1   H2A  344   1.250   6.011  10.579 -2.1662  1.1073 -2.5873
    5CHL1   H2B  345   1.350   5.869  10.535  0.5729 -0.8806 -2.4847
    5CHL1   C20  346   1.259   5.947   9.570 -0.3160  0.1769  0.4513
    5CHL1   H20  347   1.354   5.890   9.587  0.8604  1.5269 -1.2588
    5CHL1   C21  348   1.291   6.088   9.588 -0.5277  0.3596 -0.5887
    5CHL1  H21A  349   1.297   6.116   9.696  0.4847  1.3212 -0.8720
    5CHL1  H21B  350   1.220   6.154   9.533 -0.7570  0.1067 -0.5992
    5CHL1  H21C  351   1.387   6.109   9.536  0.1878 -2.2921 -0.4377
    5CHL1   C22  352   1.206   5.913   9.425 -0.0773  0.0607  0.3544
    5CHL1  H22A  353   1.221   5.803   9.425  0.4056  0.1059 -0.9672
    5CHL1  H22B  354   1.099   5.934   9.399  0.5968  0.2940 -2.6902
    5CHL1   C23  355   1.307   5.952   9.307  0.2551 -0.2855  0.2144
    5CHL1  H23A  356   1.319   6.063   9.301  0.9300 -0.4003 -0.8014
    5CHL1  H23B  357   1.401   5.905   9.341  1.1310  0.2029 -1.4351
    5CHL1   C24  358   1.269   5.899   9.166 -0.3643 -0.4090  0.2276
    5CHL1  H24A  359   1.252   5.789   9.167 -0.0439 -0.4660 -0.2826
    5CHL1  H24B  360   1.176   5.954   9.143  0.1355  0.3214 -0.0851
    5CHL1   C25  361   1.373   5.926   9.058 -0.1361 -0.1591 -0.0826
    5CHL1   H25  362   1.423   6.025   9.073 -0.3246  0.0523 -0.8313
    5CHL1   C26  363   1.491   5.829   9.054 -0.0976  0.2670 -0.0368
    5CHL1  H26A  364   1.454   5.732   9.014 -0.8949 -0.0127  1.3069
    5CHL1  H26B  365   1.571   5.866   8.987  0.0828 -1.3552 -0.7566
    5CHL1  H26C  366   1.523   5.809   9.158  1.1777 -0.1689 -0.4963
    5CHL1   C27  367   1.300   5.938   8.927  0.0937 -0.3787  0.1970
    5CHL1  H27A  368   1.237   5.850   8.902 -0.0141  0.4189 -2.7490
    5CHL1  H27B  369   1.237   6.029   8.933 -1.5136 -1.3762 -0.8929
    5CHL1  H27C  370   1.364   5.968   8.841 -0.0100  2.6475  1.0815
    6CHL1    C3  371   6.148   3.087  10.597 -0.4135  0.8519  0.4326
    6CHL1    H3  372   6.140   3.194  10.626  1.0654  0.5871  1.9566
    6CHL1    O3  373   6.102   2.990  10.695 -0.3203  0.9217 -0.0438
    6CHL1   H3'  374   6.171   2.923  10.697 -1.1250  0.1009  1.6129
    6CHL1    C4  375   6.061   3.060  10.473  0.3526 -0.9925 -0.2405
    6CHL1   H4A  376   6.045   2.952  10.454 -2.4954 -0.3794 -1.7831
    6CHL1   H4B  377   5.966   3.096  10.517 -0.3075 -0.1314 -2.2675
    6CHL1    C5  378   6.096   3.126  10.343 -0.1195 -0.7810  0.4371
    6CHL1    C6  379   6.006   3.197  10.268 -0.3414  0.4530 -0.3279
    6CHL1    H6  380   5.905   3.208  10.310 -0.2423  1.2008 -0.2763
    6CHL1    C7  381   6.032   3.252  10.133  0.3873  0.2438 -0.4541
    6CHL1   H7A  382   5.954   3.225  10.059 -2.3236  1.1290  1.8737
    6CHL1   H7B  383   6.039   3.361  10.151  0.9352  0.3170 -1.0829
    6CHL1    C8  384   6.170   3.206  10.080  0.4038 -0.2461 -0.3859
    6CHL1    H8  385   6.161   3.105  10.036 -0.8006  0.2839 -1.4137
    6CHL1   C14  386   6.215   3.309   9.975 -0.5006  1.0793  0.6207
    6CHL1   H14  387   6.236   3.407  10.022  0.1270  0.8048  0.9270
    6CHL1   C15  388   6.113   3.341   9.862 -0.4781  0.0817 -0.2483
    6CHL1  H15A  389   6.061   3.249   9.831 -1.8082  0.7765 -0.1353
    6CHL1  H15B  390   6.034   3.411   9.897 -0.6103 -1.5569  3.0958
    6CHL1   C16  391   6.203   3.396   9.742  1.0877 -0.2286 -0.2432
    6CHL1  H16A  392   6.184   3.345   9.645  1.2145 -0.6464 -0.0502
    6CHL1  H16B  393   6.183   3.505   9.734  0.3374 -0.2755  0.7770
    6CHL1   C17  394   6.348   3.383   9.788  0.3193 -0.5662  0.6002
    6CHL1   H17  395   6.384   3.470   9.848 -1.6068  0.6708  0.0519
    6CHL1   C13  396   6.347   3.271   9.896 -0.1260 -0.8369  0.4479
    6CHL1   C18  397   6.331   3.131   9.827  0.6422 -0.5166  0.4381
    6CHL1  H18A  398   6.422   3.106   9.768  0.2979 -2.2499  0.5783
    6CHL1  H18B  399   6.311   3.047   9.897  1.2961 -2.2115 -1.3171
    6CHL1  H18C  400   6.249   3.139   9.753  1.7659 -1.9887 -1.0478
    6CHL1   C12  401   6.464   3.270  10.003  0.0511  0.5801  0.2757
    6CHL1  H12A  402   6.552   3.224   9.953  0.3420 -2.4791  3.2638
    6CHL1  H12B  403   6.498   3.371  10.032  0.3456  0.7372 -0.5939
    6CHL1   C11  404   6.419   3.178  10.115  0.0137  0.3886  0.1048
    6CHL1  H11A  405   6.418   3.074  10.075 -1.3864  0.2973  0.3171
    6CHL1  H11B  406   6.507   3.164  10.181  0.6081 -0.5667 -0.8446
    6CHL1    C9  407   6.283   3.204  10.185  0.7356 -0.3907  0.0049
    6CHL1    H9  408   6.283   3.305  10.230  0.0634  0.4837 -1.8431
    6CHL1   C10  409   6.239   3.104  10.301 -0.0860 -0.3834 -0.1473
    6CHL1   C19  410   6.247   2.958  10.260  0.3755 -0.3392 -0.4179
    6CHL1  H19A  411   6.191   2.927  10.169 -0.5763 -1.9509  0.6472
    6CHL1  H19B  412   6.352   2.927  10.246 -0.1489 -3.9009  2.0442
    6CHL1  H19C  413   6.218   2.888  10.342  0.5549 -0.7579 -0.7084
    6CHL1    C1  414   6.331   3.123  10.431 -0.5991 -0.2651 -0.2404
    6CHL1   H1A  415   6.434   3.092  10.402  0.1384  1.6580  0.1819
    6CHL1   H1B  416   6.334   3.232  10.449  1.3814 -0.5446  1.5513
    6CHL1    C2  417   6.290   3.050  10.559  0.3111 -0.2285 -0.0217
    6CHL1   H2A  418   6.363   3.079  10.638  1.3164 -0.5892 -0.7899
    6CHL1   H2B  419   6.309   2.943  10.538 -0.6521 -0.2388 -0.8935
    6CHL1   C20  420   6.441   3.376   9.664  0.0989 -0.0402 -0.3988
    6CHL1   H20  421   6.415   3.279   9.616  0.6783 -0.2032 -0.3946
    6CHL1   C21  422   6.586   3.362   9.704 -0.1253  1.1549 -0.2273
    6CHL1  H21A  423   6.612   3.283   9.777 -1.4687  0.4623 -0.4722
    6CHL1  H21B  424   6.623   3.452   9.757 -0.6776  1.5259 -0.4639
    6CHL1  H21C  425   6.658   3.355   9.620  0.3822  2.4696  0.0795
    6CHL1   C22  426   6.424   3.506   9.571  0.0352  0.4292  0.3935
    6CHL1  H22A  427   6.318   3.526   9.546  0.0518  0.8908  0.6717
    6CHL1  H22B  428   6.459   3.592   9.632  0.8362  1.3528 -1.2957
    6CHL1   C23  429   6.500   3.492   9.438  0.3190 -0.5706  0.6047
    6CHL1  H23A  430   6.605   3.465   9.460  0.3276 -1.8585 -0.8379
    6CHL1  H23B  431   6.456   3.402   9.388  0.4226 -0.4133  0.2301
    6CHL1   C24  432   6.494   3.609   9.341 -0.2802 -0.5659 -0.5826
    6CHL1  H24A  433   6.392   3.622   9.300 -0.0014  0.0900 -1.0862
    6CHL1  H24B  434   6.514   3.703   9.397  2.8608 -0.2316 -2.0374
    6CHL1   C25  435   6.601   3.597   9.220  0.3822  0.8100 -0.8192
    6CHL1   H25  436   6.699   3.575   9.267 -1.0947 -0.1698  2.0405
    6CHL1   C26  437   6.566   3.470   9.138  0.3236 -0.6344  0.0762
    6CHL1  H26A  438   6.619   3.459   9.041  1.5906 -1.5075  0.8249
    6CHL1  H26B  439   6.582   3.368   9.181 -0.3719 -1.6384 -1.9061
    6CHL1  H26C  440   6.462   3.473   9.100 -0.2458 -0.8027  1.5694
    6CHL1   C27  441   6.605   3.720   9.129 -0.1095 -0.2951 -0.3426
    6CHL1  H27A  442   6.658   3.806   9.174  3.4760 -1.0624 -2.6655
    6CHL1  H27B  443   6.670   3.696   9.041  0.0445  0.6376 -0.4963
    6CHL1  H27C  444   6.508   3.757   9.091  1.4706  2.8626 -1.6569
    7CHL1    C3  445   2.314   6.168  10.683  0.2307  0.1436 -0.5468
    7CHL1    H3  446   2.409   6.226  10.678  0.6333 -0.5607 -1.3412
    7CHL1    O3  447   2.264   6.167  10.815  0.1543 -0.4421 -0.1311
    7CHL1   H3'  448   2.176   6.130  10.805 -0.1408  0.5883 -1.7105
    7CHL1    C4  449   2.209   6.243  10.599  0.1694 -0.0092 -0.3587
    7CHL1   H4A  450   2.111   6.194  10.615  0.9838 -2.1161 -1.4715
    7CHL1   H4B  451   2.201   6.348  10.633  0.3138  0.5425 -1.9471
    7CHL1    C5  452   2.232   6.238  10.452  0.2868  0.2096 -0.4019
    7CHL1    C6  453   2.244   6.356  10.383  0.3202  0.4288  0.4815
    7CHL1    H6  454   2.226   6.452  10.433 -2.7850  0.8178 -1.0907
    7CHL1    C7  455   2.274   6.371  10.242 -0.3320  0.0762  0.1464
    7CHL1   H7A  456   2.216   6.453  10.195 -0.1322  0.6300  0.8416
    7CHL1   H7B  457   2.376   6.409  10.221 -0.2143 -0.9146 -1.2622
    7CHL1    C8  458   2.255   6.236  10.165  0.0399 -0.7535 -0.3141
    7CHL1    H8  459   2.147   6.214  10.152 -0.5220  2.5188 -2.1775
    7CHL1   C14  460   2.311   6.250  10.029  0.5073 -0.1570  0.2787
    7CHL1   H14  461   2.417   6.277  10.048  0.3195 -0.0909  1.2482
    7CHL1   C15  462   2.265   6.364   9.941  0.4438 -0.0213  0.1120
    7CHL1  H15A  463   2.154   6.375   9.940  0.4568  0.2885 -1.7542
    7CHL1  H15B  464   2.309   6.463   9.968 -0.4219  0.8543 -1.5211
    7CHL1   C16  465   2.310   6.323   9.800 -0.6102 -0.5222 -0.2578
    7CHL1  H16A  466   2.233   6.346   9.724  1.2234  0.1706 -1.9965
    7CHL1  H16B  467   2.400   6.384   9.774  0.1477 -1.4020  0.2093
    7CHL1   C17  468   2.352   6.166   9.813 -0.3137 -0.1562  0.1304
    7CHL1   H17  469   2.463   6.160   9.813 -0.3420 -0.6965  0.1302
    7CHL1   C13  470   2.292   6.122   9.944  0.0987 -0.4343  0.2997
    7CHL1   C18  471   2.143   6.090   9.919  0.1563  0.3682  0.3333
    7CHL1  H18A  472   2.125   5.993   9.867  0.6053 -0.2619  1.3403
    7CHL1  H18B  473   2.080   6.090  10.011 -1.9285  0.4869 -1.0206
    7CHL1  H18C  474   2.094   6.162   9.850 -1.4701 -0.8258  0.1780
    7CHL1   C12  475   2.359   6.004  10.018  0.3302 -0.7154  0.4281
    7CHL1  H12A  476   2.356   5.906   9.967 -1.2836 -0.4745  0.0244
    7CHL1  H12B  477   2.467   6.029  10.024  0.3199 -0.8095  1.2098
    7CHL1   C11  478   2.309   5.983  10.164  0.0744  0.6008  0.4422
    7CHL1  H11A  479   2.204   5.947  10.162 -0.0105  0.8708 -0.6982
    7CHL1  H11B  480   2.363   5.907  10.225 -1.1292 -0.8509 -0.2443
    7CHL1    C9  481   2.316   6.121  10.245 -0.0379  1.0249  0.3535
    7CHL1    H9  482   2.427   6.131  10.254  0.4243 -2.3665 -0.2507
    7CHL1   C10  483   2.266   6.097  10.395  0.0620 -0.7198 -0.3162
    7CHL1   C19  484   2.139   6.008  10.403 -0.5099 -0.6752  0.4308
    7CHL1  H19A  485   2.069   6.039  10.322 -0.1286 -0.6993  0.0881
    7CHL1  H19B  486   2.162   5.902  10.379  1.8339 -0.3858  1.1358
    7CHL1  H19C  487   2.085   6.010  10.500  0.8304 -1.0358  1.2045
    7CHL1    C1  488   2.377   6.027  10.482  0.2884 -1.0554  0.0782
    7CHL1   H1A  489   2.390   5.920  10.453  2.0689 -0.3934 -1.7730
    7CHL1   H1B  490   2.473   6.082  10.473 -1.0998  2.5380  3.7629
    7CHL1    C2  491   2.342   6.025  10.634 -0.9303  0.0878 -0.7983
    7CHL1   H2A  492   2.430   5.980  10.684 -2.1107  0.3637  1.7197
    7CHL1   H2B  493   2.255   5.962  10.665 -0.8634  1.4501  2.6621
    7CHL1   C20  494   2.322   6.092   9.684 -0.0543 -0.4259 -0.3791
    7CHL1   H20  495   2.212   6.088   9.673 -0.4503 -0.5949  2.6288
    7CHL1   C21  496   2.372   5.949   9.701 -0.6610  0.4643  0.0697
    7CHL1  H21A  497   2.479   5.956   9.732  0.4132 -3.5265 -2.0432
    7CHL1  H21B  498   2.373   5.897   9.603 -4.4810 -0.1904  0.2419
    7CHL1  H21C  499   2.311   5.898   9.778 -1.5202 -0.1311 -0.9654
    7CHL1   C22  500   2.387   6.150   9.562 -0.4986  0.6780  0.4394
    7CHL1  H22A  501   2.423   6.255   9.561  2.6556 -0.2945 -1.1417
    7CHL1  H22B  502   2.475   6.086   9.539 -1.6294 -1.0337  0.6490
    7CHL1   C23  503   2.294   6.137   9.441 -0.4051  0.4430 -0.0417
    7CHL1  H23A  504   2.257   6.035   9.417  0.3341  0.5683 -1.9393
    7CHL1  H23B  505   2.209   6.206   9.459  0.5372  1.7733 -0.4983
    7CHL1   C24  506   2.365   6.180   9.314  0.1028 -0.1894 -0.0001
    7CHL1  H24A  507   2.420   6.276   9.322  1.1440 -0.8324  0.9609
    7CHL1  H24B  508   2.434   6.102   9.276 -0.0398 -1.3021  1.8907
    7CHL1   C25  509   2.259   6.194   9.204 -0.3058 -0.7194  0.6393
    7CHL1   H25  510   2.165   6.245   9.233  0.6569  0.0010  2.6617
    7CHL1   C26  511   2.313   6.257   9.074  0.1601 -0.5390 -0.7383
    7CHL1  H26A  512   2.380   6.183   9.023 -0.1200 -0.3786 -1.3520
    7CHL1  H26B  513   2.232   6.292   9.007  1.0184 -0.5835 -1.8403
    7CHL1  H26C  514   2.375   6.342   9.110 -0.7062 -1.0359  2.1556
    7CHL1   C27  515   2.198   6.063   9.165 -0.2839 -0.0233 -0.2136
    7CHL1  H27A  516   2.268   6.001   9.105 -1.8029 -1.9508 -0.1029
    7CHL1  H27B  517   2.172   6.005   9.256  2.9430  0.3324  1.0656
    7CHL1  H27C  518   2.105   6.072   9.104 -0.4932 -2.4518 -0.3496
    8CHL1    C3  519   3.810   2.161  10.683  0.5313 -0.1934  0.9031
    8CHL1    H3  520   3.918   2.156  10.658  1.0758  2.3118  2.3674
    8CHL1    O3  521   3.802   2.210  10.819  0.2845 -0.1064  0.2238
    8CHL1   H3'  522   3.842   2.297  10.833  1.3625 -0.6579  0.7338
    8CHL1    C4  523   3.745   2.270  10.587  0.3175 -0.2066 -0.2186
    8CHL1   H4A  524   3.643   2.295  10.623  0.0635 -0.7495 -0.5467
    8CHL1   H4B  525   3.804   2.363  10.599  0.8065 -0.2260 -2.1635
    8CHL1    C5  526   3.736   2.225  10.441 -0.0604 -0.1348 -0.1522
    8CHL1    C6  527   3.778   2.300  10.337 -0.1406  0.4919 -0.4800
    8CHL1    H6  528   3.829   2.393  10.365  1.3451 -0.2184 -0.7443
    8CHL1    C7  529   3.770   2.264  10.193 -0.0994 -0.4277 -0.2982
    8CHL1   H7A  530   3.736   2.360  10.149 -1.4113 -0.0954  1.3395
    8CHL1   H7B  531   3.869   2.228  10.156  0.4394  0.1153  0.5790
    8CHL1    C8  532   3.662   2.156  10.178 -0.0715 -0.3946  0.1555
    8CHL1    H8  533   3.564   2.208  10.190  0.6955  0.9834  0.5739
    8CHL1   C14  534   3.660   2.100  10.033  0.3605 -1.0506 -0.3904
    8CHL1   H14  535   3.751   2.038  10.021 -0.0612 -1.2295 -3.6004
    8CHL1   C15  536   3.655   2.205   9.923 -0.7522 -0.3622  0.2889
    8CHL1  H15A  537   3.580   2.282   9.952 -1.2456 -0.9749  0.6745
    8CHL1  H15B  538   3.752   2.254   9.903 -1.5939  0.4479 -2.3131
    8CHL1   C16  539   3.605   2.136   9.799  0.3943 -0.0050 -0.3814
    8CHL1  H16A  540   3.512   2.189   9.771 -2.0212 -0.8135  4.9481
    8CHL1  H16B  541   3.686   2.136   9.722  1.5852 -0.4679  0.8234
    8CHL1   C17  542   3.572   1.986   9.850 -0.5504 -0.2359  0.4831
    8CHL1   H17  543   3.670   1.933   9.846 -1.2630 -1.6015  0.4838
    8CHL1   C13  544   3.549   1.998  10.003  0.1441  0.8349  0.0267
    8CHL1   C18  545   3.404   2.059  10.014 -0.6629  0.2056  0.1066
    8CHL1  H18A  546   3.329   1.978  10.003  1.4383 -1.9020  0.4354
    8CHL1  H18B  547   3.397   2.125  10.103 -1.6484  0.7135 -0.3364
    8CHL1  H18C  548   3.395   2.138   9.937  1.9061  0.2271 -0.2667
    8CHL1   C12  549   3.566   1.884  10.099 -0.0158 -0.2710 -0.1233
    8CHL1  H12A  550   3.505   1.798  10.066  2.1222 -0.7128 -3.3786
    8CHL1  H12B  551   3.672   1.856  10.081  0.5356  2.3011 -1.3198
    8CHL1   C11  552   3.557   1.934  10.242  0.0568 -0.1102  0.0497
    8CHL1  H11A  553   3.456   1.972  10.266  0.8986  1.7284  0.8663
    8CHL1  H11B  554   3.572   1.850  10.313 -0.3631 -0.3526 -0.1485
    8CHL1    C9  555   3.669   2.039  10.281  0.2832 -0.3487  0.4244
    8CHL1    H9  556   3.766   1.988  10.264  1.6574  2.2381 -0.0014
    8CHL1   C10  557   3.660   2.094  10.428  0.5444  0.1186  1.0500
    8CHL1   C19  558   3.507   2.108  10.470  0.6264  0.0316  0.8967
    8CHL1  H19A  559   3.457   2.008  10.476 -0.6067  0.6868  2.0194
    8CHL1  H19B  560   3.504   2.156  10.570 -1.0010  0.7323  0.5292
    8CHL1  H19C  561   3.458   2.178  10.400  0.5457 -1.9532 -1.1620
    8CHL1    C1  562   3.721   1.988  10.522 -0.1682  0.4418  0.6400
    8CHL1   H1A  563   3.649   1.904  10.528 -0.4138  0.4636 -1.2569
    8CHL1   H1B  564   3.812   1.945  10.476 -0.3208  1.1700 -0.3855
    8CHL1    C2  565   3.740   2.025  10.673 -0.0190 -0.4457  0.2455
    8CHL1   H2A  566   3.793   1.942  10.723  1.3053 -0.1441 -0.5998
    8CHL1   H2B  567   3.645   2.031  10.730 -0.0963 -0.2409  0.0988
    8CHL1   C20  568   3.473   1.917   9.758  0.6681 -0.5552 -0.0766
    8CHL1   H20  569   3.374   1.968   9.756  0.8783  0.0806  2.3698
    8CHL1   C21  570   3.422   1.772   9.815  0.2482 -0.4514  0.6715
    8CHL1  H21A  571   3.359   1.722   9.738  2.0576 -1.7482 -0.0227
    8CHL1  H21B  572   3.367   1.787   9.911 -0.0228  1.9473  0.2055
    8CHL1  H21C  573   3.510   1.707   9.834 -0.5943 -1.8155  0.0551
    8CHL1   C22  574   3.517   1.905   9.608 -0.5303 -0.1770 -0.2308
    8CHL1  H22A  575   3.596   1.976   9.573  0.7415 -1.3979  0.0563
    8CHL1  H22B  576   3.557   1.802   9.598  1.2873  0.4390  0.2194
    8CHL1   C23  577   3.396   1.934   9.512 -0.2584  0.1891  0.1462
    8CHL1  H23A  578   3.300   1.884   9.536  0.5236 -1.6944 -0.4412
    8CHL1  H23B  579   3.388   2.044   9.524 -0.1331  0.0728  1.4536
    8CHL1   C24  580   3.419   1.887   9.371 -0.6137  0.4460 -0.0481
    8CHL1  H24A  581   3.509   1.941   9.334  0.3874  1.1237  3.0744
    8CHL1  H24B  582   3.450   1.781   9.377  2.4335  1.2150 -0.5967
    8CHL1   C25  583   3.302   1.902   9.279 -0.6590 -0.0919  0.5795
    8CHL1   H25  584   3.211   1.853   9.319 -0.6689  0.7715  1.6580
    8CHL1   C26  585   3.269   2.039   9.242 -0.1588  0.6840 -0.0179
    8CHL1  H26A  586   3.349   2.093   9.187 -0.6346 -0.3318 -1.8047
    8CHL1  H26B  587   3.185   2.034   9.170  1.2593 -2.4622 -1.6583
    8CHL1  H26C  588   3.239   2.103   9.328 -1.0160  1.3115 -0.7672
    8CHL1   C27  589   3.334   1.827   9.152 -0.4734  0.5254  0.1292
    8CHL1  H27A  590   3.428   1.860   9.103  0.6252 -1.9704  0.4253
    8CHL1  H27B  591   3.341   1.717   9.167  0.3749  0.7586  1.6243
    8CHL1  H27C  592   3.249   1.850   9.084 -0.4082  1.1928  0.2674
    9CHL1    C3  593   5.544   3.125  10.263  0.4837  0.0441  0.7463
    9CHL1    H3  594   5.623   3.201  10.281  0.6867 -0.3067  1.3806
    9CHL1    O3  595   5.498   3.089  10.394 -0.0533 -0.1534 -0.4589
    9CHL1   H3'  596   5.541   3.147  10.459  1.1533 -0.1702 -1.2040
    9CHL1    C4  597   5.430   3.158  10.180 -0.2444  0.1463  0.5546
    9CHL1   H4A  598   5.359   3.074  10.192  0.5138 -0.4568  0.9606
    9CHL1   H4B  599   5.386   3.249  10.224  0.5304  0.4966  0.6312
    9CHL1    C5  600   5.462   3.181  10.031 -0.8165 -0.6382  0.0739
    9CHL1    C6  601   5.430   3.302   9.982  0.3426  0.6074  0.4954
    9CHL1    H6  602   5.389   3.378  10.051  0.8257 -0.6401  2.2417
    9CHL1    C7  603   5.466   3.342   9.842  0.2904 -0.2710  0.1250
    9CHL1   H7A  604   5.379   3.391   9.792  0.2701  0.8149  1.1647
    9CHL1   H7B  605   5.542   3.423   9.846 -0.7397  0.8439 -1.4871
    9CHL1    C8  606   5.531   3.235   9.747 -0.4451 -0.2513  0.1175
    9CHL1    H8  607   5.448   3.174   9.706 -1.1259 -0.0373  1.1204
    9CHL1   C14  608   5.616   3.303   9.637  1.0449 -0.2141 -0.9765
    9CHL1   H14  609   5.687   3.366   9.695  0.4016 -0.8564  0.5969
    9CHL1   C15  610   5.552   3.402   9.542 -0.0135 -0.1048  0.1181
    9CHL1  H15A  611   5.449   3.377   9.509 -0.3670  1.8025 -0.3848
    9CHL1  H15B  612   5.547   3.500   9.595  1.3904 -0.0594  0.2116
    9CHL1   C16  613   5.652   3.416   9.424  0.2388  0.2084 -0.6468
    9CHL1  H16A  614   5.598   3.398   9.329  1.3241 -0.5611 -1.1297
    9CHL1  H16B  615   5.701   3.516   9.418  0.1595  0.3827  0.9519
    9CHL1   C17  616   5.754   3.302   9.449  0.6705  0.0335 -0.8808
    9CHL1   H17  617   5.827   3.348   9.519  0.4725 -0.4467 -0.3540
    9CHL1   C13  618   5.680   3.205   9.547 -0.5211  0.4966  1.1196
    9CHL1   C18  619   5.570   3.124   9.469 -0.8090  0.2512 -0.0128
    9CHL1  H18A  620   5.621   3.058   9.396  1.4105 -0.7345  2.2919
    9CHL1  H18B  621   5.512   3.053   9.531  1.6030  0.4926  2.7584
    9CHL1  H18C  622   5.500   3.189   9.412  0.2497  1.3168 -0.1573
    9CHL1   C12  623   5.772   3.110   9.627 -0.0952  0.0357 -0.3099
    9CHL1  H12A  624   5.816   3.026   9.571 -1.6776 -1.5061  0.6660
    9CHL1  H12B  625   5.858   3.171   9.662  0.1587 -1.0408  1.0138
    9CHL1   C11  626   5.696   3.042   9.742 -0.0784  0.2549 -0.4157
    9CHL1  H11A  627   5.631   2.958   9.709 -0.0333  0.1280 -0.1854
    9CHL1  H11B  628   5.781   2.992   9.793 -0.3680 -2.4690 -2.3737
    9CHL1    C9  629   5.616   3.143   9.836 -0.3510  0.3868  0.4296
    9CHL1    H9  630   5.691   3.211   9.882  0.0750  0.4194 -0.3106
    9CHL1   C10  631   5.550   3.072   9.966 -0.0639 -0.7989  0.1710
    9CHL1   C19  632   5.458   2.965   9.907  0.4534  0.5732  0.8611
    9CHL1  H19A  633   5.382   3.002   9.836  0.0297 -1.1817  0.3562
    9CHL1  H19B  634   5.511   2.881   9.859 -1.5511  0.6120 -1.5896
    9CHL1  H19C  635   5.410   2.919   9.996  1.3432 -0.5036  0.8052
    9CHL1    C1  636   5.658   3.012  10.064  0.1561  0.4287  0.5122
    9CHL1   H1A  637   5.693   2.915  10.025 -2.6644 -0.3702 -0.2392
    9CHL1   H1B  638   5.743   3.084  10.056  0.1832  0.2972 -0.3997
    9CHL1    C2  639   5.610   3.003  10.212  0.4193  0.1465  0.7591
    9CHL1   H2A  640   5.705   2.989  10.269  0.0048 -1.5407  1.0913
    9CHL1   H2B  641   5.548   2.911  10.214  0.3411  0.1567 -0.6481
    9CHL1   C20  642   5.825   3.238   9.326 -0.0935 -0.0738 -0.6221
    9CHL1   H20  643   5.867   3.141   9.359  0.1344 -0.1574 -1.1369
    9CHL1   C21  644   5.958   3.321   9.305  0.6218 -0.3016  0.4366
    9CHL1  H21A  645   6.029   3.307   9.390  1.1419 -0.6952 -0.0614
    9CHL1  H21B  646   5.933   3.429   9.306  1.7969 -0.0128  1.1458
    9CHL1  H21C  647   6.002   3.296   9.206 -1.0943  0.9259 -0.6905
    9CHL1   C22  648   5.748   3.219   9.190  0.1382 -0.1363  0.1124
    9CHL1  H22A  649   5.655   3.164   9.215  2.1744 -2.7359  2.6962
    9CHL1  H22B  650   5.715   3.318   9.151  0.7889  0.5250  1.1747
    9CHL1   C23  651   5.814   3.151   9.068 -0.0998 -0.4615  0.4269
    9CHL1  H23A  652   5.900   3.217   9.045 -0.9442 -0.2234 -2.3554
    9CHL1  H23B  653   5.856   3.055   9.104  0.9496  0.0709  0.6881
    9CHL1   C24  654   5.722   3.137   8.944  0.2144  0.6311 -0.2741
    9CHL1  H24A  655   5.635   3.073   8.970  1.2024  0.0890  1.8968
    9CHL1  H24B  656   5.674   3.234   8.920  0.4691  0.5744 -1.0614
    9CHL1   C25  657   5.785   3.119   8.804 -0.1581  0.1801  0.9422
    9CHL1   H25  658   5.704   3.125   8.728 -1.4150 -0.7262  2.1672
    9CHL1   C26  659   5.883   3.225   8.761  0.6724  0.3753 -0.0716
    9CHL1  H26A  660   5.964   3.229   8.837  2.8544 -1.7017 -2.1063
    9CHL1  H26B  661   5.940   3.195   8.670  1.5046  1.1750  0.1587
    9CHL1  H26C  662   5.850   3.329   8.739 -0.1872 -0.4014 -2.9231
    9CHL1   C27  663   5.832   2.972   8.787 -0.2669  0.0820 -0.0207
    9CHL1  H27A  664   5.918   2.948   8.853  0.3027 -1.7617 -1.3436
    9CHL1  H27B  665   5.751   2.897   8.794  0.7647 -1.2295 -1.3691
    9CHL1  H27C  666   5.869   2.964   8.682  2.2583 -1.4241  0.9002
   10CHL1    C3  667   5.174   0.698  10.288 -0.6932 -0.3865  0.4709
   10CHL1    H3  668   5.145   0.591  10.277 -1.4236 -0.2147  0.6742
   10CHL1    O3  669   5.165   0.725  10.426  0.3768 -0.2923 -0.4753
   10CHL1   H3'  670   5.072   0.715  10.447 -0.4055  2.6734 -1.9067
   10CHL1    C4  671   5.319   0.713  10.220  0.0247  0.0055 -0.1153
   10CHL1   H4A  672   5.349   0.818  10.241  0.1797 -0.1553  0.4890
   10CHL1   H4B  673   5.388   0.642  10.270  0.5989  0.5834 -0.0751
   10CHL1    C5  674   5.321   0.704  10.075  0.6040  0.0564 -0.7028
   10CHL1    C6  675   5.412   0.623  10.020 -0.1006  0.3599  0.2636
   10CHL1    H6  676   5.483   0.561  10.076 -1.1452 -0.4968  0.6895
   10CHL1    C7  677   5.429   0.605   9.874 -0.1326 -0.1235  0.9301
   10CHL1   H7A  678   5.536   0.597   9.847 -0.4026 -1.0043  0.0757
   10CHL1   H7B  679   5.380   0.507   9.858 -1.5586 -0.3126  5.0786
   10CHL1    C8  680   5.348   0.711   9.796  0.0903 -0.2291  0.2801
   10CHL1    H8  681   5.405   0.806   9.804 -0.3481  0.0613  0.0533
   10CHL1   C14  682   5.335   0.663   9.650  0.3969 -0.3861  0.2526
   10CHL1   H14  683   5.275   0.569   9.653 -1.3638  0.6869  1.0942
   10CHL1   C15  684   5.465   0.622   9.587  0.0359 -0.5890  0.1459
   10CHL1  H15A  685   5.551   0.688   9.608 -1.4741  0.7700  2.5373
   10CHL1  H15B  686   5.485   0.521   9.628  0.1341 -0.1913  1.1079
   10CHL1   C16  687   5.432   0.632   9.433  0.0244 -0.5426 -0.5842
   10CHL1  H16A  688   5.512   0.695   9.389 -0.6100  2.8279  2.6062
   10CHL1  H16B  689   5.441   0.532   9.385 -0.3457 -1.5664  1.4046
   10CHL1   C17  690   5.286   0.691   9.418 -0.6387  0.3604 -0.7937
   10CHL1   H17  691   5.218   0.603   9.409 -2.3860  1.5936 -0.2329
   10CHL1   C13  692   5.261   0.755   9.556 -0.3871  0.3391  0.4985
   10CHL1   C18  693   5.320   0.896   9.549  0.0901  0.8939 -0.6108
   10CHL1  H18A  694   5.379   0.928   9.638  2.7005 -1.6504 -1.2547
   10CHL1  H18B  695   5.396   0.906   9.468  0.6562  3.6290  0.1469
   10CHL1  H18C  696   5.248   0.971   9.511 -1.2517 -0.1326 -0.1598
   10CHL1   C12  697   5.108   0.761   9.609  0.5338 -0.4251 -0.2049
   10CHL1  H12A  698   5.052   0.840   9.555 -0.7822 -0.0896  1.5579
   10CHL1  H12B  699   5.062   0.661   9.596  1.0736 -0.7074 -0.0032
   10CHL1   C11  700   5.112   0.809   9.756  0.3233 -0.2963 -0.2345
   10CHL1  H11A  701   5.143   0.915   9.745 -1.2636 -0.0064 -2.9025
   10CHL1  H11B  702   5.006   0.798   9.787  0.3874 -0.2870 -0.0087
   10CHL1    C9  703   5.205   0.722   9.853 -0.3423 -1.2698  0.4988
   10CHL1    H9  704   5.171   0.616   9.849  0.9789 -1.7084  0.3913
   10CHL1   C10  705   5.208   0.773  10.001 -0.1131 -0.2824  0.2663
   10CHL1   C19  706   5.230   0.925   9.990  0.6383 -0.0208 -0.1061
   10CHL1  H19A  707   5.138   0.985   9.973  1.3375  1.4515  1.0347
   10CHL1  H19B  708   5.272   0.965  10.085 -1.1989  1.7452  0.0179
   10CHL1  H19C  709   5.308   0.942   9.913 -1.5018  0.0044 -2.3958
   10CHL1    C1  710   5.068   0.749  10.065  0.1798 -0.4048  0.1221
   10CHL1   H1A  711   4.988   0.807  10.015 -3.5353 -3.0108  2.4707
   10CHL1   H1B  712   5.048   0.642  10.043  0.0841 -0.6735  1.4157
   10CHL1    C2  713   5.070   0.787  10.216 -0.0212  0.6301 -0.1911
   10CHL1   H2A  714   4.970   0.766  10.260  1.0012 -0.9385  1.5148
   10CHL1   H2B  715   5.092   0.894  10.233 -1.5023  1.0863 -0.9612
   10CHL1   C20  716   5.262   0.776   9.291 -0.5128  0.6622 -0.0639
   10CHL1   H20  717   5.344   0.849   9.281 -0.3762  0.4169 -0.8350
   10CHL1   C21  718   5.121   0.853   9.289 -0.1863 -0.1192  0.4676
   10CHL1  H21A  719   5.141   0.944   9.350  2.2122  0.3407 -0.8860
   10CHL1  H21B  720   5.041   0.793   9.337  0.1208  0.0899  1.2719
   10CHL1  H21C  721   5.100   0.870   9.182 -2.1585 -0.8492  0.6956
   10CHL1   C22  722   5.278   0.679   9.166 -0.6699 -0.1922  0.2378
   10CHL1  H22A  723   5.379   0.632   9.168  0.7488  2.2564 -2.9640
   10CHL1  H22B  724   5.204   0.596   9.162  0.7154 -1.4312 -0.5152
   10CHL1   C23  725   5.260   0.749   9.024 -0.3050  0.2429 -0.3856
   10CHL1  H23A  726   5.151   0.757   9.001 -0.4784 -0.5227  0.1102
   10CHL1  H23B  727   5.311   0.847   9.039  1.9172 -1.0161  0.7305
   10CHL1   C24  728   5.348   0.673   8.916  0.4834  0.0050 -0.3033
   10CHL1  H24A  729   5.458   0.684   8.931  0.5227  0.5138 -0.9310
   10CHL1  H24B  730   5.330   0.564   8.931  3.1908 -0.6635 -1.3609
   10CHL1   C25  731   5.305   0.708   8.771  0.0587 -0.4307  0.1960
   10CHL1   H25  732   5.200   0.675   8.759 -0.7704  2.0761  0.0846
   10CHL1   C26  733   5.317   0.861   8.748  0.8999  0.4469  0.5884
   10CHL1  H26A  734   5.236   0.917   8.800  1.3152 -0.0332  1.7756
   10CHL1  H26B  735   5.406   0.890   8.807  1.3213 -0.5675  0.4578
   10CHL1  H26C  736   5.327   0.888   8.641  3.1187 -1.6571  0.1815
   10CHL1   C27  737   5.403   0.641   8.662  0.5784  0.2983  0.1180
   10CHL1  H27A  738   5.506   0.681   8.673  1.8932 -3.3304  2.7341
   10CHL1  H27B  739   5.400   0.534   8.691 -0.3727  1.0201  2.9078
   10CHL1  H27C  740   5.366   0.652   8.557 -1.3747  0.0195  0.7448
   11CHL1    C3  741   1.302   3.393  10.468 -0.7594  0.7618 -1.3746
   11CHL1    H3  742   1.252   3.325  10.397  0.8773 -1.2654 -0.6788
   11CHL1    O3  743   1.263   3.375  10.606  0.1467 -0.4862 -0.3533
   11CHL1   H3'  744   1.337   3.411  10.656  0.3073  0.5931 -1.3314
   11CHL1    C4  745   1.452   3.388  10.448  0.0655  0.1059  0.3821
   11CHL1   H4A  746   1.500   3.456  10.522 -0.1277  0.3101  0.3222
   11CHL1   H4B  747   1.482   3.286  10.478 -0.4652 -0.4590 -0.9234
   11CHL1    C5  748   1.500   3.418  10.308 -0.1095  0.4774  0.8443
   11CHL1    C6  749   1.560   3.319  10.237 -0.5160  0.7336  0.1480
   11CHL1    H6  750   1.574   3.221  10.285  1.7477  0.0976 -1.6469
   11CHL1    C7  751   1.594   3.323  10.085  0.3420 -0.0154  0.0778
   11CHL1   H7A  752   1.694   3.280  10.063  0.9339  0.8195  1.0425
   11CHL1   H7B  753   1.512   3.275  10.027 -0.8891  2.0236  0.0025
   11CHL1    C8  754   1.589   3.470  10.032 -0.2993 -0.3983  0.2866
   11CHL1    H8  755   1.681   3.512  10.079 -1.2553  0.2330  1.6742
   11CHL1   C14  756   1.587   3.473   9.880 -0.2002  1.0608 -0.3835
   11CHL1   H14  757   1.495   3.424   9.840 -0.0115 -0.8721  1.3650
   11CHL1   C15  758   1.698   3.392   9.811  0.5176 -0.6806 -0.9649
   11CHL1  H15A  759   1.784   3.409   9.879 -1.7299  0.5058  1.7851
   11CHL1  H15B  760   1.679   3.284   9.788 -3.7929 -0.6186  1.2952
   11CHL1   C16  761   1.710   3.464   9.674 -0.4087 -0.6356 -0.2804
   11CHL1  H16A  762   1.812   3.508   9.664 -0.6827 -0.1231 -0.9081
   11CHL1  H16B  763   1.704   3.400   9.583 -0.4346 -1.2472  0.1466
   11CHL1   C17  764   1.603   3.571   9.672 -0.9625 -0.5434  0.8101
   11CHL1   H17  765   1.509   3.524   9.635 -1.7200  1.8057 -0.4747
   11CHL1   C13  766   1.577   3.605   9.816 -0.6750 -0.1925 -0.3852
   11CHL1   C18  767   1.705   3.685   9.866  0.3800  0.4405  0.0456
   11CHL1  H18A  768   1.803   3.631   9.867  0.7845  1.1494 -0.5142
   11CHL1  H18B  769   1.721   3.777   9.807  0.9277 -0.1921 -0.8171
   11CHL1  H18C  770   1.690   3.724   9.969 -0.4864  0.8627 -0.2328
   11CHL1   C12  771   1.442   3.654   9.859 -0.2847 -0.0323 -0.4545
   11CHL1  H12A  772   1.421   3.756   9.821 -2.1412 -0.3185 -0.2802
   11CHL1  H12B  773   1.365   3.584   9.819  1.1464 -1.1174 -1.3923
   11CHL1   C11  774   1.430   3.671  10.007 -0.4065 -0.0883  0.4903
   11CHL1  H11A  775   1.506   3.750  10.025  0.0129  0.7222 -3.7733
   11CHL1  H11B  776   1.334   3.718  10.036 -1.2804 -1.0181 -0.7592
   11CHL1    C9  777   1.459   3.538  10.073  0.5178 -0.6915 -0.1951
   11CHL1    H9  778   1.379   3.467  10.044 -0.0540 -0.1774  0.0982
   11CHL1   C10  779   1.447   3.543  10.235 -0.1636  0.1912 -0.3509
   11CHL1   C19  780   1.529   3.668  10.288 -0.3050  0.8534 -0.4181
   11CHL1  H19A  781   1.480   3.760  10.250 -1.9659 -0.6218 -2.0510
   11CHL1  H19B  782   1.523   3.681  10.398 -1.6745  0.8065 -0.4735
   11CHL1  H19C  783   1.633   3.655  10.251 -0.3063  0.2580 -0.2074
   11CHL1    C1  784   1.291   3.556  10.267 -0.5354  0.3533 -0.0405
   11CHL1   H1A  785   1.256   3.657  10.238  0.9252  1.1053  0.6742
   11CHL1   H1B  786   1.240   3.480  10.205  2.2494 -0.4692 -1.4690
   11CHL1    C2  787   1.252   3.535  10.418  0.0592  0.4171 -0.2418
   11CHL1   H2A  788   1.141   3.535  10.420  0.0234 -1.5012  0.4900
   11CHL1   H2B  789   1.279   3.611  10.494 -0.8110 -1.2018  1.8097
   11CHL1   C20  790   1.635   3.687   9.564 -0.2969 -0.0241  0.0787
   11CHL1   H20  791   1.738   3.714   9.597 -0.2920 -0.8814  0.7792
   11CHL1   C21  792   1.541   3.811   9.585 -0.0679  0.0421 -0.1736
   11CHL1  H21A  793   1.580   3.896   9.524  0.0110 -0.5439 -0.9498
   11CHL1  H21B  794   1.542   3.849   9.690  3.7196  0.3778 -0.1835
   11CHL1  H21C  795   1.438   3.795   9.546 -0.3935  2.1946 -0.2959
   11CHL1   C22  796   1.644   3.637   9.419 -0.3804  0.3495  0.4599
   11CHL1  H22A  797   1.730   3.567   9.408  1.0256  2.0386  0.3279
   11CHL1  H22B  798   1.550   3.587   9.388  0.1596  1.4013 -3.2945
   11CHL1   C23  799   1.673   3.740   9.310  0.3899  0.5221 -0.0374
   11CHL1  H23A  800   1.589   3.811   9.315 -0.0268 -0.0307  0.9436
   11CHL1  H23B  801   1.774   3.786   9.321  0.4649  0.2262  0.5627
   11CHL1   C24  802   1.664   3.683   9.164 -0.1469  0.6277  0.7580
   11CHL1  H24A  803   1.755   3.620   9.160 -1.4753 -1.3453  0.4056
   11CHL1  H24B  804   1.579   3.612   9.151  0.0123  0.6743 -0.6723
   11CHL1   C25  805   1.676   3.779   9.046 -0.5603  0.2557  0.1955
   11CHL1   H25  806   1.777   3.825   9.051 -1.4552  2.5249 -1.2464
   11CHL1   C26  807   1.678   3.710   8.903  0.0564  0.1407 -0.3740
   11CHL1  H26A  808   1.669   3.788   8.824  0.2530  1.9569  1.2998
   11CHL1  H26B  809   1.759   3.636   8.885 -1.6062 -1.4266 -1.7535
   11CHL1  H26C  810   1.588   3.646   8.901 -0.5318  0.9049  0.7369
   11CHL1   C27  811   1.573   3.897   9.049 -0.1341  0.1244  0.3788
   11CHL1  H27A  812   1.581   3.958   8.956  1.0761  0.9099  0.9671
   11CHL1  H27B  813   1.470   3.857   9.055 -0.9324  1.7902 -1.1206
   11CHL1  H27C  814   1.601   3.955   9.139  0.5012 -0.6861  0.7202
   12CHL1    C3  815   4.626   2.052  10.470 -0.0479  0.1439 -0.2426
   12CHL1    H3  816   4.544   2.087  10.536 -0.3247  0.5003 -0.7666
   12CHL1    O3  817   4.724   2.155  10.465  0.1604 -0.0532 -0.3338
   12CHL1   H3'  818   4.772   2.156  10.548 -0.7962 -1.7437  0.2742
   12CHL1    C4  819   4.702   1.930  10.528 -0.4227 -0.3971  0.3795
   12CHL1   H4A  820   4.800   1.924  10.476  0.2965 -1.9538  1.7987
   12CHL1   H4B  821   4.715   1.954  10.636  0.4851  2.5807 -0.3176
   12CHL1    C5  822   4.627   1.803  10.504  0.9306 -0.1172  0.2244
   12CHL1    C6  823   4.607   1.710  10.603 -0.2211  0.4605  0.3675
   12CHL1    H6  824   4.644   1.726  10.705 -0.3159 -2.2054  0.8775
   12CHL1    C7  825   4.526   1.581  10.590  0.2291 -0.5313 -0.5648
   12CHL1   H7A  826   4.594   1.501  10.626 -0.3339 -0.6458  0.2722
   12CHL1   H7B  827   4.437   1.577  10.656  0.0862 -1.5574 -0.8043
   12CHL1    C8  828   4.483   1.532  10.451  0.3775 -0.1146 -0.2836
   12CHL1    H8  829   4.571   1.482  10.405 -0.0248 -1.9367  0.8092
   12CHL1   C14  830   4.371   1.430  10.461  0.3730 -0.5221  0.3152
   12CHL1   H14  831   4.282   1.467  10.516 -0.3293  0.1247 -1.1933
   12CHL1   C15  832   4.395   1.299  10.531  0.3355 -0.3344  0.6754
   12CHL1  H15A  833   4.498   1.262  10.511  0.8549 -0.2554  2.9490
   12CHL1  H15B  834   4.380   1.318  10.639  2.0038 -0.0321  0.8901
   12CHL1   C16  835   4.288   1.199  10.470  0.5266 -0.0350  0.1978
   12CHL1  H16A  836   4.348   1.112  10.435  0.6172 -0.6498  1.7768
   12CHL1  H16B  837   4.217   1.176  10.552 -1.3467  0.1310 -1.3089
   12CHL1   C17  838   4.215   1.282  10.347  0.5200 -0.0984 -0.2488
   12CHL1   H17  839   4.125   1.329  10.390 -0.1860 -1.4884 -0.1664
   12CHL1   C13  840   4.312   1.396  10.320 -0.4942 -0.6432 -0.8221
   12CHL1   C18  841   4.429   1.337  10.231  0.0341 -0.0343  0.4033
   12CHL1  H18A  842   4.473   1.251  10.286  0.0929 -1.2330 -1.4238
   12CHL1  H18B  843   4.404   1.295  10.131  1.5139 -0.9623  0.3878
   12CHL1  H18C  844   4.507   1.415  10.215 -1.0236  0.6531 -1.8354
   12CHL1   C12  845   4.251   1.528  10.258 -0.0401 -0.2362  0.3854
   12CHL1  H12A  846   4.204   1.505  10.160  1.4301 -0.7983 -0.2174
   12CHL1  H12B  847   4.173   1.565  10.329  2.3413 -0.4057  3.2672
   12CHL1   C11  848   4.369   1.631  10.235 -0.1995  0.0203  0.8633
   12CHL1  H11A  849   4.440   1.590  10.160  1.7992  1.6879  1.7415
   12CHL1  H11B  850   4.313   1.719  10.196  0.7754  0.1731 -0.2580
   12CHL1    C9  851   4.441   1.660  10.369 -0.2869 -0.4282  0.2251
   12CHL1    H9  852   4.359   1.708  10.426 -2.2011 -2.1018 -0.9941
   12CHL1   C10  853   4.555   1.771  10.365  0.9129  0.0248  0.4897
   12CHL1   C19  854   4.670   1.735  10.274 -0.1012 -0.9361 -1.0086
   12CHL1  H19A  855   4.742   1.658  10.310  1.3422  0.0647 -1.6566
   12CHL1  H19B  856   4.632   1.693  10.178 -3.1601 -1.0074  0.1280
   12CHL1  H19C  857   4.720   1.831  10.248  2.1394 -1.4501  1.0330
   12CHL1    C1  858   4.482   1.908  10.319 -0.7546 -0.5017 -0.2881
   12CHL1   H1A  859   4.448   1.896  10.214 -0.1611 -0.7047 -0.4597
   12CHL1   H1B  860   4.392   1.902  10.385  0.3551 -0.8988  1.2573
   12CHL1    C2  861   4.560   2.037  10.332  0.8087 -0.8568  0.0293
   12CHL1   H2A  862   4.499   2.129  10.320  0.9906 -0.7520 -0.1118
   12CHL1   H2B  863   4.636   2.037  10.251  1.5895  0.2245  0.7331
   12CHL1   C20  864   4.179   1.184  10.238  0.6325 -0.3396  0.0768
   12CHL1   H20  865   4.263   1.138  10.183  1.1094  0.3400  0.2188
   12CHL1   C21  866   4.082   1.261  10.150 -0.1137  0.2402  0.4123
   12CHL1  H21A  867   4.012   1.198  10.091  0.4214 -0.7208  0.7832
   12CHL1  H21B  868   4.146   1.322  10.083  1.0672  0.3472  1.6147
   12CHL1  H21C  869   4.009   1.328  10.200 -1.8933  1.1498 -3.1095
   12CHL1   C22  870   4.100   1.065  10.297  0.5762 -0.0700 -0.1605
   12CHL1  H22A  871   4.061   0.993  10.221  1.0082 -1.2489  0.6945
   12CHL1  H22B  872   4.164   1.000  10.361 -1.9361 -2.2450  0.3105
   12CHL1   C23  873   3.987   1.107  10.391  0.2526 -0.6391  0.1037
   12CHL1  H23A  874   4.027   1.159  10.481  1.0619 -2.5624  0.9222
   12CHL1  H23B  875   3.925   1.178  10.332 -0.1724 -0.4776  0.7385
   12CHL1   C24  876   3.900   0.992  10.438 -0.3195  0.0345  0.0495
   12CHL1  H24A  877   3.817   0.961  10.371 -0.1948  0.7637 -0.4465
   12CHL1  H24B  878   3.972   0.909  10.459  0.2907  0.2805 -1.0049
   12CHL1   C25  879   3.830   1.002  10.576 -0.1919  0.7263 -0.5115
   12CHL1   H25  880   3.917   1.021  10.643  1.4329 -1.1044 -1.9549
   12CHL1   C26  881   3.737   1.120  10.601  0.1413 -0.6031  0.2227
   12CHL1  H26A  882   3.704   1.132  10.706  0.4534 -1.7885  0.4637
   12CHL1  H26B  883   3.799   1.211  10.582 -0.8377 -0.3065 -1.8433
   12CHL1  H26C  884   3.658   1.122  10.523 -0.3855  0.8208  0.7630
   12CHL1   C27  885   3.766   0.872  10.618 -0.3249  0.0744  0.1113
   12CHL1  H27A  886   3.733   0.884  10.724  0.0363 -1.4991  0.4208
   12CHL1  H27B  887   3.676   0.847  10.559 -0.6097  1.1931  0.0558
   12CHL1  H27C  888   3.836   0.786  10.620  1.8819  1.7188  3.6758
   13CHL1    C3  889   2.938   3.472  10.267  0.0597  0.2509  0.4449
   13CHL1    H3  890   2.827   3.463  10.269  0.0037  0.3039 -0.9437
   13CHL1    O3  891   2.995   3.473  10.393  0.1206 -0.0016  0.0583
   13CHL1   H3'  892   3.078   3.424  10.387  0.3176  0.2939  0.3709
   13CHL1    C4  893   2.990   3.356  10.184 -0.0896 -0.7114  1.4618
   13CHL1   H4A  894   3.098   3.330  10.198  0.5350  0.9671  0.1285
   13CHL1   H4B  895   2.932   3.266  10.213 -1.2225 -0.6777 -0.4998
   13CHL1    C5  896   2.978   3.365  10.033 -0.3961 -0.6536  0.2194
   13CHL1    C6  897   2.944   3.265   9.953 -0.2107  0.6679 -0.1202
   13CHL1    H6  898   2.907   3.169   9.991 -0.8967  1.4183  1.1897
   13CHL1    C7  899   2.928   3.274   9.806 -0.1009 -0.0629  0.4293
   13CHL1   H7A  900   2.957   3.177   9.760 -0.2176 -0.0497  0.3285
   13CHL1   H7B  901   2.821   3.275   9.776 -0.0150 -1.9038 -0.0687
   13CHL1    C8  902   2.990   3.400   9.739 -0.2857 -0.2097 -0.6616
   13CHL1    H8  903   3.101   3.391   9.747 -0.3804 -1.7880 -0.7135
   13CHL1   C14  904   2.945   3.419   9.596 -0.3430 -0.5074 -1.3392
   13CHL1   H14  905   2.836   3.440   9.602 -0.0403  1.0264 -0.6633
   13CHL1   C15  906   2.948   3.303   9.502  0.3941  0.4717  0.5153
   13CHL1  H15A  907   3.028   3.233   9.534 -1.0571 -1.6924 -0.3414
   13CHL1  H15B  908   2.853   3.245   9.496 -0.1464  1.3017  0.8112
   13CHL1   C16  909   2.986   3.361   9.371  1.0449  0.2114  0.2361
   13CHL1  H16A  910   3.089   3.336   9.338 -0.1755 -2.9358 -1.6067
   13CHL1  H16B  911   2.935   3.312   9.286 -1.6005  0.1852  1.7265
   13CHL1   C17  912   2.968   3.513   9.381 -0.4939 -0.5657 -0.0400
   13CHL1   H17  913   2.858   3.529   9.372 -0.9615 -1.1699  3.3410
   13CHL1   C13  914   3.003   3.542   9.528  0.1820  1.5065 -0.6804
   13CHL1   C18  915   3.157   3.541   9.540 -0.4023  0.8179 -0.7408
   13CHL1  H18A  916   3.212   3.460   9.487  0.7434 -0.6550  2.4161
   13CHL1  H18B  917   3.195   3.642   9.513 -1.6876  1.3917 -0.4434
   13CHL1  H18C  918   3.199   3.542   9.643  1.3964  0.6988 -1.4298
   13CHL1   C12  919   2.940   3.662   9.601 -0.7784 -0.1264 -0.6191
   13CHL1  H12A  920   2.970   3.765   9.571 -2.5187  0.7712  0.5405
   13CHL1  H12B  921   2.829   3.667   9.597 -0.7702 -0.5536 -2.8476
   13CHL1   C11  922   2.979   3.659   9.751 -0.4992 -0.1608 -0.5334
   13CHL1  H11A  923   3.084   3.690   9.769  0.0785 -0.4566 -3.0464
   13CHL1  H11B  924   2.918   3.743   9.791 -2.3466 -2.4126  1.7318
   13CHL1    C9  925   2.951   3.517   9.825 -0.1226 -0.4732  0.2850
   13CHL1    H9  926   2.840   3.504   9.821 -0.3188  0.1540  2.5726
   13CHL1   C10  927   2.999   3.507   9.972  0.1477  0.1993  0.1988
   13CHL1   C19  928   3.152   3.551   9.972 -0.4225  0.1036 -0.3950
   13CHL1  H19A  929   3.207   3.504   9.887 -0.1452  0.7236 -0.5676
   13CHL1  H19B  930   3.157   3.661   9.961  0.1445  0.1379  0.1387
   13CHL1  H19C  931   3.199   3.531  10.070  0.6921 -2.1252 -1.3082
   13CHL1    C1  932   2.929   3.614  10.059 -0.4923  0.4307 -0.1379
   13CHL1   H1A  933   2.945   3.709  10.004 -2.0840  2.8661  3.2933
   13CHL1   H1B  934   2.818   3.602  10.058 -0.5317  0.7108  0.5569
   13CHL1    C2  935   2.977   3.609  10.200 -0.0713  0.0697 -0.4169
   13CHL1   H2A  936   2.914   3.681  10.255 -0.6486 -0.8278  0.1268
   13CHL1   H2B  937   3.088   3.606  10.212 -0.3130 -0.9028  2.5221
   13CHL1   C20  938   3.036   3.592   9.274  0.2606 -0.2601  0.4285
   13CHL1   H20  939   3.146   3.578   9.277  0.3066  0.2901  2.2666
   13CHL1   C21  940   3.012   3.743   9.293  0.4006 -0.1793 -0.5432
   13CHL1  H21A  941   3.040   3.789   9.196 -1.5753 -0.4371 -1.2764
   13CHL1  H21B  942   3.089   3.778   9.364  0.3770 -1.9007  0.3719
   13CHL1  H21C  943   2.909   3.759   9.332  1.4189  2.4495  1.3543
   13CHL1   C22  944   2.997   3.546   9.123 -0.6332  0.2154 -0.4685
   13CHL1  H22A  945   3.004   3.436   9.109 -1.2715  0.1835 -0.5871
   13CHL1  H22B  946   2.891   3.575   9.106 -0.2320  2.1986  0.2701
   13CHL1   C23  947   3.084   3.608   9.007 -0.7368 -0.5158 -0.0647
   13CHL1  H23A  948   3.041   3.576   8.910 -0.4868  1.4175 -0.8488
   13CHL1  H23B  949   3.070   3.718   9.003 -1.7491 -0.5582  1.5220
   13CHL1   C24  950   3.229   3.551   9.010  0.1922  0.5528  0.3966
   13CHL1  H24A  951   3.299   3.618   9.065  1.4011 -1.5746  1.5628
   13CHL1  H24B  952   3.220   3.457   9.068  0.5657 -0.6589 -1.4164
   13CHL1   C25  953   3.282   3.514   8.866 -0.1733 -0.5878 -0.3493
   13CHL1   H25  954   3.223   3.434   8.817  0.7498 -2.3301  1.2398
   13CHL1   C26  955   3.313   3.636   8.778 -0.3164  0.4265  0.4470
   13CHL1  H26A  956   3.222   3.680   8.732 -0.5631 -1.7450 -1.2730
   13CHL1  H26B  957   3.374   3.715   8.829 -0.3559  1.6096 -1.2354
   13CHL1  H26C  958   3.373   3.601   8.691 -0.4050 -0.1460  0.6130
   13CHL1   C27  959   3.424   3.457   8.873 -0.2173  0.0481  0.2090
   13CHL1  H27A  960   3.415   3.365   8.935 -0.4168 -1.1776 -1.5477
   13CHL1  H27B  961   3.448   3.404   8.778 -2.7545 -2.5976  0.8903
   13CHL1  H27C  962   3.504   3.529   8.901 -0.4727  0.8136 -0.9428
   14CHL1    C3  963   1.833   0.053  10.778 -0.1240  0.4248 -0.2815
   14CHL1    H3  964   1.745  -0.009  10.752 -0.1449 -1.0137  2.8130
   14CHL1    O3  965   1.841   0.037  10.918  0.3115 -0.5542 -0.0373
   14CHL1   H3'  966   1.912   0.094  10.951 -0.4062  0.2287  0.1951
   14CHL1    C4  967   1.956  -0.018  10.721  0.6020  0.1681 -0.1325
   14CHL1   H4A  968   2.049   0.021  10.769  0.3449  0.5980  0.0213
   14CHL1   H4B  969   1.937  -0.125  10.746  1.0557 -0.1140 -0.9417
   14CHL1    C5  970   1.951  -0.002  10.575  0.8935 -0.4961 -0.0772
   14CHL1    C6  971   1.954  -0.105  10.490  0.3313 -0.0899  0.3890
   14CHL1    H6  972   1.960  -0.204  10.538  0.4064  0.4513  1.5444
   14CHL1    C7  973   1.980  -0.095  10.341  0.0515 -0.0284 -0.1992
   14CHL1   H7A  974   2.058  -0.156  10.292 -0.0455  1.5663 -2.4720
   14CHL1   H7B  975   1.893  -0.129  10.282  1.7505  0.4229 -3.1603
   14CHL1    C8  976   1.994   0.055  10.289  0.4659  0.1412 -0.4164
   14CHL1    H8  977   2.103   0.072  10.302  0.1404  1.7389  0.3777
   14CHL1   C14  978   1.963   0.064  10.142  0.1049  0.6739  0.2224
   14CHL1   H14  979   1.854   0.042  10.135 -0.0575  1.3640  0.4346
   14CHL1   C15  980   2.025  -0.044  10.047  0.4882 -0.0957 -0.4706
   14CHL1  H15A  981   2.132  -0.063  10.072  0.3173  0.0440  0.4075
   14CHL1  H15B  982   1.970  -0.140  10.059 -1.2936  0.6830 -2.0091
   14CHL1   C16  983   2.022   0.019   9.913  0.7656 -0.3527 -0.5794
   14CHL1  H16A  984   2.121   0.027   9.864  0.9881  1.2916  0.0752
   14CHL1  H16B  985   1.953  -0.035   9.844  0.6774  1.2256 -1.7724
   14CHL1   C17  986   1.959   0.162   9.937  0.1097  0.2409 -0.2661
   14CHL1   H17  987   1.849   0.148   9.929 -0.0308  0.7303  0.7564
   14CHL1   C13  988   1.994   0.194  10.078  0.2943  0.4930 -0.4333
   14CHL1   C18  989   2.145   0.221  10.087  0.2247 -0.1198 -0.4610
   14CHL1  H18A  990   2.212   0.141  10.047  1.5437  1.0130 -0.5902
   14CHL1  H18B  991   2.171   0.311  10.028 -0.3114 -0.4490 -1.2099
   14CHL1  H18C  992   2.175   0.232  10.194  0.2962  0.8322 -0.5734
   14CHL1   C12  993   1.901   0.297  10.153  0.1297  0.8417  0.5473
   14CHL1  H12A  994   1.942   0.394  10.116  3.4692 -0.7440 -0.2864
   14CHL1  H12B  995   1.793   0.291  10.127  0.1986 -2.9165  0.5244
   14CHL1   C11  996   1.924   0.295  10.302 -0.1458 -0.2751  0.3522
   14CHL1  H11A  997   2.029   0.327  10.321  0.0260 -0.5844 -0.0554
   14CHL1  H11B  998   1.862   0.381  10.335 -0.0882 -0.0711 -0.0739
   14CHL1    C9  999   1.909   0.159  10.368  0.3995 -0.3067  0.3696
   14CHL1    H9 1000   1.803   0.127  10.358  0.3687 -0.5023  1.2116
   14CHL1   C10 1001   1.937   0.141  10.522 -0.8165  0.0199  0.3717
   14CHL1   C19 1002   2.065   0.224  10.556  0.3142 -0.1210 -0.1443
   14CHL1  H19A 1003   2.093   0.213  10.663  0.7969 -0.0322 -0.2618
   14CHL1  H19B 1004   2.145   0.182  10.492  0.2248 -0.6020  0.0507
   14CHL1  H19C 1005   2.055   0.328  10.519 -1.0539  0.0226  0.5660
   14CHL1    C1 1006   1.819   0.210  10.589 -0.4051  0.4358  0.0391
   14CHL1   H1A 1007   1.810   0.315  10.552 -0.6582  0.1226 -0.8209
   14CHL1   H1B 1008   1.728   0.158  10.551 -1.0222  1.3774  0.2071
   14CHL1    C2 1009   1.815   0.199  10.740  0.6104  0.8382  0.4638
   14CHL1   H2A 1010   1.713   0.227  10.774 -0.5049 -0.0011 -1.9150
   14CHL1   H2B 1011   1.902   0.252  10.783  0.4861  0.3498  1.3397
   14CHL1   C20 1012   1.976   0.260   9.823 -0.1005 -0.9693  0.3936
   14CHL1   H20 1013   2.081   0.296   9.828 -1.0344  2.2864 -0.7313
   14CHL1   C21 1014   1.893   0.389   9.837 -0.2879  0.0159 -0.5529
   14CHL1  H21A 1015   1.784   0.375   9.853 -0.4710 -0.1109 -1.7932
   14CHL1  H21B 1016   1.903   0.442   9.739  1.9581 -0.0553 -0.3990
   14CHL1  H21C 1017   1.939   0.452   9.916 -0.8197 -0.6723  0.3217
   14CHL1   C22 1018   1.952   0.184   9.694  0.1106 -0.2478 -0.5433
   14CHL1  H22A 1019   1.995   0.242   9.610 -1.0377 -0.1754 -1.0974
   14CHL1  H22B 1020   2.008   0.089   9.681 -0.0131 -0.4859  0.5646
   14CHL1   C23 1021   1.799   0.179   9.650 -0.7430  0.2896  0.0156
   14CHL1  H23A 1022   1.744   0.122   9.728  0.4589  1.9684  2.2119
   14CHL1  H23B 1023   1.769   0.286   9.659  1.7182  0.8791  3.0805
   14CHL1   C24 1024   1.770   0.123   9.507 -0.4101 -0.2034 -0.1059
   14CHL1  H24A 1025   1.851   0.167   9.445 -0.5649  0.2260 -0.0027
   14CHL1  H24B 1026   1.791   0.014   9.506  1.3084  0.0855  1.3026
   14CHL1   C25 1027   1.636   0.165   9.442 -0.1168 -0.1473  0.9287
   14CHL1   H25 1028   1.625   0.276   9.445  1.3837  0.1407 -1.4768
   14CHL1   C26 1029   1.636   0.117   9.296  0.1704 -0.2584  0.4164
   14CHL1  H26A 1030   1.547   0.158   9.245 -0.1928  1.4698  2.2820
   14CHL1  H26B 1031   1.718   0.167   9.241  0.4479 -1.5310 -0.3551
   14CHL1  H26C 1032   1.647   0.008   9.277  1.4577 -0.1085  0.1830
   14CHL1   C27 1033   1.521   0.110   9.519  0.6136  0.0215 -0.4087
   14CHL1  H27A 1034   1.536   0.113   9.629 -1.9913  2.8687 -0.0006
   14CHL1  H27B 1035   1.428   0.165   9.497 -0.3238 -1.3084  0.1124
   14CHL1  H27C 1036   1.490   0.008   9.487 -2.5301  0.5445  0.6122
   15CHL1    C3 1037   1.998   3.949  10.340  0.1666  0.8436  0.2133
   15CHL1    H3 1038   2.052   3.855  10.313 -0.5531  1.3252 -3.5289
   15CHL1    O3 1039   1.992   3.949  10.482 -0.0033  0.4582  0.4336
   15CHL1   H3' 1040   1.971   3.860  10.511  3.8407  0.1087  2.7297
   15CHL1    C4 1041   2.075   4.078  10.280 -0.3465  0.4833  0.5329
   15CHL1   H4A 1042   2.037   4.172  10.325 -1.9296  0.9983 -1.7128
   15CHL1   H4B 1043   2.180   4.064  10.312  0.1172  0.7047 -0.8483
   15CHL1    C5 1044   2.053   4.098  10.133 -0.3627 -0.2242  0.8716
   15CHL1    C6 1045   2.154   4.123  10.051  0.3384 -0.3834 -0.5439
   15CHL1    H6 1046   2.257   4.125  10.089  0.0533  1.3820  0.2087
   15CHL1    C7 1047   2.148   4.146   9.904  0.1816 -0.1611 -0.0939
   15CHL1   H7A 1048   2.204   4.240   9.883 -1.7287  0.5489 -2.4386
   15CHL1   H7B 1049   2.203   4.062   9.856 -0.4553 -1.6036  1.5665
   15CHL1    C8 1050   2.005   4.180   9.852  0.1297  0.2097  0.1457
   15CHL1    H8 1051   1.993   4.283   9.892  1.0572 -0.0022  1.0082
   15CHL1   C14 1052   1.998   4.165   9.703 -0.0765 -0.0846 -0.0933
   15CHL1   H14 1053   2.017   4.055   9.695  0.6998 -0.0728  1.3492
   15CHL1   C15 1054   2.098   4.234   9.608  0.4599  0.7693  0.3962
   15CHL1  H15A 1055   2.112   4.330   9.663 -1.4762  1.0799  0.4095
   15CHL1  H15B 1056   2.193   4.177   9.598  0.2577  0.3280  0.9369
   15CHL1   C16 1057   2.030   4.256   9.477 -0.4455  0.1594 -0.4349
   15CHL1  H16A 1058   2.021   4.362   9.443 -1.1703 -0.1360 -1.1891
   15CHL1  H16B 1059   2.094   4.208   9.400  1.0617  1.2982  0.0551
   15CHL1   C17 1060   1.896   4.193   9.491  0.6512 -0.5882 -0.5026
   15CHL1   H17 1061   1.913   4.088   9.457  0.1312 -2.0319  3.1840
   15CHL1   C13 1062   1.868   4.192   9.646  0.5721 -0.2787  0.4656
   15CHL1   C18 1063   1.823   4.338   9.680  0.5655  0.3427  0.3396
   15CHL1  H18A 1064   1.819   4.360   9.789 -1.1720 -1.1242  0.6058
   15CHL1  H18B 1065   1.877   4.413   9.617  0.8609 -0.6268 -0.5891
   15CHL1  H18C 1066   1.717   4.334   9.647  0.7803 -0.9294 -0.2211
   15CHL1   C12 1067   1.761   4.091   9.695  0.1538 -0.2600 -1.0713
   15CHL1  H12A 1068   1.660   4.121   9.659 -0.4955  0.2733  1.0730
   15CHL1  H12B 1069   1.787   3.992   9.652  3.4545 -0.3863  0.9030
   15CHL1   C11 1070   1.767   4.080   9.847 -0.1998  0.0332 -0.2066
   15CHL1  H11A 1071   1.698   4.157   9.889 -1.0623 -0.5031 -0.6038
   15CHL1  H11B 1072   1.722   3.982   9.875  0.3934  0.1028  1.0620
   15CHL1    C9 1073   1.904   4.080   9.915 -0.4492  0.2587 -0.0804
   15CHL1    H9 1074   1.944   3.981   9.885 -2.7593 -1.0321  0.8952
   15CHL1   C10 1075   1.910   4.085  10.070  1.0148 -0.2274  0.6628
   15CHL1   C19 1076   1.814   4.213  10.113 -0.4343 -0.6466  0.3461
   15CHL1  H19A 1077   1.706   4.192  10.098 -0.4311 -1.0057  0.8175
   15CHL1  H19B 1078   1.824   4.230  10.222 -1.2601  1.4109  0.1403
   15CHL1  H19C 1079   1.845   4.304  10.058 -1.1079  1.0991  2.7138
   15CHL1    C1 1080   1.843   3.961  10.134 -0.4265 -0.0133 -0.1524
   15CHL1   H1A 1081   1.735   3.968  10.108 -0.3605 -0.9819 -0.7332
   15CHL1   H1B 1082   1.872   3.863  10.090  0.2885  0.1903 -0.1446
   15CHL1    C2 1083   1.854   3.940  10.292 -0.2976 -0.7198  0.6722
   15CHL1   H2A 1084   1.808   3.841  10.314  2.4495 -2.4278 -0.6828
   15CHL1   H2B 1085   1.798   4.020  10.345 -0.9113 -1.4968  1.2183
   15CHL1   C20 1086   1.784   4.252   9.399 -0.3545  0.1412 -0.3415
   15CHL1   H20 1087   1.731   4.331   9.457  2.7308  0.2780  2.5935
   15CHL1   C21 1088   1.682   4.135   9.363 -0.0563  0.2807 -0.1315
   15CHL1  H21A 1089   1.638   4.095   9.457  2.1505  0.5631  1.1020
   15CHL1  H21B 1090   1.724   4.055   9.299 -0.3594  2.0615 -2.6861
   15CHL1  H21C 1091   1.603   4.184   9.303 -1.7093 -1.3139  0.6306
   15CHL1   C22 1092   1.843   4.321   9.277  0.8915 -0.1400 -0.2163
   15CHL1  H22A 1093   1.883   4.416   9.318  0.4275 -0.0287 -0.0242
   15CHL1  H22B 1094   1.933   4.269   9.236  0.3433 -1.9569  0.7665
   15CHL1   C23 1095   1.742   4.351   9.161 -0.0875  0.7316  0.1610
   15CHL1  H23A 1096   1.695   4.255   9.132  5.0127 -1.3583 -2.3880
   15CHL1  H23B 1097   1.659   4.413   9.202 -0.5132  0.9864 -1.0381
   15CHL1   C24 1098   1.794   4.431   9.045 -0.0786 -0.6386 -0.5011
   15CHL1  H24A 1099   1.700   4.466   8.998 -0.4342 -0.6871  0.1718
   15CHL1  H24B 1100   1.858   4.518   9.070  1.6432 -2.0141  0.0825
   15CHL1   C25 1101   1.866   4.359   8.927 -0.2173  0.6411  0.7650
   15CHL1   H25 1102   1.967   4.328   8.960  0.5681  2.2840  0.0344
   15CHL1   C26 1103   1.789   4.236   8.878  0.4578  0.5177 -0.0220
   15CHL1  H26A 1104   1.692   4.276   8.842  0.7598  0.4695 -0.9303
   15CHL1  H26B 1105   1.839   4.191   8.789 -1.4047 -1.0065 -0.3653
   15CHL1  H26C 1106   1.767   4.165   8.960  3.3530 -0.5893 -0.0918
   15CHL1   C27 1107   1.896   4.457   8.815 -0.2566 -0.6965 -0.1886
   15CHL1  H27A 1108   1.970   4.534   8.847  0.1768 -0.9879 -0.4702
   15CHL1  H27B 1109   1.949   4.404   8.732 -3.0559 -2.8810 -0.7347
   15CHL1  H27C 1110   1.802   4.501   8.776  0.8778 -0.5558 -2.9897
   16CHL1    C3 1111   3.276   5.393  10.613  0.2350 -0.5959 -0.0091
   16CHL1    H3 1112   3.179   5.425  10.570  0.6123  0.7799  0.1183
   16CHL1    O3 1113   3.289   5.413  10.755  0.7562  0.8552  0.5442
   16CHL1   H3' 1114   3.319   5.326  10.779  1.0838  0.1481 -2.0905
   16CHL1    C4 1115   3.280   5.239  10.575 -0.5247  0.3140 -0.6611
   16CHL1   H4A 1116   3.375   5.198  10.617 -0.9732 -1.4593 -1.2973
   16CHL1   H4B 1117   3.192   5.190  10.623  0.0736  0.4299  0.6165
   16CHL1    C5 1118   3.264   5.219  10.427  0.4051 -0.5668 -0.3623
   16CHL1    C6 1119   3.164   5.153  10.378  1.6535  0.3808 -0.4646
   16CHL1    H6 1120   3.102   5.109  10.458  0.0075  3.9845  0.4117
   16CHL1    C7 1121   3.129   5.133  10.234  0.5865 -0.4885 -0.1856
   16CHL1   H7A 1122   3.074   5.042  10.203  0.9959 -1.1714  1.0278
   16CHL1   H7B 1123   3.053   5.209  10.208  0.8535 -0.5094 -1.0532
   16CHL1    C8 1124   3.246   5.170  10.139 -0.4624  0.3081  0.0589
   16CHL1    H8 1125   3.316   5.084  10.135 -0.3294  0.4368 -0.3918
   16CHL1   C14 1126   3.196   5.195   9.992 -0.1450  0.4343  0.3909
   16CHL1   H14 1127   3.127   5.282   9.997 -1.3864 -0.4462 -0.7292
   16CHL1   C15 1128   3.117   5.078   9.933  0.4575  0.0981  0.1715
   16CHL1  H15A 1129   3.168   4.983   9.961  0.1224  0.1757  1.0761
   16CHL1  H15B 1130   3.014   5.067   9.972  0.6733  0.6747  0.9313
   16CHL1   C16 1131   3.132   5.088   9.777  0.3301 -0.4420 -0.0923
   16CHL1  H16A 1132   3.181   4.998   9.735 -2.2692 -1.7418 -0.5145
   16CHL1  H16B 1133   3.030   5.102   9.735 -0.4389 -1.6312  1.3141
   16CHL1   C17 1134   3.237   5.208   9.759 -0.0412  0.2387  0.4345
   16CHL1   H17 1135   3.175   5.300   9.752 -0.8060 -0.2640  0.4176
   16CHL1   C13 1136   3.310   5.220   9.901 -0.0171 -0.1539  0.2112
   16CHL1   C18 1137   3.419   5.110   9.900  0.2481  0.6133 -0.4416
   16CHL1  H18A 1138   3.481   5.096   9.991  0.0124 -2.4371 -0.6375
   16CHL1  H18B 1139   3.372   5.012   9.875 -2.1268  1.1201  1.5992
   16CHL1  H18C 1140   3.490   5.124   9.815 -0.4589  0.8991 -0.9982
   16CHL1   C12 1141   3.362   5.359   9.941 -0.6072 -0.3787 -0.3200
   16CHL1  H12A 1142   3.452   5.396   9.887 -0.7144 -2.0650 -1.7396
   16CHL1  H12B 1143   3.280   5.433   9.933  0.7555  1.4832  1.7788
   16CHL1   C11 1144   3.424   5.350  10.087  0.2774 -0.0197  0.3910
   16CHL1  H11A 1145   3.504   5.273  10.086 -1.2637 -1.6941  0.4794
   16CHL1  H11B 1146   3.464   5.447  10.123  1.2804 -0.1505 -0.3316
   16CHL1    C9 1147   3.317   5.298  10.185 -0.8296 -0.0034 -0.2610
   16CHL1    H9 1148   3.239   5.377  10.177  0.3318  1.2680  0.4341
   16CHL1   C10 1149   3.363   5.297  10.329  0.6919  0.1620 -0.5456
   16CHL1   C19 1150   3.502   5.222  10.335 -0.2298  0.2943  0.0761
   16CHL1  H19A 1151   3.534   5.219  10.441 -1.9086  0.4260  0.6213
   16CHL1  H19B 1152   3.489   5.118  10.295 -0.6804  0.1945  0.4749
   16CHL1  H19C 1153   3.581   5.265  10.270 -1.1433  0.0153 -1.2780
   16CHL1    C1 1154   3.379   5.441  10.387  0.0213 -0.4709  0.3297
   16CHL1   H1A 1155   3.469   5.474  10.330  0.4341 -1.9139  0.1013
   16CHL1   H1B 1156   3.288   5.497  10.355 -0.1235 -0.2033  1.1845
   16CHL1    C2 1157   3.392   5.465  10.541  0.4949  0.0227 -0.3372
   16CHL1   H2A 1158   3.383   5.575  10.554  1.6924  0.0750  0.2082
   16CHL1   H2B 1159   3.498   5.444  10.570  0.5327  1.7698  0.9366
   16CHL1   C20 1160   3.319   5.200   9.629  0.2504  0.7498 -0.5482
   16CHL1   H20 1161   3.385   5.111   9.630 -1.7751 -1.0087 -3.8326
   16CHL1   C21 1162   3.419   5.321   9.623  0.2147  0.7688  0.0598
   16CHL1  H21A 1163   3.502   5.302   9.695 -0.3844 -1.9432  0.1397
   16CHL1  H21B 1164   3.374   5.417   9.655 -1.5727 -0.5573  1.7900
   16CHL1  H21C 1165   3.461   5.330   9.520 -0.2921 -2.7890 -0.5838
   16CHL1   C22 1166   3.241   5.166   9.502 -0.4091 -0.2967 -0.0241
   16CHL1  H22A 1167   3.316   5.177   9.420 -1.4368  1.7141 -0.7601
   16CHL1  H22B 1168   3.208   5.060   9.497  0.4577 -0.5324 -1.7812
   16CHL1   C23 1169   3.128   5.266   9.481 -0.1282 -0.4618  0.8214
   16CHL1  H23A 1170   3.054   5.257   9.564 -2.5968  2.9570 -0.7572
   16CHL1  H23B 1171   3.163   5.371   9.482  2.9914 -1.4123  0.4045
   16CHL1   C24 1172   3.058   5.248   9.345 -0.3186 -0.1315  0.1563
   16CHL1  H24A 1173   2.964   5.305   9.361  0.1550  0.1664  2.1495
   16CHL1  H24B 1174   3.115   5.294   9.261  0.5452 -0.1470  0.7154
   16CHL1   C25 1175   3.016   5.107   9.311  0.1139 -0.1649 -0.0846
   16CHL1   H25 1176   3.101   5.036   9.319 -1.3750 -1.9998  0.1765
   16CHL1   C26 1177   2.899   5.062   9.399  0.6438  0.0374 -0.3314
   16CHL1  H26A 1178   2.815   5.126   9.365 -1.9298 -3.2435 -0.6146
   16CHL1  H26B 1179   2.846   4.967   9.377 -1.5392  0.7019  1.6426
   16CHL1  H26C 1180   2.912   5.081   9.508 -0.6547  0.5550 -0.2522
   16CHL1   C27 1181   2.983   5.092   9.160 -0.6194 -0.2512 -0.4931
   16CHL1  H27A 1182   3.076   5.096   9.100  1.6515  2.5153  2.7953
   16CHL1  H27B 1183   2.937   4.991   9.153  0.1863 -0.8298  1.7088
   16CHL1  H27C 1184   2.916   5.175   9.127  0.8274  1.4197  0.5682
   17CHL1    C3 1185   5.731   1.617  10.516 -0.7042  0.3445  0.0581
   17CHL1    H3 1186   5.821   1.553  10.524 -0.3853  0.9471  1.8196
   17CHL1    O3 1187   5.670   1.618  10.649  0.5875  0.1838  0.4348
   17CHL1   H3' 1188   5.596   1.678  10.634 -1.1352 -2.0814 -0.7577
   17CHL1    C4 1189   5.750   1.764  10.464 -0.6742  1.0650 -0.8629
   17CHL1   H4A 1190   5.655   1.822  10.464 -2.2820 -1.4466 -1.2462
   17CHL1   H4B 1191   5.825   1.816  10.528  0.6609 -1.1946 -0.5057
   17CHL1    C5 1192   5.798   1.779  10.326 -0.2828 -1.3087  0.7042
   17CHL1    C6 1193   5.908   1.847  10.280 -0.0736 -0.1665 -0.3434
   17CHL1    H6 1194   5.970   1.886  10.362  0.6385 -1.2762 -0.3286
   17CHL1    C7 1195   5.954   1.858  10.138  0.8240 -0.3934  0.1960
   17CHL1   H7A 1196   5.979   1.962  10.109 -1.2114  0.1769  0.3452
   17CHL1   H7B 1197   6.039   1.788  10.119  0.3480 -0.8718 -0.2079
   17CHL1    C8 1198   5.837   1.817  10.046 -0.0913 -0.5011 -0.7074
   17CHL1    H8 1199   5.761   1.898  10.044 -1.2246 -1.3276  2.5691
   17CHL1   C14 1200   5.888   1.801   9.907 -0.2109  0.0646  1.3059
   17CHL1   H14 1201   5.954   1.711   9.914 -0.5853 -0.2706  0.6036
   17CHL1   C15 1202   5.972   1.912   9.846 -0.2643  0.2250  0.1079
   17CHL1  H15A 1203   5.926   2.013   9.854  1.4960  1.0693 -0.0397
   17CHL1  H15B 1204   6.075   1.905   9.886 -1.3207  0.7408  3.2427
   17CHL1   C16 1205   5.976   1.873   9.699  0.5188 -0.4367  0.0401
   17CHL1  H16A 1206   5.942   1.968   9.655 -2.2108 -1.0937  0.5807
   17CHL1  H16B 1207   6.073   1.856   9.647 -0.1519 -1.4657 -0.9235
   17CHL1   C17 1208   5.872   1.759   9.666 -0.7707  0.3321 -0.2349
   17CHL1   H17 1209   5.922   1.660   9.660  0.2165  0.7469  0.7133
   17CHL1   C13 1210   5.783   1.759   9.798 -0.4588  0.2811 -0.5902
   17CHL1   C18 1211   5.678   1.875   9.791  0.3858  0.2738 -0.6556
   17CHL1  H18A 1212   5.655   1.918   9.891  0.9315 -1.7766  0.4059
   17CHL1  H18B 1213   5.697   1.962   9.725 -1.0267 -0.4259 -2.0599
   17CHL1  H18C 1214   5.582   1.829   9.761 -0.7307 -0.3651  3.3379
   17CHL1   C12 1215   5.714   1.624   9.835  0.7654  0.3747  0.5715
   17CHL1  H12A 1216   5.625   1.615   9.770  1.9489 -1.5994 -0.8887
   17CHL1  H12B 1217   5.785   1.542   9.811  0.8321  0.3188  0.9604
   17CHL1   C11 1218   5.672   1.633   9.979 -0.3353 -0.4337 -0.1842
   17CHL1  H11A 1219   5.589   1.706   9.977  1.8667  2.2756  0.5858
   17CHL1  H11B 1220   5.628   1.538  10.016 -0.3446 -0.3411  0.0480
   17CHL1    C9 1221   5.773   1.688  10.090  0.1621  0.1966 -0.7426
   17CHL1    H9 1222   5.854   1.612  10.085  1.6099  1.6565 -0.3281
   17CHL1   C10 1223   5.708   1.697  10.228  0.3538 -0.7271  0.1777
   17CHL1   C19 1224   5.570   1.766  10.216 -0.3683 -0.3534 -0.1145
   17CHL1  H19A 1225   5.521   1.787  10.314 -0.5735 -2.7100  0.3567
   17CHL1  H19B 1226   5.580   1.860  10.158  0.0984 -0.2955  0.0576
   17CHL1  H19C 1227   5.503   1.695  10.163 -1.7227 -1.0049  2.3067
   17CHL1    C1 1228   5.683   1.554  10.278  0.0936  0.5432  0.0013
   17CHL1   H1A 1229   5.610   1.493  10.222 -0.2706  0.9229  0.0597
   17CHL1   H1B 1230   5.775   1.491  10.280 -1.8185 -2.9377  6.6026
   17CHL1    C2 1231   5.636   1.547  10.423 -0.3260  0.1005 -0.4046
   17CHL1   H2A 1232   5.622   1.443  10.459  0.2688 -0.0884 -0.7140
   17CHL1   H2B 1233   5.535   1.593  10.426 -1.4639 -2.2895  0.2124
   17CHL1   C20 1234   5.813   1.778   9.528 -0.0993  0.1229  0.0771
   17CHL1   H20 1235   5.777   1.882   9.514  1.4917  0.8102  0.7881
   17CHL1   C21 1236   5.689   1.687   9.516 -0.1742 -0.2271 -0.1407
   17CHL1  H21A 1237   5.712   1.587   9.557 -0.0826  0.0163  0.4161
   17CHL1  H21B 1238   5.660   1.678   9.409  1.8683 -1.1610 -0.6556
   17CHL1  H21C 1239   5.606   1.742   9.566  1.3554  1.5552  0.6004
   17CHL1   C22 1240   5.928   1.758   9.418 -0.0302  0.9482 -0.2228
   17CHL1  H22A 1241   6.026   1.808   9.439  0.9962  0.0925 -2.6658
   17CHL1  H22B 1242   5.953   1.651   9.405 -0.4611  0.5823  1.5808
   17CHL1   C23 1243   5.883   1.817   9.284  0.4202 -0.3324  0.1836
   17CHL1  H23A 1244   5.787   1.765   9.261 -0.1475  1.1700 -0.9509
   17CHL1  H23B 1245   5.851   1.923   9.292  0.5638 -0.2900  0.1829
   17CHL1   C24 1246   5.985   1.801   9.176  0.6342 -0.1458 -0.5547
   17CHL1  H24A 1247   6.080   1.834   9.222 -0.5666  1.2172  1.0601
   17CHL1  H24B 1248   5.978   1.692   9.155 -0.9125  0.4166 -3.6878
   17CHL1   C25 1249   5.962   1.873   9.039  0.4173 -0.6996  0.0765
   17CHL1   H25 1250   5.877   1.822   8.988 -0.5041 -1.0554  1.8541
   17CHL1   C26 1251   5.917   2.013   9.047  0.2872  0.4535 -0.0062
   17CHL1  H26A 1252   5.914   2.073   8.953 -0.1151  1.4410  0.6215
   17CHL1  H26B 1253   5.814   2.010   9.088  0.5881 -1.0814  0.6814
   17CHL1  H26C 1254   5.986   2.062   9.119 -0.8856  0.9073  0.8509
   17CHL1   C27 1255   6.090   1.874   8.956  0.2560  0.2163  0.2640
   17CHL1  H27A 1256   6.113   1.765   8.952 -0.7277 -0.0240  0.8184
   17CHL1  H27B 1257   6.077   1.918   8.855  2.3164 -0.1028 -0.1910
   17CHL1  H27C 1258   6.165   1.930   9.016 -0.1603  0.2707  0.7364
   18CHL1    C3 1259   4.502   0.076  10.405 -0.0837 -0.1108 -0.4448
   18CHL1    H3 1260   4.470   0.182  10.415 -1.5678 -0.4328 -1.3792
   18CHL1    O3 1261   4.556   0.025  10.525  0.3445  0.0102  0.5709
   18CHL1   H3' 1262   4.563  -0.069  10.507 -1.0673 -0.0992  0.5579
   18CHL1    C4 1263   4.391  -0.014  10.351 -0.0845 -0.2208  0.0470
   18CHL1   H4A 1264   4.446  -0.107  10.327  1.6385  0.4585  1.1020
   18CHL1   H4B 1265   4.313  -0.039  10.426 -1.9956  0.9484 -1.4476
   18CHL1    C5 1266   4.330   0.038  10.225 -0.2512  1.3123  0.3212
   18CHL1    C6 1267   4.199   0.054  10.200 -0.4853  0.3175  0.3902
   18CHL1    H6 1268   4.125   0.024  10.276  1.9135 -1.4950  2.1675
   18CHL1    C7 1269   4.142   0.101  10.069 -0.2536 -0.2405 -0.5366
   18CHL1   H7A 1270   4.054   0.038  10.048 -0.7280 -0.1815  1.1370
   18CHL1   H7B 1271   4.109   0.207  10.073 -0.4443 -0.3500  1.3755
   18CHL1    C8 1272   4.250   0.078   9.954  0.3756 -0.0418 -0.4550
   18CHL1    H8 1273   4.260  -0.029   9.927  1.9996  0.2192 -1.0118
   18CHL1   C14 1274   4.203   0.162   9.828  0.1828 -0.2574 -0.1923
   18CHL1   H14 1275   4.200   0.269   9.858  2.0893  0.5209 -2.4300
   18CHL1   C15 1276   4.060   0.150   9.773  0.1389  0.2254 -0.0430
   18CHL1  H15A 1277   4.041   0.040   9.780 -1.7644  0.5139 -0.3369
   18CHL1  H15B 1278   3.988   0.209   9.833 -1.1754 -1.8996  0.6125
   18CHL1   C16 1279   4.068   0.192   9.630  0.5517 -0.8337 -0.4509
   18CHL1  H16A 1280   4.034   0.111   9.563 -1.2991  0.1624 -0.7896
   18CHL1  H16B 1281   4.000   0.278   9.610  2.6372  0.5407 -2.1997
   18CHL1   C17 1282   4.208   0.228   9.593  0.3066 -0.1641 -0.0535
   18CHL1   H17 1283   4.215   0.337   9.613 -2.4816 -0.2355  1.9108
   18CHL1   C13 1284   4.292   0.157   9.704  0.0335  0.3534  0.3119
   18CHL1   C18 1285   4.306   0.007   9.660  0.8537 -0.3457 -0.8893
   18CHL1  H18A 1286   4.362  -0.006   9.565 -0.2607 -1.0199 -1.4744
   18CHL1  H18B 1287   4.355  -0.050   9.743 -0.6784  0.2108  0.4370
   18CHL1  H18C 1288   4.204  -0.033   9.645  1.5558 -2.0043 -1.5150
   18CHL1   C12 1289   4.422   0.222   9.743  0.6730 -0.8413 -0.3955
   18CHL1  H12A 1290   4.499   0.218   9.664 -1.5336 -1.0956 -2.6676
   18CHL1  H12B 1291   4.405   0.329   9.765  0.3434 -1.0525  0.4246
   18CHL1   C11 1292   4.481   0.144   9.874  0.7796 -0.8608  0.0965
   18CHL1  H11A 1293   4.498   0.045   9.828 -0.3583 -0.9376 -0.1777
   18CHL1  H11B 1294   4.580   0.187   9.903  0.8605 -1.3369  0.5336
   18CHL1    C9 1295   4.385   0.134   9.993  0.9861 -0.2582  0.1385
   18CHL1    H9 1296   4.366   0.240  10.020  0.0395 -0.1902 -0.7609
   18CHL1   C10 1297   4.441   0.060  10.118 -1.0499 -0.0795 -0.2969
   18CHL1   C19 1298   4.491  -0.075  10.061 -0.5378  0.0196  0.2954
   18CHL1  H19A 1299   4.523  -0.141  10.145  1.2228 -0.4263 -0.6808
   18CHL1  H19B 1300   4.415  -0.134  10.004 -0.4098 -0.4263  0.5736
   18CHL1  H19C 1301   4.581  -0.071   9.997 -0.8970 -0.5575 -0.2557
   18CHL1    C1 1302   4.558   0.144  10.172  0.2969  0.0077  0.6287
   18CHL1   H1A 1303   4.641   0.152  10.099  1.7818  0.7726  2.3031
   18CHL1   H1B 1304   4.517   0.246  10.185  0.0290  0.1377 -1.0574
   18CHL1    C2 1305   4.616   0.088  10.306  0.2664  0.2588  0.4064
   18CHL1   H2A 1306   4.701   0.154  10.333  1.1967 -0.6653 -0.1567
   18CHL1   H2B 1307   4.654  -0.016  10.301 -0.3093  0.0357  0.5338
   18CHL1   C20 1308   4.242   0.202   9.440  0.0154 -0.2313 -0.6982
   18CHL1   H20 1309   4.286   0.104   9.411  1.4454  0.8002 -2.1583
   18CHL1   C21 1310   4.358   0.302   9.402  0.9808 -0.6663 -0.0331
   18CHL1  H21A 1311   4.365   0.294   9.291 -2.6402 -1.3159 -0.3318
   18CHL1  H21B 1312   4.449   0.261   9.450  0.9396 -0.8008 -0.0683
   18CHL1  H21C 1313   4.328   0.403   9.437 -0.1620 -0.8297 -0.4790
   18CHL1   C22 1314   4.121   0.229   9.340 -0.8995 -0.8094 -0.4900
   18CHL1  H22A 1315   4.039   0.269   9.403  0.4225  0.8621  0.2513
   18CHL1  H22B 1316   4.157   0.299   9.261 -1.3924 -0.0679 -0.0741
   18CHL1   C23 1317   4.075   0.094   9.282  0.3095  1.0776 -0.1011
   18CHL1  H23A 1318   4.165   0.050   9.234 -0.8955 -0.4631 -1.0412
   18CHL1  H23B 1319   4.048   0.025   9.365 -0.0529  2.9988  1.4731
   18CHL1   C24 1320   3.954   0.116   9.194 -0.0635 -0.4623 -0.5165
   18CHL1  H24A 1321   3.905   0.020   9.164 -0.6536 -0.2657 -0.1986
   18CHL1  H24B 1322   3.878   0.177   9.248 -0.4359 -0.9078 -0.5312
   18CHL1   C25 1323   3.991   0.191   9.059  0.1983 -0.1260  0.0351
   18CHL1   H25 1324   4.020   0.292   9.097 -1.3713  0.4620 -0.2496
   18CHL1   C26 1325   4.105   0.139   8.973 -0.7803  0.0321  0.8067
   18CHL1  H26A 1326   4.071   0.049   8.917  2.3180 -0.5699 -0.3290
   18CHL1  H26B 1327   4.125   0.210   8.890 -0.8012  0.8660  1.5010
   18CHL1  H26C 1328   4.198   0.110   9.028 -0.6908 -1.4202 -0.0472
   18CHL1   C27 1329   3.864   0.217   8.977 -0.6111 -0.1258 -0.0562
   18CHL1  H27A 1330   3.888   0.257   8.877 -1.8873 -0.9539 -0.7179
   18CHL1  H27B 1331   3.815   0.119   8.958 -0.8850 -0.1886  0.8835
   18CHL1  H27C 1332   3.805   0.286   9.041  0.3540 -1.1343  2.0359
   19CHL1    C3 1333   3.648   3.656  10.396  0.6093  0.7197 -0.3386
   19CHL1    H3 1334   3.735   3.588  10.385  1.2726  1.4922 -0.0036
   19CHL1    O3 1335   3.624   3.697  10.527  0.6588 -0.1627  0.2055
   19CHL1   H3' 1336   3.708   3.687  10.571  0.6455 -0.9081  0.0836
   19CHL1    C4 1337   3.662   3.782  10.304 -0.8983  0.9227 -0.0903
   19CHL1   H4A 1338   3.581   3.858  10.304 -1.1992  0.6983  2.4347
   19CHL1   H4B 1339   3.738   3.852  10.345  0.1706  0.6044 -1.4666
   19CHL1    C5 1340   3.689   3.731  10.165 -0.5752 -0.2494  0.0174
   19CHL1    C6 1341   3.808   3.755  10.102  0.7903  0.3940 -0.3853
   19CHL1    H6 1342   3.892   3.811  10.146  0.4504  1.5138 -1.1159
   19CHL1    C7 1343   3.840   3.718   9.957  0.1012  0.3458 -0.5531
   19CHL1   H7A 1344   3.882   3.805   9.902 -1.9415  2.4845  1.0281
   19CHL1   H7B 1345   3.907   3.631   9.953 -0.9448 -0.4481 -1.5206
   19CHL1    C8 1346   3.706   3.685   9.888  1.0282  0.5266  0.5188
   19CHL1    H8 1347   3.649   3.778   9.872  0.6592 -0.0786 -1.9633
   19CHL1   C14 1348   3.735   3.628   9.747 -0.3145  0.7025  0.4524
   19CHL1   H14 1349   3.781   3.529   9.767 -3.9720 -1.0256  1.2745
   19CHL1   C15 1350   3.832   3.700   9.665 -0.1341  0.2324  0.1273
   19CHL1  H15A 1351   3.802   3.807   9.664  1.3717  0.6748 -1.0333
   19CHL1  H15B 1352   3.935   3.711   9.704  0.2357 -0.4746 -0.6255
   19CHL1   C16 1353   3.810   3.634   9.530 -0.2694 -0.3210 -0.1939
   19CHL1  H16A 1354   3.808   3.707   9.446  0.0228 -1.9197 -1.6659
   19CHL1  H16B 1355   3.902   3.572   9.519  3.2600  4.0945  1.0990
   19CHL1   C17 1356   3.680   3.542   9.534  0.2239  0.5376  0.2694
   19CHL1   H17 1357   3.717   3.441   9.560 -0.9093 -0.1732 -0.7735
   19CHL1   C13 1358   3.611   3.591   9.662  0.6080  0.1380  0.1861
   19CHL1   C18 1359   3.530   3.715   9.633 -0.0927 -0.1371  0.2078
   19CHL1  H18A 1360   3.428   3.691   9.594 -0.3920  1.2489  0.0768
   19CHL1  H18B 1361   3.522   3.774   9.727  2.1830  0.9249 -0.1911
   19CHL1  H18C 1362   3.585   3.772   9.555  1.2693 -2.1062 -0.3357
   19CHL1   C12 1363   3.537   3.480   9.743 -0.1081 -0.2030  0.2687
   19CHL1  H12A 1364   3.453   3.430   9.691  0.8536 -2.4597  0.7527
   19CHL1  H12B 1365   3.603   3.395   9.772  0.3416  0.4376  1.1624
   19CHL1   C11 1366   3.489   3.542   9.874 -0.0606  0.1210 -0.3521
   19CHL1  H11A 1367   3.417   3.624   9.851 -0.4443 -0.4196 -1.1107
   19CHL1  H11B 1368   3.443   3.472   9.947  1.7580 -1.6437 -0.8231
   19CHL1    C9 1369   3.611   3.588   9.961 -0.2355 -0.5735 -0.1661
   19CHL1    H9 1370   3.678   3.499   9.967 -0.4856 -0.9911 -2.6203
   19CHL1   C10 1371   3.579   3.647  10.102  0.3216  0.1958 -0.2523
   19CHL1   C19 1372   3.461   3.749  10.087 -0.3433  0.6747  0.3023
   19CHL1  H19A 1373   3.492   3.828  10.015  1.1364  0.7525  0.9950
   19CHL1  H19B 1374   3.371   3.696  10.050  0.2556  0.3799 -0.7644
   19CHL1  H19C 1375   3.438   3.796  10.185 -0.8746 -0.5725  0.7953
   19CHL1    C1 1376   3.548   3.530  10.207  0.4037  0.3178  0.2815
   19CHL1   H1A 1377   3.455   3.482  10.169  0.3272  1.0893 -0.5655
   19CHL1   H1B 1378   3.630   3.458  10.189  0.8025  0.2396  2.2068
   19CHL1    C2 1379   3.525   3.573  10.353  0.0187  0.6910 -0.3456
   19CHL1   H2A 1380   3.507   3.493  10.428  0.7360  0.3529 -0.5303
   19CHL1   H2B 1381   3.438   3.642  10.363 -1.2812 -1.0435  1.0114
   19CHL1   C20 1382   3.609   3.526   9.400 -0.3866 -0.4552 -0.8086
   19CHL1   H20 1383   3.578   3.626   9.361  0.5182  0.4466  0.7069
   19CHL1   C21 1384   3.479   3.443   9.409  0.4199 -0.1445  0.5378
   19CHL1  H21A 1385   3.500   3.338   9.438 -3.0111 -1.9669 -2.5910
   19CHL1  H21B 1386   3.425   3.445   9.312 -0.0827 -1.8034  0.7474
   19CHL1  H21C 1387   3.417   3.495   9.484  0.6517  0.7163  0.1467
   19CHL1   C22 1388   3.708   3.461   9.303 -0.0250  0.7393 -0.0826
   19CHL1  H22A 1389   3.798   3.525   9.288 -0.8936  1.5802 -2.1371
   19CHL1  H22B 1390   3.738   3.359   9.335  0.3550  0.0009 -2.5535
   19CHL1   C23 1391   3.647   3.438   9.169 -0.1744 -0.1813  0.4971
   19CHL1  H23A 1392   3.581   3.350   9.157 -0.4546  0.0552  0.2759
   19CHL1  H23B 1393   3.583   3.524   9.137 -0.6797 -0.4012  0.8898
   19CHL1   C24 1394   3.760   3.433   9.070  0.0279  0.3197  0.5854
   19CHL1  H24A 1395   3.714   3.399   8.974 -1.4245  0.4613  1.1954
   19CHL1  H24B 1396   3.794   3.537   9.050 -0.6860  0.2748 -1.0577
   19CHL1   C25 1397   3.879   3.342   9.103  0.0447 -0.9305 -0.0571
   19CHL1   H25 1398   3.926   3.389   9.192  0.2320 -2.2911  0.5928
   19CHL1   C26 1399   3.839   3.199   9.154  0.0044 -0.5754  0.3281
   19CHL1  H26A 1400   3.935   3.152   9.184 -0.2368 -1.1006  0.2902
   19CHL1  H26B 1401   3.777   3.196   9.246 -0.6530  0.2402 -0.0693
   19CHL1  H26C 1402   3.792   3.141   9.071  0.1426  0.2705 -0.3480
   19CHL1   C27 1403   3.981   3.329   8.994 -0.2348 -0.6415  0.4495
   19CHL1  H27A 1404   3.936   3.299   8.897  1.3736 -1.7131 -0.0111
   19CHL1  H27B 1405   4.028   3.429   8.981  0.9171 -1.2956 -0.6723
   19CHL1  H27C 1406   4.064   3.260   9.022 -0.3456 -1.1332 -0.3939
   20CHL1    C3 1407   3.710   6.025  10.507  0.1872 -0.6909 -0.0145
   20CHL1    H3 1408   3.739   5.918  10.504  1.9549 -0.2213 -1.1690
   20CHL1    O3 1409   3.712   6.073  10.638  0.7780 -0.4120 -0.2353
   20CHL1   H3' 1410   3.655   6.009  10.682  1.3891 -1.4055 -0.8500
   20CHL1    C4 1411   3.823   6.095  10.425  0.9492  0.6627  0.0765
   20CHL1   H4A 1412   3.793   6.202  10.429  0.4343  0.5940 -1.4149
   20CHL1   H4B 1413   3.914   6.074  10.486  0.1965  0.5202  1.1840
   20CHL1    C5 1414   3.823   6.054  10.281 -0.3478 -0.2441 -0.4635
   20CHL1    C6 1415   3.936   5.997  10.221  0.4645  0.5762  0.3491
   20CHL1    H6 1416   4.022   5.986  10.289 -0.3199  1.6774  1.5578
   20CHL1    C7 1417   3.946   5.964  10.078 -0.2758 -0.4316  0.0751
   20CHL1   H7A 1418   4.043   5.994  10.033 -0.6794  0.5227 -0.1744
   20CHL1   H7B 1419   3.930   5.856  10.055  0.4073 -0.2020 -1.6187
   20CHL1    C8 1420   3.837   6.039  10.004 -0.0943 -0.2985 -0.3771
   20CHL1    H8 1421   3.866   6.146   9.997 -1.8716  0.2658  0.1710
   20CHL1   C14 1422   3.825   5.971   9.866  0.2424 -0.1108  0.0652
   20CHL1   H14 1423   3.795   5.866   9.888  2.6706 -0.7278  0.8458
   20CHL1   C15 1424   3.955   5.959   9.787 -0.0729 -0.4342  0.2918
   20CHL1  H15A 1425   4.010   6.055   9.792 -1.1547  0.3802 -1.9988
   20CHL1  H15B 1426   4.023   5.878   9.820  0.9699  0.1074 -0.4926
   20CHL1   C16 1427   3.916   5.946   9.635  0.6504 -0.3648  0.6113
   20CHL1  H16A 1428   3.963   6.023   9.570  0.4322 -1.4146 -0.8406
   20CHL1  H16B 1429   3.960   5.856   9.587  0.3990 -0.4432  0.5272
   20CHL1   C17 1430   3.762   5.960   9.641 -0.4674  0.1254  0.2026
   20CHL1   H17 1431   3.716   5.860   9.655  0.3310 -0.2038  0.5119
   20CHL1   C13 1432   3.723   6.039   9.772 -0.7728  0.5418  0.4366
   20CHL1   C18 1433   3.754   6.190   9.758  0.1461 -0.4152 -0.4510
   20CHL1  H18A 1434   3.672   6.237   9.700 -2.3665 -3.4736  0.3115
   20CHL1  H18B 1435   3.756   6.244   9.855 -2.5107 -0.6040 -0.2259
   20CHL1  H18C 1436   3.849   6.213   9.706  1.9095  0.1770  2.7248
   20CHL1   C12 1437   3.582   6.012   9.829 -0.8195 -0.1204 -0.2971
   20CHL1  H12A 1438   3.513   6.067   9.761 -0.9443 -0.0252 -0.0939
   20CHL1  H12B 1439   3.565   5.904   9.845 -2.0583 -0.0428 -0.9513
   20CHL1   C11 1440   3.574   6.074   9.962  0.4100  0.1614 -0.5655
   20CHL1  H11A 1441   3.575   6.185   9.963 -0.0599  0.1912  1.3713
   20CHL1  H11B 1442   3.477   6.048  10.010  0.9324  0.7521  0.8836
   20CHL1    C9 1443   3.693   6.028  10.065 -0.1268 -0.6169  0.4866
   20CHL1    H9 1444   3.684   5.918  10.076  0.5959 -0.4830  3.4185
   20CHL1   C10 1445   3.686   6.089  10.210  0.3836  0.2978 -0.1397
   20CHL1   C19 1446   3.665   6.244  10.197 -0.1878  0.6574 -0.1336
   20CHL1  H19A 1447   3.699   6.284  10.294  0.2276 -0.1215  0.0519
   20CHL1  H19B 1448   3.737   6.282  10.122  0.3750 -2.8568 -1.5710
   20CHL1  H19C 1449   3.566   6.272  10.155  0.5517 -1.5157 -3.7839
   20CHL1    C1 1450   3.571   6.030  10.293 -0.1687 -0.1574 -0.0580
   20CHL1   H1A 1451   3.473   6.061  10.250 -0.5218 -2.0380 -0.7274
   20CHL1   H1B 1452   3.580   5.919  10.287  0.2738 -0.2231  1.5647
   20CHL1    C2 1453   3.572   6.058  10.443  0.7333  0.2111  0.0025
   20CHL1   H2A 1454   3.505   5.986  10.496  1.6406 -0.3949  0.3450
   20CHL1   H2B 1455   3.545   6.160  10.476 -0.3003 -0.5102  1.4996
   20CHL1   C20 1456   3.689   6.008   9.516 -0.4138 -0.0137 -0.8317
   20CHL1   H20 1457   3.677   6.117   9.526 -0.6101  0.2462 -3.2511
   20CHL1   C21 1458   3.555   5.942   9.510  0.3326 -0.0136 -0.4295
   20CHL1  H21A 1459   3.487   5.992   9.438  0.2904 -0.8351 -0.9711
   20CHL1  H21B 1460   3.499   5.937   9.606  2.7534 -2.7130  1.0182
   20CHL1  H21C 1461   3.557   5.836   9.476 -1.0994 -0.5635  1.0606
   20CHL1   C22 1462   3.774   5.973   9.390  0.2946 -0.5733  0.0353
   20CHL1  H22A 1463   3.859   6.043   9.383 -1.0899  1.0536 -1.4442
   20CHL1  H22B 1464   3.815   5.870   9.390  0.4061 -0.5466 -1.1689
   20CHL1   C23 1465   3.687   5.995   9.260 -0.1293  0.0651 -0.1867
   20CHL1  H23A 1466   3.620   5.907   9.254 -0.9020  0.5634  0.9325
   20CHL1  H23B 1467   3.625   6.086   9.271 -0.1785 -0.2585  3.2873
   20CHL1   C24 1468   3.766   5.988   9.130 -0.0379 -0.4783  1.2115
   20CHL1  H24A 1469   3.851   6.059   9.117 -1.3773  0.7538 -1.5028
   20CHL1  H24B 1470   3.809   5.885   9.135  4.6065  1.1910  0.8345
   20CHL1   C25 1471   3.697   5.991   8.993  0.3715 -0.9067  0.3743
   20CHL1   H25 1472   3.607   5.927   8.998  0.8127 -1.5443  0.3053
   20CHL1   C26 1473   3.652   6.133   8.964  0.0242  0.1357  0.0312
   20CHL1  H26A 1474   3.734   6.206   8.976  1.9416 -2.0773  1.1069
   20CHL1  H26B 1475   3.612   6.147   8.861  0.0615 -2.1946 -0.3596
   20CHL1  H26C 1476   3.571   6.145   9.039  2.5673 -0.4362  3.0685
   20CHL1   C27 1477   3.790   5.945   8.884  0.2507 -0.3203  0.9521
   20CHL1  H27A 1478   3.812   5.836   8.893  1.3869 -0.1439  0.4835
   20CHL1  H27B 1479   3.726   5.953   8.793 -0.9019  0.2058  1.7837
   20CHL1  H27C 1480   3.880   6.011   8.883  1.2607 -1.6540 -0.3423
   21CHL1    C3 1481   4.298   0.415  10.513 -0.3794  0.0520 -0.2573
   21CHL1    H3 1482   4.404   0.392  10.490 -0.1537  1.5890 -0.8498
   21CHL1    O3 1483   4.271   0.345  10.640  0.1633 -0.1255 -0.1112
   21CHL1   H3' 1484   4.280   0.417  10.704  2.3621 -1.3006  1.0470
   21CHL1    C4 1485   4.281   0.570  10.513  0.6516 -0.2632 -0.7276
   21CHL1   H4A 1486   4.185   0.594  10.565  0.8572  1.3694 -1.0729
   21CHL1   H4B 1487   4.354   0.605  10.588 -0.9802 -0.8254  1.2248
   21CHL1    C5 1488   4.291   0.635  10.378  0.6887 -0.5393  0.7813
   21CHL1    C6 1489   4.375   0.741  10.354  0.6040  0.5215 -0.8410
   21CHL1    H6 1490   4.432   0.776  10.442 -0.9836 -1.1926  0.9742
   21CHL1    C7 1491   4.379   0.816  10.225  0.0554 -0.1816  0.1927
   21CHL1   H7A 1492   4.372   0.926  10.239  2.6616  0.1020 -0.2476
   21CHL1   H7B 1493   4.476   0.795  10.175 -0.2208 -2.5672  0.5672
   21CHL1    C8 1494   4.270   0.782  10.120  0.2763 -0.6561 -0.8690
   21CHL1    H8 1495   4.173   0.830  10.148  1.6680  1.6158  0.3474
   21CHL1   C14 1496   4.314   0.831   9.978  0.0872 -0.2411  0.2679
   21CHL1   H14 1497   4.417   0.793   9.964  0.4593  1.2745 -1.6868
   21CHL1   C15 1498   4.324   0.980   9.942 -0.9355  0.6808 -0.6638
   21CHL1  H15A 1499   4.225   1.023   9.970 -0.6828  2.0837 -1.8227
   21CHL1  H15B 1500   4.405   1.041   9.987 -1.4953  0.5436  0.5685
   21CHL1   C16 1501   4.322   0.972   9.794 -0.7487 -0.5840 -0.2711
   21CHL1  H16A 1502   4.241   1.037   9.754 -2.3918 -3.4409 -1.9808
   21CHL1  H16B 1503   4.415   1.018   9.756 -0.9334 -1.4437 -1.8391
   21CHL1   C17 1504   4.296   0.831   9.745  0.3838 -0.5951 -0.2798
   21CHL1   H17 1505   4.399   0.788   9.741  1.7001  2.3488 -1.4129
   21CHL1   C13 1506   4.227   0.769   9.867 -0.1287  0.3003  0.0309
   21CHL1   C18 1507   4.079   0.811   9.885 -0.3239  0.0587  0.5106
   21CHL1  H18A 1508   4.025   0.755   9.805  1.6169 -0.7716 -0.2858
   21CHL1  H18B 1509   4.037   0.789   9.985 -0.1940 -0.3739  0.4725
   21CHL1  H18C 1510   4.065   0.921   9.874 -0.5306  0.2759  2.6047
   21CHL1   C12 1511   4.234   0.622   9.880 -0.1059 -0.2606 -0.0241
   21CHL1  H12A 1512   4.174   0.566   9.806 -0.4456  0.1801 -0.0853
   21CHL1  H12B 1513   4.339   0.584   9.876 -0.5620 -1.5144 -0.4198
   21CHL1   C11 1514   4.179   0.560  10.014  0.4890 -0.0920  0.2081
   21CHL1  H11A 1515   4.069   0.569  10.016  0.1620 -3.0663  0.4563
   21CHL1  H11B 1516   4.190   0.450  10.008 -0.7756 -0.1786 -1.5594
   21CHL1    C9 1517   4.257   0.623  10.126  0.4439  0.1046  0.3336
   21CHL1    H9 1518   4.365   0.597  10.117  0.9774  1.8285  1.2495
   21CHL1   C10 1519   4.204   0.570  10.263 -0.7149 -0.5484 -0.5690
   21CHL1   C19 1520   4.054   0.609  10.278  0.9680 -0.1213  0.3446
   21CHL1  H19A 1521   3.997   0.562  10.195  2.2141 -1.2175  0.0693
   21CHL1  H19B 1522   4.006   0.561  10.366  1.4368 -1.3785 -0.0641
   21CHL1  H19C 1523   4.040   0.719  10.267 -0.0195 -0.4530 -2.4945
   21CHL1    C1 1524   4.225   0.414  10.260  0.8285 -0.5635 -0.0190
   21CHL1   H1A 1525   4.140   0.366  10.206 -0.6829  0.7033  1.1540
   21CHL1   H1B 1526   4.327   0.386  10.224  1.3957 -0.1991  1.2448
   21CHL1    C2 1527   4.220   0.349  10.395  1.2398 -0.1666 -0.4687
   21CHL1   H2A 1528   4.247   0.242  10.390  0.3956 -0.4970  1.1424
   21CHL1   H2B 1529   4.114   0.353  10.430  1.8979 -0.4386  1.6876
   21CHL1   C20 1530   4.226   0.816   9.609 -0.5412 -0.7838 -0.7804
   21CHL1   H20 1531   4.116   0.811   9.621 -0.4624  0.5219  0.9256
   21CHL1   C21 1532   4.270   0.676   9.561 -1.0386 -0.7831  0.4803
   21CHL1  H21A 1533   4.380   0.674   9.545 -1.0016 -2.7164  0.6899
   21CHL1  H21B 1534   4.220   0.648   9.465 -3.2527  0.5938  1.1692
   21CHL1  H21C 1535   4.236   0.589   9.622 -0.2896 -0.7813  0.9115
   21CHL1   C22 1536   4.265   0.936   9.520 -0.2251 -0.0194 -0.7016
   21CHL1  H22A 1537   4.216   1.031   9.551 -0.6732 -0.1550 -0.9871
   21CHL1  H22B 1538   4.374   0.953   9.534 -0.5866  0.1113  2.6843
   21CHL1   C23 1539   4.240   0.912   9.366 -0.2830 -0.6142  0.1874
   21CHL1  H23A 1540   4.305   0.829   9.330  1.8811  0.8710  0.4805
   21CHL1  H23B 1541   4.134   0.886   9.348 -0.1407 -2.1816  1.3512
   21CHL1   C24 1542   4.275   1.037   9.277 -0.1968 -0.7535 -0.7236
   21CHL1  H24A 1543   4.196   1.114   9.292  2.0467  1.7820 -1.0495
   21CHL1  H24B 1544   4.374   1.076   9.311 -0.0534 -0.9503 -0.9174
   21CHL1   C25 1545   4.295   1.004   9.124 -0.1423 -0.1061  0.2974
   21CHL1   H25 1546   4.379   0.934   9.107  1.8625  1.7567  1.9917
   21CHL1   C26 1547   4.172   0.932   9.065 -0.6230 -0.3749  0.8387
   21CHL1  H26A 1548   4.183   0.902   8.958  0.7192 -0.6533  1.0381
   21CHL1  H26B 1549   4.166   0.833   9.113  1.3576 -0.6805  0.5258
   21CHL1  H26C 1550   4.077   0.989   9.062  1.3096  3.1404  0.0626
   21CHL1   C27 1551   4.331   1.134   9.059 -0.2586 -0.0367 -0.1534
   21CHL1  H27A 1552   4.258   1.215   9.038 -0.0499  0.6618  1.6390
   21CHL1  H27B 1553   4.414   1.184   9.113 -1.1846 -0.3207  1.6118
   21CHL1  H27C 1554   4.373   1.103   8.961 -0.5785 -1.3905  0.1197
   22CHL1    C3 1555   4.298   4.211  10.173  0.3599 -0.2353 -0.4968
   22CHL1    H3 1556   4.394   4.265  10.191  0.3422  0.3049 -1.9222
   22CHL1    O3 1557   4.237   4.178  10.302  0.5035 -0.9996  0.0755
   22CHL1   H3' 1558   4.147   4.149  10.286  0.4773 -3.4733  3.5437
   22CHL1    C4 1559   4.199   4.295  10.090 -0.2795  0.1625 -0.2663
   22CHL1   H4A 1560   4.102   4.245  10.071  1.1314 -2.5875 -0.7693
   22CHL1   H4B 1561   4.183   4.382  10.157 -2.8126 -1.2567  1.1018
   22CHL1    C5 1562   4.276   4.325   9.956 -0.4997  0.5304 -0.6870
   22CHL1    C6 1563   4.316   4.454   9.924  0.5572  0.3760 -0.2495
   22CHL1    H6 1564   4.280   4.542   9.979  2.0747  1.7694 -1.4067
   22CHL1    C7 1565   4.378   4.500   9.796  0.3239 -0.2241 -0.6535
   22CHL1   H7A 1566   4.306   4.563   9.740 -0.4939 -0.4998  0.0598
   22CHL1   H7B 1567   4.470   4.561   9.810  0.1278 -0.1358  0.3887
   22CHL1    C8 1568   4.384   4.383   9.697  0.1124 -0.6381 -0.2649
   22CHL1    H8 1569   4.287   4.361   9.646  0.5868 -3.5189 -0.0713
   22CHL1   C14 1570   4.494   4.419   9.592 -0.2398 -0.0856  0.5528
   22CHL1   H14 1571   4.586   4.430   9.653  0.1872  0.4793 -0.1750
   22CHL1   C15 1572   4.486   4.548   9.512 -0.2380 -0.3417  0.5080
   22CHL1  H15A 1573   4.383   4.563   9.474 -0.3807 -0.4453  0.8593
   22CHL1  H15B 1574   4.511   4.637   9.574  0.0061 -0.9459  1.2790
   22CHL1   C16 1575   4.589   4.529   9.401 -0.3366 -0.1163  0.0842
   22CHL1  H16A 1576   4.551   4.559   9.301 -1.1396 -1.8471 -0.1640
   22CHL1  H16B 1577   4.680   4.590   9.423  0.5893 -1.0581 -1.0251
   22CHL1   C17 1578   4.643   4.381   9.407  0.1356  0.2866  0.0064
   22CHL1   H17 1579   4.733   4.371   9.472 -0.2052  0.7005  0.5452
   22CHL1   C13 1580   4.527   4.314   9.481 -0.7303  0.3122  0.3138
   22CHL1   C18 1581   4.402   4.294   9.389 -0.0022 -1.2285  0.3453
   22CHL1  H18A 1582   4.378   4.381   9.325  0.9844  0.4249  2.1016
   22CHL1  H18B 1583   4.423   4.207   9.324 -2.0813 -0.6173 -1.2488
   22CHL1  H18C 1584   4.317   4.252   9.447 -0.4028  0.5577  1.1371
   22CHL1   C12 1585   4.562   4.184   9.560 -0.3415  0.6338 -0.0573
   22CHL1  H12A 1586   4.572   4.096   9.493  0.2410  0.6467  0.0052
   22CHL1  H12B 1587   4.663   4.192   9.606 -0.4691 -1.7030  0.7756
   22CHL1   C11 1588   4.457   4.141   9.662  0.3627 -0.2068 -0.7726
   22CHL1  H11A 1589   4.366   4.110   9.607  0.0308 -0.2876 -0.1834
   22CHL1  H11B 1590   4.492   4.053   9.720  0.3849  0.8624  0.8976
   22CHL1    C9 1591   4.423   4.253   9.766  0.2091  0.6186  0.0196
   22CHL1    H9 1592   4.525   4.266   9.808 -0.0345  0.9758  0.4988
   22CHL1   C10 1593   4.320   4.199   9.870 -0.0017 -0.0207  0.1499
   22CHL1   C19 1594   4.205   4.135   9.787 -0.6411 -0.2903  0.2837
   22CHL1  H19A 1595   4.114   4.121   9.850 -0.4400 -2.2211  0.1937
   22CHL1  H19B 1596   4.167   4.199   9.704 -0.8661 -0.7879 -0.0063
   22CHL1  H19C 1597   4.224   4.031   9.753  0.9353  0.9830 -3.1568
   22CHL1    C1 1598   4.393   4.094   9.961 -1.0837  0.1498 -0.2256
   22CHL1   H1A 1599   4.398   4.000   9.902  2.8675 -0.3743  0.6819
   22CHL1   H1B 1600   4.489   4.148   9.976 -1.9643  1.5938  0.4723
   22CHL1    C2 1601   4.328   4.079  10.104 -0.4441 -0.0341 -0.0545
   22CHL1   H2A 1602   4.395   4.016  10.166 -1.1660 -2.2555 -1.4374
   22CHL1   H2B 1603   4.232   4.026  10.089 -1.3891  1.5795  0.0363
   22CHL1   C20 1604   4.682   4.335   9.270 -0.4693  1.1254  0.5741
   22CHL1   H20 1605   4.596   4.356   9.203  0.1686 -3.0340 -1.8924
   22CHL1   C21 1606   4.700   4.178   9.260  0.5436  0.1994 -0.2203
   22CHL1  H21A 1607   4.607   4.127   9.225  1.0559 -0.5290 -0.5386
   22CHL1  H21B 1608   4.733   4.144   9.361 -3.1928  0.5473  1.3155
   22CHL1  H21C 1609   4.781   4.153   9.188  0.6942 -1.3804  0.4371
   22CHL1   C22 1610   4.814   4.408   9.219  0.0738 -0.6798 -0.6227
   22CHL1  H22A 1611   4.801   4.516   9.240 -3.4344 -1.5021  2.5633
   22CHL1  H22B 1612   4.892   4.378   9.293  2.0868  0.2185 -2.2738
   22CHL1   C23 1613   4.849   4.388   9.068 -0.4506 -0.0633  0.4339
   22CHL1  H23A 1614   4.900   4.290   9.064 -0.9024 -0.3058  0.5263
   22CHL1  H23B 1615   4.763   4.381   8.998 -1.0761 -0.4252  1.2162
   22CHL1   C24 1616   4.951   4.494   9.020  0.6777  0.5581 -0.0022
   22CHL1  H24A 1617   4.916   4.599   9.026 -1.5963 -0.1455 -0.0382
   22CHL1  H24B 1618   5.041   4.498   9.084  0.2986 -0.1309  0.5810
   22CHL1   C25 1619   4.993   4.466   8.873  0.0451 -0.5686  0.0096
   22CHL1   H25 1620   4.900   4.439   8.819  0.0671 -1.8650  0.6054
   22CHL1   C26 1621   5.047   4.590   8.802  0.2741  0.1228  0.4723
   22CHL1  H26A 1622   5.027   4.570   8.695  1.6397  0.1214  0.2016
   22CHL1  H26B 1623   4.997   4.687   8.824 -4.1015 -1.2229 -2.3478
   22CHL1  H26C 1624   5.158   4.589   8.811  0.5141  0.0895 -1.9356
   22CHL1   C27 1625   5.096   4.355   8.854  1.1310 -0.5743 -0.2378
   22CHL1  H27A 1626   5.046   4.261   8.885  1.1042  0.1535  2.1231
   22CHL1  H27B 1627   5.130   4.344   8.749  0.9734  0.4614 -0.3998
   22CHL1  H27C 1628   5.182   4.364   8.924 -0.2434 -0.1327  1.4840
   23CHL1    C3 1629   5.792   2.664  10.288 -0.6780 -0.2905  0.0563
   23CHL1    H3 1630   5.773   2.768  10.253 -2.5364 -0.5242  0.3148
   23CHL1    O3 1631   5.722   2.644  10.405 -0.2586 -0.0359  0.0121
   23CHL1   H3' 1632   5.749   2.566  10.453 -0.8898 -0.1795  0.1524
   23CHL1    C4 1633   5.733   2.570  10.191  0.1695  0.8176  0.6781
   23CHL1   H4A 1634   5.748   2.463  10.219 -0.4503  0.2819 -0.9289
   23CHL1   H4B 1635   5.623   2.584  10.189  0.2765  1.8083  1.3798
   23CHL1    C5 1636   5.796   2.593  10.058  0.6811  0.2195  0.8549
   23CHL1    C6 1637   5.712   2.632   9.954  0.5395 -0.7678  0.0573
   23CHL1    H6 1638   5.603   2.639   9.961  0.4818  0.3778 -1.3729
   23CHL1    C7 1639   5.752   2.666   9.815 -0.2109 -0.2428  0.7840
   23CHL1   H7A 1640   5.697   2.600   9.744 -1.5237  1.8038 -0.1957
   23CHL1   H7B 1641   5.721   2.766   9.779 -0.6440 -0.7205 -0.2284
   23CHL1    C8 1642   5.910   2.647   9.796  0.5196  0.0293  0.1309
   23CHL1    H8 1643   5.933   2.540   9.772 -0.7991 -0.1758 -0.2777
   23CHL1   C14 1644   5.957   2.732   9.680  0.0957  0.5746 -0.0005
   23CHL1   H14 1645   5.924   2.834   9.709  0.1936  0.1478  1.7335
   23CHL1   C15 1646   5.895   2.719   9.538  0.2861  0.4584 -0.6228
   23CHL1  H15A 1647   5.857   2.615   9.523 -1.4217  1.1614 -1.4309
   23CHL1  H15B 1648   5.803   2.781   9.538 -1.5311 -1.9784  1.9407
   23CHL1   C16 1649   5.996   2.777   9.444 -0.0485 -0.0957  0.0666
   23CHL1  H16A 1650   6.018   2.698   9.369 -0.2335 -0.6380  0.5760
   23CHL1  H16B 1651   5.950   2.871   9.406 -2.2917 -0.6883  1.1578
   23CHL1   C17 1652   6.119   2.811   9.528  0.2969 -0.3352  0.0729
   23CHL1   H17 1653   6.097   2.915   9.560 -2.9449 -0.9231  0.1089
   23CHL1   C13 1654   6.107   2.725   9.656  0.1350 -0.0051  0.2071
   23CHL1   C18 1655   6.150   2.581   9.624  0.4545 -0.7966  0.1505
   23CHL1  H18A 1656   6.104   2.538   9.532 -0.5579 -2.4129  1.3698
   23CHL1  H18B 1657   6.260   2.575   9.609  0.2154  0.0538 -2.5491
   23CHL1  H18C 1658   6.123   2.515   9.709 -1.0344  0.3106  0.5759
   23CHL1   C12 1659   6.172   2.787   9.784  0.1827  0.5548  0.3799
   23CHL1  H12A 1660   6.282   2.785   9.770  0.3719 -1.6928  1.6908
   23CHL1  H12B 1661   6.129   2.888   9.797 -2.6047 -0.5359  0.3314
   23CHL1   C11 1662   6.140   2.707   9.907  0.6755 -0.1586 -0.2266
   23CHL1  H11A 1663   6.173   2.601   9.900 -1.3380 -0.9876  1.4972
   23CHL1  H11B 1664   6.182   2.756   9.997 -0.8047 -0.9046  0.9147
   23CHL1    C9 1665   5.983   2.690   9.920  0.4057  1.2519 -0.7013
   23CHL1    H9 1666   5.942   2.793   9.929 -1.0352  0.8267 -1.9641
   23CHL1   C10 1667   5.949   2.602  10.048 -0.2269  0.2687 -0.1673
   23CHL1   C19 1668   6.010   2.463  10.043  0.0623 -0.2127  0.1092
   23CHL1  H19A 1669   5.967   2.399   9.964  0.9304 -1.5835  0.7045
   23CHL1  H19B 1670   6.120   2.465  10.024 -0.2059  2.6561 -1.6560
   23CHL1  H19C 1671   5.988   2.407  10.136 -2.3153 -0.1081 -0.3386
   23CHL1    C1 1672   6.009   2.677  10.172  0.2342  0.2554 -0.3874
   23CHL1   H1A 1673   6.113   2.639  10.185  0.4586  1.8211  3.6813
   23CHL1   H1B 1674   6.012   2.786  10.147  0.0966 -0.3878 -3.6005
   23CHL1    C2 1675   5.945   2.647  10.305 -0.0142 -0.5753 -0.7650
   23CHL1   H2A 1676   5.992   2.706  10.387 -0.2228  1.3951 -1.9954
   23CHL1   H2B 1677   5.968   2.541  10.329  0.1558 -0.5549 -0.8308
   23CHL1   C20 1678   6.253   2.815   9.454 -0.3400  0.6890  0.3694
   23CHL1   H20 1679   6.287   2.710   9.439  1.6760  0.7371  3.6111
   23CHL1   C21 1680   6.361   2.883   9.522 -0.0904  0.3486  0.1824
   23CHL1  H21A 1681   6.399   2.844   9.619 -1.7041 -0.1682  0.6240
   23CHL1  H21B 1682   6.349   2.993   9.530 -3.0977  0.3960 -2.6643
   23CHL1  H21C 1683   6.452   2.877   9.458 -0.7031 -0.2259 -0.6575
   23CHL1   C22 1684   6.236   2.856   9.308  0.2066 -0.0250 -0.0052
   23CHL1  H22A 1685   6.330   2.833   9.252 -0.4221 -0.9292 -0.7073
   23CHL1  H22B 1686   6.155   2.795   9.265  1.3506 -0.8871 -1.0190
   23CHL1   C23 1687   6.190   3.003   9.290 -0.8147 -0.0521  0.2773
   23CHL1  H23A 1688   6.096   3.035   9.340 -1.0259  0.8124 -0.6464
   23CHL1  H23B 1689   6.271   3.069   9.326  2.2972 -3.0315 -0.6969
   23CHL1   C24 1690   6.180   3.029   9.141  0.0541  0.3087 -0.5645
   23CHL1  H24A 1691   6.113   2.954   9.094 -0.9298  0.1052  1.0802
   23CHL1  H24B 1692   6.132   3.128   9.129  1.6934  0.9246 -2.5275
   23CHL1   C25 1693   6.321   3.044   9.073 -0.1172 -0.2755  1.2027
   23CHL1   H25 1694   6.390   2.973   9.123  2.1493  2.1888  1.7726
   23CHL1   C26 1695   6.321   3.006   8.917 -0.2809  0.3804 -0.9957
   23CHL1  H26A 1696   6.427   3.011   8.886  0.5280  0.3122  1.4896
   23CHL1  H26B 1697   6.290   2.904   8.886 -0.1376 -0.0083  0.0925
   23CHL1  H26C 1698   6.245   3.078   8.880  1.0419  1.2314 -2.1536
   23CHL1   C27 1699   6.376   3.188   9.079  0.2467  0.2560 -0.2807
   23CHL1  H27A 1700   6.340   3.257   9.000 -1.8076 -0.1387  0.2529
   23CHL1  H27B 1701   6.357   3.220   9.184  1.9880 -3.7306  1.4537
   23CHL1  H27C 1702   6.485   3.183   9.057  0.0904 -0.5789 -0.8843
   24CHL1    C3 1703   1.536   4.201  10.368  0.4770  0.7475 -0.0078
   24CHL1    H3 1704   1.641   4.194  10.333  2.0264  2.4625  3.7412
   24CHL1    O3 1705   1.533   4.186  10.510 -0.0027  0.2384 -0.5446
   24CHL1   H3' 1706   1.440   4.185  10.535 -0.1736 -3.8683 -0.6885
   24CHL1    C4 1707   1.488   4.345  10.340  0.6438  0.3529  0.0528
   24CHL1   H4A 1708   1.397   4.374  10.396  0.3309  2.0585 -1.2726
   24CHL1   H4B 1709   1.567   4.412  10.381  2.2821 -1.4134 -0.0676
   24CHL1    C5 1710   1.467   4.371  10.192  0.3828 -0.1043  0.0305
   24CHL1    C6 1711   1.534   4.465  10.124 -0.3992  0.2001  0.2466
   24CHL1    H6 1712   1.601   4.532  10.180 -1.6732  0.8024  1.0845
   24CHL1    C7 1713   1.522   4.488   9.976 -0.3075 -0.0843  0.1116
   24CHL1   H7A 1714   1.522   4.598   9.965  0.3275 -0.1690 -0.8742
   24CHL1   H7B 1715   1.612   4.444   9.928  0.0299 -0.6562  1.2241
   24CHL1    C8 1716   1.401   4.417   9.919 -0.2911  0.1417  0.2862
   24CHL1    H8 1717   1.301   4.462   9.936 -0.7190 -0.1959 -1.1977
   24CHL1   C14 1718   1.427   4.409   9.772  0.4442  0.1404 -1.3509
   24CHL1   H14 1719   1.521   4.350   9.762  1.0181  0.9063 -0.6676
   24CHL1   C15 1720   1.455   4.542   9.700  0.6951 -0.2610  0.6146
   24CHL1  H15A 1721   1.378   4.613   9.738 -0.0750 -0.3177 -0.7770
   24CHL1  H15B 1722   1.557   4.582   9.721  0.1529  1.1778  0.6302
   24CHL1   C16 1723   1.421   4.508   9.552 -0.4885  0.1330 -0.2353
   24CHL1  H16A 1724   1.345   4.579   9.513  0.9641  1.6154 -0.5178
   24CHL1  H16B 1725   1.514   4.536   9.498 -1.0241  0.0918 -1.1835
   24CHL1   C17 1726   1.366   4.361   9.549 -0.1392 -0.6779  0.0700
   24CHL1   H17 1727   1.458   4.299   9.548  0.4388  0.0504  2.7149
   24CHL1   C13 1728   1.313   4.339   9.692 -0.7734  0.9031 -0.9633
   24CHL1   C18 1729   1.173   4.404   9.699 -0.1403  0.2049  0.8154
   24CHL1  H18A 1730   1.178   4.500   9.643 -0.6570  0.1176  0.6181
   24CHL1  H18B 1731   1.106   4.332   9.649  0.0716  0.6140 -0.0696
   24CHL1  H18C 1732   1.151   4.423   9.806 -1.2494  0.8243  0.4875
   24CHL1   C12 1733   1.296   4.195   9.745  0.3049 -0.0235  0.3232
   24CHL1  H12A 1734   1.203   4.155   9.700 -0.4560  0.9221  1.0096
   24CHL1  H12B 1735   1.385   4.135   9.717  0.0719 -0.6318  0.8538
   24CHL1   C11 1736   1.279   4.197   9.900 -0.0233  0.7573  0.0256
   24CHL1  H11A 1737   1.181   4.246   9.917  0.1690  3.6505 -5.0061
   24CHL1  H11B 1738   1.272   4.094   9.941 -0.5520  0.6173 -0.4052
   24CHL1    C9 1739   1.385   4.277   9.976  0.7027 -0.3225  0.2337
   24CHL1    H9 1740   1.485   4.235   9.950  0.5467 -0.8338  0.4494
   24CHL1   C10 1741   1.373   4.269  10.130 -0.6012  0.4164  0.3231
   24CHL1   C19 1742   1.224   4.301  10.172 -0.2591  0.6208 -0.1673
   24CHL1  H19A 1743   1.196   4.398  10.127  1.4965  2.3666  2.2582
   24CHL1  H19B 1744   1.155   4.218  10.145  2.3268 -3.1499  3.5014
   24CHL1  H19C 1745   1.217   4.309  10.283  0.2499  2.2900 -0.2373
   24CHL1    C1 1746   1.420   4.122  10.169  0.7911 -0.3263 -0.0328
   24CHL1   H1A 1747   1.356   4.038  10.135  1.4234 -0.8379  0.0264
   24CHL1   H1B 1748   1.516   4.098  10.119  0.7630  1.0445 -0.7937
   24CHL1    C2 1749   1.439   4.100  10.320  0.0199 -0.6039  0.4231
   24CHL1   H2A 1750   1.473   3.997  10.341 -0.9162 -1.2296 -0.9878
   24CHL1   H2B 1751   1.343   4.123  10.371  0.1194  2.1171 -0.4630
   24CHL1   C20 1752   1.277   4.325   9.426 -0.0381  0.3593 -0.2237
   24CHL1   H20 1753   1.174   4.365   9.441  0.2876  0.5129  1.9794
   24CHL1   C21 1754   1.270   4.168   9.417 -0.3038 -1.2491  0.0748
   24CHL1  H21A 1755   1.370   4.122   9.430  0.3845  0.2472  0.2312
   24CHL1  H21B 1756   1.220   4.121   9.330 -1.5143 -0.2452  0.1895
   24CHL1  H21C 1757   1.208   4.138   9.504 -0.8551 -2.7821 -0.8106
   24CHL1   C22 1758   1.354   4.390   9.306 -0.0783  0.0221  0.1177
   24CHL1  H22A 1759   1.402   4.490   9.314  0.4729 -0.2777  0.7126
   24CHL1  H22B 1760   1.441   4.322   9.294 -1.2527 -2.5153  3.9859
   24CHL1   C23 1761   1.273   4.389   9.176  0.4963  0.2631  0.1884
   24CHL1  H23A 1762   1.257   4.280   9.160  0.2182  0.5879 -1.9732
   24CHL1  H23B 1763   1.174   4.435   9.197  1.5699  1.4428  3.3160
   24CHL1   C24 1764   1.355   4.452   9.069 -0.1218 -0.1741  0.0054
   24CHL1  H24A 1765   1.378   4.558   9.094  0.6155  0.1844 -2.0192
   24CHL1  H24B 1766   1.445   4.391   9.046 -0.6347 -1.1923  0.6667
   24CHL1   C25 1767   1.282   4.449   8.935 -0.2051  0.9651  0.3683
   24CHL1   H25 1768   1.240   4.347   8.920  1.1092  0.3029  0.9507
   24CHL1   C26 1769   1.169   4.550   8.936 -0.0395  0.0335  0.9543
   24CHL1  H26A 1770   1.206   4.649   8.972 -0.5179  0.1207  1.2058
   24CHL1  H26B 1771   1.124   4.562   8.835  1.5307 -0.1520  0.2065
   24CHL1  H26C 1772   1.084   4.512   8.996  1.2569 -1.9849  1.6174
   24CHL1   C27 1773   1.376   4.472   8.816  0.2717  0.3070  0.3239
   24CHL1  H27A 1774   1.314   4.472   8.724  0.6373  3.5800 -0.0487
   24CHL1  H27B 1775   1.421   4.573   8.824  0.1194  0.2597  2.4826
   24CHL1  H27C 1776   1.453   4.392   8.822  0.7412  0.7442  0.1901
   25CHL1    C3 1777   2.504   5.120  10.592 -0.4450  0.1717 -0.3752
   25CHL1    H3 1778   2.400   5.155  10.609 -0.1964 -0.0315  1.7805
   25CHL1    O3 1779   2.565   5.122  10.721 -0.0800  0.1563  0.3449
   25CHL1   H3' 1780   2.508   5.089  10.791  1.7449 -2.1271  0.9020
   25CHL1    C4 1781   2.512   4.986  10.519 -0.0141 -0.0728  0.5723
   25CHL1   H4A 1782   2.617   4.953  10.528  0.1365  0.4453  0.7163
   25CHL1   H4B 1783   2.452   4.916  10.581  1.3458 -0.3382  1.6461
   25CHL1    C5 1784   2.486   4.984  10.372  0.3746  0.8065  0.8884
   25CHL1    C6 1785   2.402   4.891  10.316  0.4376 -0.3176 -0.1912
   25CHL1    H6 1786   2.361   4.810  10.378  2.3800 -0.8111  0.5396
   25CHL1    C7 1787   2.371   4.874  10.171 -0.5299  0.5316 -1.0494
   25CHL1   H7A 1788   2.380   4.767  10.145 -0.2666  0.2618  0.0866
   25CHL1   H7B 1789   2.265   4.901  10.148 -0.5548 -0.3254 -2.0085
   25CHL1    C8 1790   2.468   4.956  10.081  0.1223 -0.5259 -0.5349
   25CHL1    H8 1791   2.568   4.909  10.073  1.1048  1.6915 -3.1524
   25CHL1   C14 1792   2.408   4.976   9.942 -0.1758 -0.0465  0.7377
   25CHL1   H14 1793   2.308   5.022   9.959 -2.9356 -4.1126 -2.4013
   25CHL1   C15 1794   2.375   4.851   9.856 -0.6258 -0.3351  0.2555
   25CHL1  H15A 1795   2.469   4.791   9.862 -0.5438 -0.4222 -1.3875
   25CHL1  H15B 1796   2.293   4.783   9.888 -1.6186  0.7217  0.0281
   25CHL1   C16 1797   2.356   4.913   9.713 -0.2129  0.3419 -0.4610
   25CHL1  H16A 1798   2.435   4.862   9.654 -0.2680 -0.0359 -0.2128
   25CHL1  H16B 1799   2.251   4.894   9.685 -0.0407 -2.7128  0.6141
   25CHL1   C17 1800   2.406   5.062   9.721 -0.5660 -0.4433 -0.0908
   25CHL1   H17 1801   2.311   5.118   9.734 -2.1964 -2.6512 -1.8173
   25CHL1   C13 1802   2.491   5.068   9.854 -0.3903 -0.0077  0.1706
   25CHL1   C18 1803   2.640   5.025   9.830 -0.1192 -0.1658 -0.1777
   25CHL1  H18A 1804   2.703   5.106   9.786 -0.7572  0.4383 -0.0057
   25CHL1  H18B 1805   2.678   4.986   9.927 -1.4833  1.6289  1.1730
   25CHL1  H18C 1806   2.637   4.936   9.765  1.8828 -1.2835  1.1454
   25CHL1   C12 1807   2.485   5.213   9.914  0.3059  0.9036  0.5718
   25CHL1  H12A 1808   2.552   5.281   9.858 -0.6305  0.3256 -1.3272
   25CHL1  H12B 1809   2.379   5.246   9.917  0.2134  1.0561 -2.0578
   25CHL1   C11 1810   2.550   5.207  10.054 -0.2486  0.0321 -0.2309
   25CHL1  H11A 1811   2.657   5.182  10.045 -0.6912 -1.3524 -2.3378
   25CHL1  H11B 1812   2.554   5.307  10.101 -0.1707 -0.0769 -0.0029
   25CHL1    C9 1813   2.484   5.104  10.144 -0.0095 -0.9228 -0.9169
   25CHL1    H9 1814   2.382   5.140  10.167  0.3045 -0.2648 -0.5278
   25CHL1   C10 1815   2.552   5.092  10.289  0.5285 -0.4651 -0.1117
   25CHL1   C19 1816   2.698   5.065  10.278  0.1547  0.1176  0.0305
   25CHL1  H19A 1817   2.753   5.154  10.241 -0.5342  0.4325 -0.2613
   25CHL1  H19B 1818   2.741   5.041  10.378  1.4647  0.0677 -0.5331
   25CHL1  H19C 1819   2.730   4.980  10.215 -0.2988  0.0861 -0.1571
   25CHL1    C1 1820   2.521   5.228  10.362  0.0113 -0.4261  0.6823
   25CHL1   H1A 1821   2.579   5.300  10.301  0.3397 -1.3926 -0.1778
   25CHL1   H1B 1822   2.411   5.239  10.367  0.1191  0.3940  1.6499
   25CHL1    C2 1823   2.575   5.235  10.506  0.2369 -0.3922  0.5250
   25CHL1   H2A 1824   2.552   5.329  10.560  3.1661  0.1795  0.8958
   25CHL1   H2B 1825   2.686   5.234  10.509  0.2571 -0.0403  0.0506
   25CHL1   C20 1826   2.468   5.107   9.578 -0.2708 -0.4711  0.0688
   25CHL1   H20 1827   2.551   5.036   9.556 -0.0236 -0.1171 -0.1445
   25CHL1   C21 1828   2.544   5.241   9.577 -0.2356  0.0875 -0.0298
   25CHL1  H21A 1829   2.468   5.322   9.573  1.7238  1.9784 -1.1411
   25CHL1  H21B 1830   2.610   5.260   9.490 -2.3016  4.2023 -0.9481
   25CHL1  H21C 1831   2.608   5.247   9.668  0.4783  2.4147 -0.6227
   25CHL1   C22 1832   2.365   5.110   9.463 -0.5711 -0.1533  0.0196
   25CHL1  H22A 1833   2.328   5.006   9.447 -0.4906 -0.2299  0.3093
   25CHL1  H22B 1834   2.284   5.183   9.485  0.5712  0.2843  3.5518
   25CHL1   C23 1835   2.420   5.158   9.327 -0.2727  0.1160  0.2023
   25CHL1  H23A 1836   2.427   5.268   9.338  2.0375  0.2344 -1.6556
   25CHL1  H23B 1837   2.524   5.119   9.321 -1.0256 -2.1302  0.8639
   25CHL1   C24 1838   2.338   5.132   9.198  0.0056 -0.4609 -0.0687
   25CHL1  H24A 1839   2.315   5.024   9.209 -0.3876 -0.5689 -1.6674
   25CHL1  H24B 1840   2.253   5.204   9.199  1.9418  2.0421  2.2658
   25CHL1   C25 1841   2.425   5.143   9.069 -0.2978 -0.4189  0.0705
   25CHL1   H25 1842   2.474   5.242   9.081 -0.8701 -0.4388  3.7776
   25CHL1   C26 1843   2.544   5.046   9.068  0.0142 -0.1891  0.4920
   25CHL1  H26A 1844   2.575   5.020   8.964  1.4399  0.8703  0.6128
   25CHL1  H26B 1845   2.634   5.099   9.106  0.8034 -0.9004 -0.3340
   25CHL1  H26C 1846   2.522   4.953   9.124  1.0920 -0.2192  0.8944
   25CHL1   C27 1847   2.342   5.144   8.940 -0.6586 -0.2730 -0.0267
   25CHL1  H27A 1848   2.407   5.143   8.850 -1.7018  1.5061 -0.8640
   25CHL1  H27B 1849   2.270   5.062   8.922  0.8121 -2.1645  2.1653
   25CHL1  H27C 1850   2.299   5.247   8.939  0.8516  0.3888 -0.4396
   26CHL1    C3 1851   4.757   1.125  10.589 -0.6649  0.6239 -0.4420
   26CHL1    H3 1852   4.649   1.138  10.572 -0.9163  2.3899  1.9527
   26CHL1    O3 1853   4.773   1.088  10.729  0.3383 -0.0420  0.1740
   26CHL1   H3' 1854   4.858   1.043  10.737  0.5695  0.2533 -0.5264
   26CHL1    C4 1855   4.806   1.010  10.501 -0.1491 -0.8143 -0.3979
   26CHL1   H4A 1856   4.916   1.010  10.518  0.3761  1.2722 -3.0920
   26CHL1   H4B 1857   4.772   0.915  10.548 -3.0839  0.6254  0.6294
   26CHL1    C5 1858   4.793   1.027  10.350  0.3506  0.1080 -0.6593
   26CHL1    C6 1859   4.724   0.940  10.274  0.9500 -0.1020 -0.3150
   26CHL1    H6 1860   4.688   0.843  10.312  2.5968  0.1533  2.1355
   26CHL1    C7 1861   4.717   0.964  10.123  0.1296 -0.3318  0.0020
   26CHL1   H7A 1862   4.745   0.869  10.073 -1.2818 -1.5118  1.3555
   26CHL1   H7B 1863   4.610   0.983  10.098 -0.1675 -1.3421  0.4422
   26CHL1    C8 1864   4.807   1.076  10.067 -0.2557 -0.0933 -0.1783
   26CHL1    H8 1865   4.905   1.024  10.056  1.7435  2.4356  3.5390
   26CHL1   C14 1866   4.769   1.117   9.931  0.1819 -0.0064 -0.3971
   26CHL1   H14 1867   4.670   1.168   9.940 -0.5519 -1.3794 -0.3848
   26CHL1   C15 1868   4.748   1.009   9.822  0.0375  0.0144 -0.1771
   26CHL1  H15A 1869   4.825   0.928   9.824  0.5948  0.5266 -0.4205
   26CHL1  H15B 1870   4.644   0.973   9.836 -0.7052  1.3184 -2.0093
   26CHL1   C16 1871   4.766   1.082   9.685 -0.1411 -1.0191 -0.2032
   26CHL1  H16A 1872   4.849   1.049   9.620 -0.7042 -2.2091 -0.3475
   26CHL1  H16B 1873   4.673   1.087   9.624 -0.2001 -1.7211 -0.1800
   26CHL1   C17 1874   4.796   1.233   9.715 -0.5837 -0.4387 -0.1192
   26CHL1   H17 1875   4.698   1.277   9.742  0.7651  2.4513  0.4663
   26CHL1   C13 1876   4.854   1.228   9.859  0.4752 -0.1664 -0.9316
   26CHL1   C18 1877   5.002   1.179   9.841 -0.1253  0.0221  0.1739
   26CHL1  H18A 1878   4.999   1.091   9.773  3.2991  0.9916 -1.4518
   26CHL1  H18B 1879   5.064   1.257   9.792 -0.1568 -0.8795 -1.3524
   26CHL1  H18C 1880   5.041   1.139   9.937 -1.0655  0.2601  0.6668
   26CHL1   C12 1881   4.849   1.352   9.954 -0.2368 -0.0983  0.1796
   26CHL1  H12A 1882   4.926   1.414   9.903 -1.2354  0.3670 -0.8125
   26CHL1  H12B 1883   4.747   1.397   9.957 -0.3023 -0.2857  2.2456
   26CHL1   C11 1884   4.894   1.319  10.096  0.8440  0.7499  0.0177
   26CHL1  H11A 1885   5.003   1.298  10.090  0.8959 -0.4250  3.3144
   26CHL1  H11B 1886   4.875   1.407  10.159 -0.5813 -0.8966  2.0140
   26CHL1    C9 1887   4.813   1.196  10.161  0.1940  0.2257  0.0169
   26CHL1    H9 1888   4.706   1.224  10.173 -0.1817 -1.1972  0.2209
   26CHL1   C10 1889   4.860   1.157  10.301  0.2641 -0.0930  0.3109
   26CHL1   C19 1890   5.009   1.148  10.304 -0.2357  0.0337 -0.1073
   26CHL1  H19A 1891   5.052   1.098  10.215 -1.7719 -1.1602 -0.2117
   26CHL1  H19B 1892   5.047   1.253  10.307 -1.1845  0.3658  0.7091
   26CHL1  H19C 1893   5.052   1.090  10.388 -0.4957 -2.4047 -1.5643
   26CHL1    C1 1894   4.816   1.272  10.402  0.1896 -0.1505 -0.3409
   26CHL1   H1A 1895   4.878   1.364  10.392 -0.3133  0.5577  2.3415
   26CHL1   H1B 1896   4.709   1.297  10.387  0.1845  3.9520  3.9601
   26CHL1    C2 1897   4.831   1.249  10.553 -0.0506  0.4139  0.4718
   26CHL1   H2A 1898   4.787   1.334  10.610  2.2526  1.9813  0.0949
   26CHL1   H2B 1899   4.936   1.250  10.589  0.1151 -2.0419  0.1893
   26CHL1   C20 1900   4.853   1.328   9.602  0.7856  0.3658  0.9458
   26CHL1   H20 1901   4.771   1.343   9.529  1.9402  1.2436 -0.2144
   26CHL1   C21 1902   4.970   1.268   9.525 -0.8854  0.2790  0.7883
   26CHL1  H21A 1903   4.976   1.321   9.428  0.0581 -0.5563  0.3761
   26CHL1  H21B 1904   4.964   1.159   9.504 -2.2028  0.6743 -1.1458
   26CHL1  H21C 1905   5.064   1.285   9.583 -1.2808  0.5631  1.3599
   26CHL1   C22 1906   4.901   1.468   9.646  0.1581 -0.2238 -0.1517
   26CHL1  H22A 1907   4.976   1.453   9.726 -1.1054 -0.9611  0.9329
   26CHL1  H22B 1908   4.954   1.521   9.564 -1.5825  1.2722 -0.3500
   26CHL1   C23 1909   4.784   1.555   9.684  0.4728  0.4524  0.1000
   26CHL1  H23A 1910   4.709   1.574   9.604 -0.8921 -0.5771  1.0850
   26CHL1  H23B 1911   4.726   1.501   9.763 -1.0460 -1.6772 -2.3183
   26CHL1   C24 1912   4.832   1.684   9.748  0.6490 -0.1584 -0.3585
   26CHL1  H24A 1913   4.889   1.669   9.842 -2.1021  0.2096  1.4754
   26CHL1  H24B 1914   4.893   1.742   9.675  1.4813 -1.7933 -1.0198
   26CHL1   C25 1915   4.710   1.775   9.787  0.2125  0.1774  0.4375
   26CHL1   H25 1916   4.628   1.700   9.795 -0.6481  0.8488 -1.4110
   26CHL1   C26 1917   4.732   1.850   9.923 -0.4235  0.2522 -0.6244
   26CHL1  H26A 1918   4.817   1.921   9.924  0.1095 -0.3429 -1.8452
   26CHL1  H26B 1919   4.645   1.912   9.955  0.2561  0.7206  0.3552
   26CHL1  H26C 1920   4.740   1.775  10.006 -0.3454 -0.8545 -1.6030
   26CHL1   C27 1921   4.671   1.876   9.675  0.2866  0.3504 -0.9880
   26CHL1  H27A 1922   4.668   1.828   9.575  2.7355  0.7845 -1.3242
   26CHL1  H27B 1923   4.565   1.902   9.697  0.4069  0.3236 -0.3806
   26CHL1  H27C 1924   4.747   1.955   9.690 -0.5353  0.8175  1.0140
   27CHL1    C3 1925   2.780   5.643  10.535 -0.2612  0.7482  0.5317
   27CHL1    H3 1926   2.723   5.552  10.509  0.5476  0.5228 -0.5534
   27CHL1    O3 1927   2.793   5.665  10.674 -0.8607 -0.1054 -0.5562
   27CHL1   H3' 1928   2.847   5.744  10.683 -0.5579 -0.4448  0.9737
   27CHL1    C4 1929   2.919   5.632  10.468  0.7145 -0.5004  0.2451
   27CHL1   H4A 1930   2.966   5.733  10.470  1.7646 -0.9657 -0.0370
   27CHL1   H4B 1931   2.984   5.555  10.515  2.3931 -1.8612 -3.7845
   27CHL1    C5 1932   2.885   5.607  10.322 -0.8570 -0.2510  0.5338
   27CHL1    C6 1933   2.940   5.501  10.259  0.0147  0.1558  0.1671
   27CHL1    H6 1934   3.010   5.438  10.315 -2.6920 -1.1282  2.3592
   27CHL1    C7 1935   2.933   5.466  10.116 -0.4704 -0.0922  0.5546
   27CHL1   H7A 1936   3.037   5.457  10.079  0.0101  1.5243  1.4361
   27CHL1   H7B 1937   2.880   5.370  10.095 -1.8208  1.2335 -2.6995
   27CHL1    C8 1938   2.864   5.583  10.035  0.2139 -0.1162 -0.0470
   27CHL1    H8 1939   2.938   5.665  10.026  1.6371 -1.3983 -0.3181
   27CHL1   C14 1940   2.828   5.529   9.905  0.6864  0.7651 -0.3743
   27CHL1   H14 1941   2.752   5.452   9.930  1.7643 -0.2418 -0.1046
   27CHL1   C15 1942   2.929   5.448   9.823 -0.6669  0.2728 -0.1818
   27CHL1  H15A 1943   3.033   5.483   9.839 -0.3713 -1.5172  2.4758
   27CHL1  H15B 1944   2.922   5.338   9.841 -0.9761  0.2877 -0.2044
   27CHL1   C16 1945   2.883   5.466   9.675 -0.3283  0.3838 -0.1530
   27CHL1  H16A 1946   2.967   5.522   9.630  0.7981 -0.7723  0.4167
   27CHL1  H16B 1947   2.857   5.368   9.630  1.4131 -0.0013 -0.4135
   27CHL1   C17 1948   2.753   5.549   9.678  0.3428  0.1724 -0.9504
   27CHL1   H17 1949   2.665   5.484   9.697 -0.4632  0.7414 -2.5134
   27CHL1   C13 1950   2.762   5.632   9.809 -0.7634  0.1327  0.4444
   27CHL1   C18 1951   2.861   5.747   9.787 -0.9063  0.1202  0.4188
   27CHL1  H18A 1952   2.905   5.791   9.879 -0.5076 -2.3251  1.4763
   27CHL1  H18B 1953   2.951   5.707   9.735 -1.4758 -0.7853  0.1026
   27CHL1  H18C 1954   2.824   5.827   9.720  3.1334  1.7482 -0.1869
   27CHL1   C12 1955   2.629   5.675   9.875 -0.5804 -0.7167  0.0894
   27CHL1  H12A 1956   2.582   5.759   9.820 -2.3688 -0.1287  2.4014
   27CHL1  H12B 1957   2.561   5.588   9.864 -0.1122 -1.4691  2.5295
   27CHL1   C11 1958   2.642   5.719  10.023  0.2916 -0.0257  0.2919
   27CHL1  H11A 1959   2.672   5.825  10.032 -0.6702  0.2208  0.6857
   27CHL1  H11B 1960   2.538   5.721  10.062 -0.7125 -1.8407 -1.9984
   27CHL1    C9 1961   2.744   5.643  10.113  0.3324  0.0852  0.0721
   27CHL1    H9 1962   2.691   5.551  10.145  0.6735  0.3512  1.4773
   27CHL1   C10 1963   2.787   5.706  10.256  0.7199 -0.1854 -0.2976
   27CHL1   C19 1964   2.846   5.844  10.229 -0.4257 -0.6258  0.0419
   27CHL1  H19A 1965   2.938   5.843  10.167 -0.4721 -0.1920 -0.0339
   27CHL1  H19B 1966   2.782   5.913  10.170  0.5502  0.8167  0.6258
   27CHL1  H19C 1967   2.857   5.895  10.327 -0.0293 -3.0130  1.3252
   27CHL1    C1 1968   2.663   5.728  10.336 -0.1208  0.0887 -0.3663
   27CHL1   H1A 1969   2.598   5.804  10.288 -0.0933 -1.1728 -2.5213
   27CHL1   H1B 1970   2.604   5.633  10.330 -2.0310  1.1462  0.5899
   27CHL1    C2 1971   2.696   5.760  10.486 -1.0271 -0.2697 -0.2282
   27CHL1   H2A 1972   2.606   5.769  10.551  0.3196  1.5260  1.5168
   27CHL1   H2B 1973   2.747   5.858  10.489 -0.6338 -0.4892  0.4471
   27CHL1   C20 1974   2.732   5.621   9.542  0.2202 -0.1403  0.0338
   27CHL1   H20 1975   2.827   5.660   9.500 -0.7383 -1.0279 -3.3034
   27CHL1   C21 1976   2.624   5.732   9.537 -0.0866 -0.6419  0.1101
   27CHL1  H21A 1977   2.523   5.692   9.556 -0.2719 -0.1007  0.2890
   27CHL1  H21B 1978   2.618   5.791   9.443 -0.3520  0.0305  0.5390
   27CHL1  H21C 1979   2.642   5.807   9.618 -1.6108 -0.5155  0.3567
   27CHL1   C22 1980   2.706   5.517   9.429  0.0497 -0.1111  0.5270
   27CHL1  H22A 1981   2.770   5.428   9.444 -0.2704 -0.5463 -0.5817
   27CHL1  H22B 1982   2.600   5.492   9.452 -0.1327  1.4856  1.5919
   27CHL1   C23 1983   2.709   5.575   9.281 -0.0487  0.4213  0.4522
   27CHL1  H23A 1984   2.631   5.653   9.267  0.3369  0.6305 -0.6427
   27CHL1  H23B 1985   2.800   5.636   9.265 -1.3670  1.6768 -3.3808
   27CHL1   C24 1986   2.679   5.463   9.185 -0.2645 -0.4009  0.4454
   27CHL1  H24A 1987   2.752   5.386   9.217  0.0955  0.0773  0.7948
   27CHL1  H24B 1988   2.575   5.428   9.193  0.1865 -1.3122  3.1411
   27CHL1   C25 1989   2.710   5.508   9.038 -0.3880 -0.5126  0.0391
   27CHL1   H25 1990   2.661   5.606   9.019  1.6683  0.2458 -1.7297
   27CHL1   C26 1991   2.862   5.516   9.015 -0.4925 -0.7889 -0.5059
   27CHL1  H26A 1992   2.886   5.537   8.908  2.3819 -0.6383  0.0787
   27CHL1  H26B 1993   2.911   5.591   9.081 -0.3304  0.1377 -1.6487
   27CHL1  H26C 1994   2.907   5.419   9.045  0.3691  0.2720  1.8590
   27CHL1   C27 1995   2.648   5.421   8.931 -0.1304 -0.2073  0.4927
   27CHL1  H27A 1996   2.683   5.315   8.939 -0.2559 -0.1600  1.8704
   27CHL1  H27B 1997   2.538   5.429   8.918  0.1691  1.6023 -1.2916
   27CHL1  H27C 1998   2.693   5.452   8.835  2.4347  0.8171  1.9451
   28CHL1    C3 1999   2.895   4.106  10.456  0.0866  0.8917 -1.0568
   28CHL1    H3 2000   2.833   4.018  10.427  1.1156  0.3439 -1.6606
   28CHL1    O3 2001   2.885   4.136  10.595 -0.2398 -0.5182  0.4453
   28CHL1   H3' 2002   2.819   4.206  10.593  0.9226  0.6830 -2.4264
   28CHL1    C4 2003   3.043   4.086  10.417 -0.0032 -0.9445 -0.6730
   28CHL1   H4A 2004   3.113   4.167  10.445  1.5222 -2.6206  0.5530
   28CHL1   H4B 2005   3.074   3.993  10.468 -1.5802 -1.0317  0.1782
   28CHL1    C5 2006   3.062   4.062  10.272  0.6861  0.2327 -0.0404
   28CHL1    C6 2007   3.128   3.949  10.222 -0.2920  0.1027 -0.6889
   28CHL1    H6 2008   3.171   3.879  10.296 -0.9799  0.5899  0.1992
   28CHL1    C7 2009   3.165   3.938  10.075 -0.0369  0.0325 -0.1264
   28CHL1   H7A 2010   3.274   3.923  10.067  0.4503  2.8983 -0.1020
   28CHL1   H7B 2011   3.109   3.847  10.047  0.6557  0.3016 -2.6343
   28CHL1    C8 2012   3.122   4.066   9.990 -0.3033 -0.5779 -0.2157
   28CHL1    H8 2013   3.197   4.146  10.011 -1.3313  0.5674 -0.7787
   28CHL1   C14 2014   3.126   4.044   9.839  0.0676 -0.0953  0.4514
   28CHL1   H14 2015   3.040   3.975   9.820  0.5881 -0.6408  0.0428
   28CHL1   C15 2016   3.245   3.961   9.776  0.4210 -0.7488  0.1357
   28CHL1  H15A 2017   3.345   3.999   9.807  0.5797  0.3959 -1.6388
   28CHL1  H15B 2018   3.233   3.853   9.799  2.5538 -0.6547  2.0197
   28CHL1   C16 2019   3.231   3.984   9.620  0.1597 -0.2576 -0.0968
   28CHL1  H16A 2020   3.328   4.019   9.578  0.9070 -1.6415  0.4107
   28CHL1  H16B 2021   3.196   3.893   9.567 -1.6090 -0.7488  1.7853
   28CHL1   C17 2022   3.116   4.089   9.608 -0.8251  0.2721 -0.7417
   28CHL1   H17 2023   3.023   4.028   9.606  0.4971 -1.9874  0.9936
   28CHL1   C13 2024   3.104   4.161   9.742  0.8100  0.0488  0.1969
   28CHL1   C18 2025   3.212   4.265   9.760 -0.6636 -0.2696 -0.0888
   28CHL1  H18A 2026   3.228   4.291   9.867 -1.5541 -0.9713  0.2320
   28CHL1  H18B 2027   3.309   4.236   9.714  0.1658  0.4879  1.1126
   28CHL1  H18C 2028   3.175   4.355   9.707 -0.8719 -0.5054 -0.3514
   28CHL1   C12 2029   2.972   4.218   9.785  0.4784  0.1667 -0.3450
   28CHL1  H12A 2030   2.960   4.313   9.729  2.6440 -0.7896 -2.6335
   28CHL1  H12B 2031   2.889   4.154   9.746  0.5673 -1.0137  1.2860
   28CHL1   C11 2032   2.951   4.243   9.940  0.2437  0.4642  0.8005
   28CHL1  H11A 2033   3.015   4.333   9.950  1.4916  0.0179 -2.0175
   28CHL1  H11B 2034   2.843   4.260   9.956  0.0825 -1.4649  2.1535
   28CHL1    C9 2035   2.991   4.130  10.038  0.2830 -0.3276 -0.1193
   28CHL1    H9 2036   2.912   4.056  10.015  0.7273 -0.4273 -1.4459
   28CHL1   C10 2037   2.990   4.173  10.191 -0.1796  0.1800  0.2057
   28CHL1   C19 2038   3.065   4.305  10.208  0.0984  0.5626  0.3181
   28CHL1  H19A 2039   3.004   4.381  10.155 -1.2097 -0.3864  0.4068
   28CHL1  H19B 2040   3.076   4.327  10.317  0.1573 -0.3650  0.5073
   28CHL1  H19C 2041   3.166   4.293  10.163 -0.0218  0.3883  0.0940
   28CHL1    C1 2042   2.839   4.198  10.228 -0.8162 -0.3351 -0.5123
   28CHL1   H1A 2043   2.804   4.289  10.174  1.3249  1.6101  1.1505
   28CHL1   H1B 2044   2.784   4.104  10.206  0.1513 -1.0402  0.0290
   28CHL1    C2 2045   2.820   4.220  10.379  0.4080  0.8792 -0.4757
   28CHL1   H2A 2046   2.712   4.195  10.388 -0.0591  3.0558  0.6889
   28CHL1   H2B 2047   2.835   4.324  10.415  1.8719  0.2493  0.8814
   28CHL1   C20 2048   3.123   4.179   9.485  0.2840  0.2688 -0.5976
   28CHL1   H20 2049   3.186   4.269   9.504  1.1167 -0.2466 -0.8512
   28CHL1   C21 2050   2.984   4.232   9.453  0.3218  0.2208 -0.3377
   28CHL1  H21A 2051   2.903   4.157   9.469  0.2755  0.2016 -0.6517
   28CHL1  H21B 2052   2.985   4.269   9.348  0.0508 -0.6401 -0.6505
   28CHL1  H21C 2053   2.956   4.316   9.520 -0.9615 -0.1056 -0.4322
   28CHL1   C22 2054   3.178   4.099   9.362 -0.4246 -0.0089 -0.8553
   28CHL1  H22A 2055   3.276   4.053   9.385 -1.0864 -1.4366 -0.7899
   28CHL1  H22B 2056   3.110   4.015   9.339  0.8341 -2.1655  2.5870
   28CHL1   C23 2057   3.190   4.172   9.224 -0.0891 -0.6668  0.8209
   28CHL1  H23A 2058   3.094   4.199   9.174  0.8931 -1.8215 -1.8877
   28CHL1  H23B 2059   3.255   4.259   9.248 -1.1036  0.0940  0.8845
   28CHL1   C24 2060   3.263   4.091   9.124 -0.2670  0.6705  0.5402
   28CHL1  H24A 2061   3.360   4.057   9.166 -1.1005 -1.0500  1.1346
   28CHL1  H24B 2062   3.204   3.997   9.125  0.0520  0.4193 -1.2024
   28CHL1   C25 2063   3.282   4.149   8.981  0.1602  0.2352  0.0301
   28CHL1   H25 2064   3.186   4.153   8.925  0.6370 -0.0917 -0.8447
   28CHL1   C26 2065   3.348   4.285   8.993 -0.0408 -0.4024  0.3593
   28CHL1  H26A 2066   3.378   4.317   8.891 -2.1803 -1.3509 -0.6478
   28CHL1  H26B 2067   3.284   4.366   9.034 -0.4451 -0.3056 -0.4434
   28CHL1  H26C 2068   3.436   4.278   9.060  1.0412  0.9581 -0.8445
   28CHL1   C27 2069   3.362   4.051   8.889  0.4545 -0.2131 -0.5767
   28CHL1  H27A 2070   3.345   4.083   8.785  1.5750 -2.9351 -1.6842
   28CHL1  H27B 2071   3.468   4.057   8.921  0.4797 -0.7646 -0.5585
   28CHL1  H27C 2072   3.321   3.948   8.889 -1.2389  0.3960  0.9289
   29CHL1    C3 2073   3.437   4.312   6.957  0.1623 -0.4510 -0.1308
   29CHL1    H3 2074   3.492   4.216   6.949 -0.8872 -1.0201 -0.8287
   29CHL1    O3 2075   3.438   4.378   6.829 -0.3502  0.3375  0.3409
   29CHL1   H3' 2076   3.348   4.408   6.814  0.3177  3.0167  1.0119
   29CHL1    C4 2077   3.291   4.275   6.992  0.4630 -0.7431  0.3036
   29CHL1   H4A 2078   3.231   4.367   7.004  1.3380 -0.0079 -0.6972
   29CHL1   H4B 2079   3.252   4.220   6.903 -0.1218  1.1761 -0.6963
   29CHL1    C5 2080   3.290   4.207   7.125 -0.0731  0.6167 -0.2017
   29CHL1    C6 2081   3.227   4.090   7.152  0.2003 -0.2827 -0.2344
   29CHL1    H6 2082   3.184   4.032   7.069 -0.6394  0.7421 -0.5357
   29CHL1    C7 2083   3.202   4.027   7.293 -0.5927 -0.0263 -0.4597
   29CHL1   H7A 2084   3.099   3.993   7.316  0.5330 -2.5392  1.3543
   29CHL1   H7B 2085   3.265   3.936   7.306 -1.0363 -0.0655  1.8313
   29CHL1    C8 2086   3.242   4.127   7.401  0.5814 -0.7619 -0.4612
   29CHL1    H8 2087   3.163   4.205   7.408 -0.3303 -1.5228 -1.7612
   29CHL1   C14 2088   3.252   4.051   7.528  0.2817  0.1257  0.8009
   29CHL1   H14 2089   3.341   3.985   7.521 -0.5753 -0.9279 -0.5734
   29CHL1   C15 2090   3.137   3.952   7.565  0.6207 -0.6432  0.3129
   29CHL1  H15A 2091   3.033   3.993   7.561  1.1518  0.9520  1.7022
   29CHL1  H15B 2092   3.146   3.864   7.497 -1.1028 -1.7796  1.4679
   29CHL1   C16 2093   3.172   3.919   7.712 -0.1352  0.1533 -0.4005
   29CHL1  H16A 2094   3.069   3.929   7.754  0.8210  0.4676  2.0092
   29CHL1  H16B 2095   3.202   3.812   7.719  1.9064  0.6965 -0.2341
   29CHL1   C17 2096   3.275   4.022   7.758 -0.4021 -0.4770 -0.5391
   29CHL1   H17 2097   3.370   3.966   7.751 -1.6774 -2.9690  0.5256
   29CHL1   C13 2098   3.269   4.133   7.653 -0.4153  0.4067 -0.5151
   29CHL1   C18 2099   3.147   4.222   7.686  0.3313  0.0786  0.6799
   29CHL1  H18A 2100   3.160   4.295   7.768  1.2255 -0.5015  1.0648
   29CHL1  H18B 2101   3.121   4.279   7.594  2.2370 -1.4162 -0.8641
   29CHL1  H18C 2102   3.062   4.159   7.720  0.9621 -0.7237  0.7962
   29CHL1   C12 2103   3.399   4.206   7.635 -0.0798 -0.9291  0.0869
   29CHL1  H12A 2104   3.415   4.285   7.711 -1.3496 -1.5310  1.0099
   29CHL1  H12B 2105   3.486   4.137   7.627 -1.7457 -3.0240 -0.7381
   29CHL1   C11 2106   3.397   4.292   7.502 -0.3431  0.3537  0.4393
   29CHL1  H11A 2107   3.314   4.364   7.521  0.3819  1.2992  0.0975
   29CHL1  H11B 2108   3.491   4.351   7.495 -0.9102  1.4090  1.4132
   29CHL1    C9 2109   3.366   4.207   7.376  0.1452  0.7058  0.0859
   29CHL1    H9 2110   3.446   4.134   7.353 -2.3397 -2.1175 -0.1581
   29CHL1   C10 2111   3.358   4.290   7.242 -0.5103  0.4208 -0.0691
   29CHL1   C19 2112   3.274   4.419   7.264 -0.4819 -0.3044 -0.3154
   29CHL1  H19A 2113   3.169   4.392   7.286 -0.5310  0.0817 -0.0720
   29CHL1  H19B 2114   3.328   4.477   7.342  0.0667 -0.6961 -0.3931
   29CHL1  H19C 2115   3.280   4.476   7.170  0.2741 -1.6282 -1.1020
   29CHL1    C1 2116   3.505   4.340   7.196  0.1108 -0.0460 -0.4058
   29CHL1   H1A 2117   3.541   4.410   7.274 -1.6149  0.7872 -0.3130
   29CHL1   H1B 2118   3.579   4.257   7.200  2.8321  2.2074 -0.5740
   29CHL1    C2 2119   3.510   4.404   7.058 -0.4045  0.0523  0.3320
   29CHL1   H2A 2120   3.616   4.420   7.028  0.5281  0.6371  3.6213
   29CHL1   H2B 2121   3.460   4.504   7.057 -0.1604  0.1795  0.7227
   29CHL1   C20 2122   3.266   4.059   7.904 -0.0359 -0.0222  0.5322
   29CHL1   H20 2123   3.188   4.135   7.926 -0.7805 -0.6861  0.2139
   29CHL1   C21 2124   3.396   4.110   7.951 -0.2255 -0.1358 -0.5274
   29CHL1  H21A 2125   3.450   4.183   7.886  0.5148 -1.5266 -1.5302
   29CHL1  H21B 2126   3.470   4.028   7.939  0.6218  0.4795  0.2704
   29CHL1  H21C 2127   3.396   4.151   8.054 -0.8180  2.8084 -1.5796
   29CHL1   C22 2128   3.226   3.946   8.002  0.3235  0.3184 -0.2730
   29CHL1  H22A 2129   3.139   3.888   7.965 -1.3245  2.5012  0.0196
   29CHL1  H22B 2130   3.312   3.878   8.024 -0.2726  0.3048  2.4655
   29CHL1   C23 2131   3.178   3.994   8.138  0.3005  0.3159 -0.0908
   29CHL1  H23A 2132   3.259   4.054   8.184  0.6682  0.6030 -1.0763
   29CHL1  H23B 2133   3.100   4.072   8.124  1.6429  1.4594 -1.5157
   29CHL1   C24 2134   3.129   3.884   8.227  0.1249 -0.2458 -0.4175
   29CHL1  H24A 2135   3.040   3.825   8.194  0.9731 -0.0403 -3.4000
   29CHL1  H24B 2136   3.208   3.813   8.259 -0.0205 -1.5605 -2.7364
   29CHL1   C25 2137   3.097   3.933   8.367  0.9277  0.3853 -0.4202
   29CHL1   H25 2138   3.019   4.011   8.357 -0.9285 -1.1175  1.3859
   29CHL1   C26 2139   3.031   3.827   8.462 -0.5517  0.1875 -0.2959
   29CHL1  H26A 2140   2.989   3.871   8.555 -1.7905  0.0747 -0.7811
   29CHL1  H26B 2141   2.948   3.777   8.407 -0.9293 -0.8770  1.1728
   29CHL1  H26C 2142   3.104   3.746   8.483 -1.1499 -0.6284 -1.2839
   29CHL1   C27 2143   3.217   3.996   8.439  0.3240 -0.2937  0.4429
   29CHL1  H27A 2144   3.302   3.924   8.438  1.2366  0.7246  1.7796
   29CHL1  H27B 2145   3.254   4.085   8.384  0.7052 -0.9571 -0.4130
   29CHL1  H27C 2146   3.182   4.026   8.540 -2.7148  1.9966 -1.1216
   30CHL1    C3 2147   3.400   2.399   7.441 -0.3611  0.2145 -0.5438
   30CHL1    H3 2148   3.341   2.307   7.462 -0.4802 -0.1386 -2.2660
   30CHL1    O3 2149   3.409   2.414   7.302  0.3897  0.5016  0.1088
   30CHL1   H3' 2150   3.421   2.508   7.286 -0.8527  1.1021  2.2159
   30CHL1    C4 2151   3.321   2.520   7.497 -0.4532  0.0864 -0.7114
   30CHL1   H4A 2152   3.388   2.606   7.480  0.6506 -0.8246 -1.1211
   30CHL1   H4B 2153   3.225   2.535   7.442 -0.9617  0.0416  0.1357
   30CHL1    C5 2154   3.299   2.514   7.649 -0.0168 -0.4435 -0.0625
   30CHL1    C6 2155   3.172   2.514   7.701 -0.0816  0.1605  0.1451
   30CHL1    H6 2156   3.088   2.526   7.632 -0.1826  0.6697  0.3529
   30CHL1    C7 2157   3.140   2.499   7.847 -0.4901  0.0708 -0.6352
   30CHL1   H7A 2158   3.061   2.568   7.883 -2.8383 -3.1948  0.9840
   30CHL1   H7B 2159   3.108   2.396   7.871  1.6558 -0.9564 -1.8396
   30CHL1    C8 2160   3.269   2.516   7.938 -0.3684  0.3734  0.1794
   30CHL1    H8 2161   3.296   2.624   7.946  2.1356 -0.2885  1.6018
   30CHL1   C14 2162   3.248   2.468   8.087 -0.1500 -0.0684 -0.2831
   30CHL1   H14 2163   3.220   2.361   8.077 -0.8957  0.1178 -0.2442
   30CHL1   C15 2164   3.122   2.512   8.166  0.5170  0.1944  0.0146
   30CHL1  H15A 2165   3.122   2.622   8.180 -1.9608 -0.0612  2.8669
   30CHL1  H15B 2166   3.027   2.493   8.112 -0.6364  2.4844  1.1190
   30CHL1   C16 2167   3.148   2.451   8.302  0.8607 -0.5291  0.3809
   30CHL1  H16A 2168   3.121   2.524   8.381 -0.6678 -0.2620 -0.3427
   30CHL1  H16B 2169   3.082   2.361   8.311  0.1162  0.1494  2.0156
   30CHL1   C17 2170   3.297   2.402   8.311  0.6319  0.6852 -0.7384
   30CHL1   H17 2171   3.288   2.297   8.275 -1.4055  0.6890 -0.3817
   30CHL1   C13 2172   3.362   2.468   8.183 -0.0161 -0.8871  0.2717
   30CHL1   C18 2173   3.412   2.614   8.219 -0.4833 -0.2899  0.5011
   30CHL1  H18A 2174   3.517   2.618   8.255  0.2227  2.0870 -1.5378
   30CHL1  H18B 2175   3.408   2.678   8.129 -0.5209 -0.7563  0.1649
   30CHL1  H18C 2176   3.346   2.661   8.295  1.1192 -0.3962  2.0337
   30CHL1   C12 2177   3.476   2.387   8.118 -0.2853  0.5655  0.2984
   30CHL1  H12A 2178   3.573   2.385   8.172 -0.2659 -4.1747  0.5223
   30CHL1  H12B 2179   3.452   2.279   8.105  0.1957  0.4658  0.2275
   30CHL1   C11 2180   3.516   2.430   7.972  0.8248  0.0415 -0.0867
   30CHL1  H11A 2181   3.566   2.528   7.985  0.2292  0.2596  0.5845
   30CHL1  H11B 2182   3.593   2.365   7.924  0.2919  0.1697 -1.1374
   30CHL1    C9 2183   3.397   2.443   7.873  0.4605  0.8317 -0.7392
   30CHL1    H9 2184   3.361   2.340   7.856  1.5701  0.6516 -2.1816
   30CHL1   C10 2185   3.429   2.492   7.726 -0.1205  1.0097 -0.1442
   30CHL1   C19 2186   3.504   2.628   7.730 -0.1780  0.3633 -0.3998
   30CHL1  H19A 2187   3.450   2.699   7.796  0.4945 -1.4846  2.3311
   30CHL1  H19B 2188   3.596   2.633   7.793 -0.2330 -0.8028 -0.2011
   30CHL1  H19C 2189   3.533   2.668   7.631  1.6070 -0.1288 -0.1165
   30CHL1    C1 2190   3.528   2.388   7.654 -0.0159 -0.5040 -0.0933
   30CHL1   H1A 2191   3.627   2.413   7.698 -0.3922 -0.7955  0.9617
   30CHL1   H1B 2192   3.498   2.286   7.685 -1.2088 -1.3905 -3.6261
   30CHL1    C2 2193   3.533   2.393   7.501 -0.1235 -0.5571 -0.4836
   30CHL1   H2A 2194   3.581   2.301   7.460 -0.1172 -1.1089  0.7289
   30CHL1   H2B 2195   3.597   2.479   7.471  1.4134 -1.7119 -0.6560
   30CHL1   C20 2196   3.355   2.416   8.448 -1.0075  0.7793  0.1351
   30CHL1   H20 2197   3.355   2.521   8.483  1.1326  0.6442  0.6570
   30CHL1   C21 2198   3.500   2.367   8.465  0.1054  0.4577  0.5851
   30CHL1  H21A 2199   3.545   2.398   8.562  2.0101  1.8674 -0.6963
   30CHL1  H21B 2200   3.571   2.417   8.396  0.1205 -0.2385  0.0960
   30CHL1  H21C 2201   3.504   2.257   8.450  0.0265  0.4933  0.2975
   30CHL1   C22 2202   3.273   2.339   8.556 -0.9449 -0.5318 -0.1038
   30CHL1  H22A 2203   3.172   2.383   8.572  0.1841  1.9577  0.7363
   30CHL1  H22B 2204   3.258   2.234   8.524  1.3289 -0.8359 -0.2953
   30CHL1   C23 2205   3.342   2.347   8.692 -1.0446 -0.1686  0.0314
   30CHL1  H23A 2206   3.427   2.276   8.702 -1.0239 -0.2590 -0.7340
   30CHL1  H23B 2207   3.386   2.449   8.684 -0.6644 -0.4525 -1.8109
   30CHL1   C24 2208   3.236   2.344   8.806  0.1223 -0.6842  0.3132
   30CHL1  H24A 2209   3.155   2.278   8.769  1.8191 -1.4803 -2.1889
   30CHL1  H24B 2210   3.277   2.293   8.896  0.2624  0.0685  0.6857
   30CHL1   C25 2211   3.175   2.483   8.828 -0.5719 -1.0282 -0.0069
   30CHL1   H25 2212   3.125   2.518   8.735  0.1902 -0.1450 -0.1010
   30CHL1   C26 2213   3.057   2.489   8.919  0.1573 -0.4553  0.0791
   30CHL1  H26A 2214   3.091   2.454   9.019 -0.2629 -0.0482  0.3696
   30CHL1  H26B 2215   3.014   2.589   8.943 -0.6301 -0.8559  0.3787
   30CHL1  H26C 2216   2.969   2.433   8.881  0.3535 -0.6316 -0.1165
   30CHL1   C27 2217   3.274   2.592   8.872  0.3942  0.0931 -1.1509
   30CHL1  H27A 2218   3.353   2.542   8.932 -0.2975  1.1889  0.7381
   30CHL1  H27B 2219   3.307   2.639   8.776 -1.9842  2.1744 -1.0534
   30CHL1  H27C 2220   3.229   2.673   8.933 -0.1209 -1.1008  0.0974
   31CHL1    C3 2221   3.413   3.796   6.879 -0.2410 -0.0177  0.6798
   31CHL1    H3 2222   3.323   3.849   6.917  0.1725  0.8668  0.4717
   31CHL1    O3 2223   3.434   3.819   6.738 -0.1252  0.6195  0.2095
   31CHL1   H3' 2224   3.427   3.914   6.730 -0.3045  0.6129  0.2796
   31CHL1    C4 2225   3.538   3.860   6.944  0.0619  0.2697 -0.3631
   31CHL1   H4A 2226   3.624   3.806   6.899  0.1102 -1.3987  1.5692
   31CHL1   H4B 2227   3.549   3.970   6.928  1.3779  0.1861 -0.1501
   31CHL1    C5 2228   3.546   3.831   7.093  0.0522  0.0576  0.3925
   31CHL1    C6 2229   3.557   3.930   7.177  0.1278  0.2038 -0.5166
   31CHL1    H6 2230   3.559   4.034   7.144 -2.3274  1.2656  2.2220
   31CHL1    C7 2231   3.575   3.907   7.326 -0.2981 -0.3065 -0.6724
   31CHL1   H7A 2232   3.655   3.977   7.356 -2.0830  1.3702  0.3692
   31CHL1   H7B 2233   3.485   3.943   7.379 -0.3175 -3.1928  1.5196
   31CHL1    C8 2234   3.585   3.761   7.374  0.3853 -0.0163 -0.0672
   31CHL1    H8 2235   3.689   3.732   7.347 -0.3442 -3.2869  0.2336
   31CHL1   C14 2236   3.559   3.745   7.523 -1.0191  0.5055  0.1548
   31CHL1   H14 2237   3.453   3.774   7.537 -0.2228  2.9561  1.6805
   31CHL1   C15 2238   3.648   3.835   7.605  0.5299 -0.1838 -0.5070
   31CHL1  H15A 2239   3.744   3.826   7.550  0.3214 -0.7871 -0.7784
   31CHL1  H15B 2240   3.624   3.943   7.616  1.5687  0.0798 -0.6419
   31CHL1   C16 2241   3.656   3.770   7.743 -0.2570 -0.1902 -0.2127
   31CHL1  H16A 2242   3.764   3.768   7.769  0.4221  3.2197 -2.1572
   31CHL1  H16B 2243   3.616   3.833   7.826  2.5440  1.2696  0.1264
   31CHL1   C17 2244   3.569   3.637   7.724  0.0782  0.2127  0.3682
   31CHL1   H17 2245   3.462   3.658   7.742 -0.2902 -1.7643  0.6899
   31CHL1   C13 2246   3.582   3.604   7.573  0.5281 -0.0618 -0.3780
   31CHL1   C18 2247   3.721   3.549   7.547  0.1538  0.2657 -0.2736
   31CHL1  H18A 2248   3.808   3.608   7.586  2.0957 -1.5494 -1.6462
   31CHL1  H18B 2249   3.727   3.444   7.581  1.1567  0.2020 -0.5921
   31CHL1  H18C 2250   3.746   3.545   7.439  0.3416 -0.5424 -0.2024
   31CHL1   C12 2251   3.477   3.511   7.500 -0.7836  0.2919 -0.0989
   31CHL1  H12A 2252   3.494   3.405   7.531  1.2061  0.0680 -1.7212
   31CHL1  H12B 2253   3.375   3.546   7.524 -0.9681 -0.8311  0.8495
   31CHL1   C11 2254   3.494   3.524   7.349 -0.2718 -0.0714 -0.1845
   31CHL1  H11A 2255   3.596   3.483   7.330 -0.1108 -1.2629  2.6495
   31CHL1  H11B 2256   3.420   3.462   7.296  0.9218  0.4611 -2.6364
   31CHL1    C9 2257   3.498   3.670   7.293  0.5776 -0.1289  0.1707
   31CHL1    H9 2258   3.394   3.706   7.309  1.3986  1.9455  1.2491
   31CHL1   C10 2259   3.528   3.684   7.140  0.4388 -0.1282  0.8826
   31CHL1   C19 2260   3.661   3.615   7.103 -0.3689  0.5709 -0.2707
   31CHL1  H19A 2261   3.639   3.508   7.126  1.7360  0.1337 -0.0418
   31CHL1  H19B 2262   3.684   3.628   6.996  0.0714  0.6174 -0.1701
   31CHL1  H19C 2263   3.748   3.658   7.157  0.3208 -0.5941 -0.4230
   31CHL1    C1 2264   3.408   3.621   7.055 -0.6209  0.3004  0.1598
   31CHL1   H1A 2265   3.390   3.513   7.073 -0.6276  0.0297 -1.3808
   31CHL1   H1B 2266   3.314   3.659   7.101  0.6624  1.0761  2.3297
   31CHL1    C2 2267   3.413   3.649   6.906  0.2188  0.7739 -0.2046
   31CHL1   H2A 2268   3.325   3.601   6.858  0.7979 -1.0437  0.4839
   31CHL1   H2B 2269   3.497   3.599   6.853  0.2426  0.3931  0.1838
   31CHL1   C20 2270   3.614   3.541   7.828 -0.3266 -0.6090 -0.0081
   31CHL1   H20 2271   3.723   3.524   7.823  0.0455  1.1471  1.2068
   31CHL1   C21 2272   3.552   3.403   7.803 -0.1505 -0.2015  1.1039
   31CHL1  H21A 2273   3.586   3.335   7.885  3.0532 -0.8060 -0.5568
   31CHL1  H21B 2274   3.592   3.355   7.712 -1.7119  0.1303  0.2071
   31CHL1  H21C 2275   3.441   3.413   7.801 -0.1301  0.6435 -2.8237
   31CHL1   C22 2276   3.580   3.593   7.970  0.5277  0.1887 -0.4804
   31CHL1  H22A 2277   3.591   3.702   7.986 -1.1280  0.5402 -1.4122
   31CHL1  H22B 2278   3.470   3.594   7.988  0.5659  0.6712 -0.2688
   31CHL1   C23 2279   3.670   3.533   8.079  0.2856 -0.6247  1.1328
   31CHL1  H23A 2280   3.637   3.428   8.094  1.2025 -1.0292  0.3793
   31CHL1  H23B 2281   3.774   3.522   8.043  0.9615  0.9725  2.4419
   31CHL1   C24 2282   3.666   3.620   8.207 -0.1210 -0.1342 -0.2023
   31CHL1  H24A 2283   3.733   3.581   8.286  0.7869  1.5996 -0.0484
   31CHL1  H24B 2284   3.720   3.710   8.169 -0.4917 -0.5262 -1.7495
   31CHL1   C25 2285   3.526   3.641   8.272 -0.1733  0.5339  0.3945
   31CHL1   H25 2286   3.474   3.712   8.204  0.7177 -0.1865 -1.0969
   31CHL1   C26 2287   3.449   3.509   8.277  0.2699  0.3721 -0.6391
   31CHL1  H26A 2288   3.513   3.418   8.282 -0.7010 -0.3466 -0.9499
   31CHL1  H26B 2289   3.389   3.501   8.370  0.3442 -4.3854 -0.7132
   31CHL1  H26C 2290   3.384   3.499   8.187 -0.7676  2.1778 -0.1402
   31CHL1   C27 2291   3.546   3.691   8.410 -0.1528  0.4540  0.6177
   31CHL1  H27A 2292   3.453   3.713   8.468 -0.4293 -3.3029  1.8666
   31CHL1  H27B 2293   3.604   3.785   8.409  0.4328  0.1404  2.2313
   31CHL1  H27C 2294   3.609   3.618   8.465  1.4455  1.3268  0.0120
   32CHL1    C3 2295   3.382   1.655   7.250  0.5873 -0.0613 -1.3520
   32CHL1    H3 2296   3.376   1.557   7.303  1.8026  0.1018 -0.8795
   32CHL1    O3 2297   3.381   1.627   7.110 -0.5217  0.1123 -0.6343
   32CHL1   H3' 2298   3.308   1.677   7.075 -1.0694 -0.0039  0.3103
   32CHL1    C4 2299   3.266   1.749   7.285  0.4939  0.2174 -0.0595
   32CHL1   H4A 2300   3.294   1.836   7.222 -2.4424  0.6434 -0.9604
   32CHL1   H4B 2301   3.172   1.709   7.242 -1.1881 -2.2166  5.1062
   32CHL1    C5 2302   3.255   1.767   7.432 -0.6356  0.0690 -0.7464
   32CHL1    C6 2303   3.142   1.734   7.499 -0.1102 -0.1616 -0.0196
   32CHL1    H6 2304   3.056   1.697   7.441 -0.4386  0.1237  0.2849
   32CHL1    C7 2305   3.116   1.745   7.646 -0.3462  0.4413  0.1653
   32CHL1   H7A 2306   3.013   1.786   7.658 -0.5553  0.0693 -0.3027
   32CHL1   H7B 2307   3.117   1.645   7.695 -1.7017 -0.4587 -1.5325
   32CHL1    C8 2308   3.228   1.830   7.710 -0.4209  0.4683 -0.2843
   32CHL1    H8 2309   3.205   1.937   7.687  0.0059  0.4544 -0.8004
   32CHL1   C14 2310   3.223   1.809   7.860 -0.9112 -0.3249  0.3917
   32CHL1   H14 2311   3.250   1.703   7.878  0.7193  0.4157  2.8609
   32CHL1   C15 2312   3.089   1.834   7.933  0.5585  0.0947  0.7917
   32CHL1  H15A 2313   3.033   1.920   7.893  1.5586  1.0581  1.3993
   32CHL1  H15B 2314   3.028   1.741   7.935  1.1564 -0.3513 -0.5712
   32CHL1   C16 2315   3.127   1.858   8.078 -0.1647  0.3366 -0.2512
   32CHL1  H16A 2316   3.082   1.953   8.113 -0.0026  0.4768 -0.4175
   32CHL1  H16B 2317   3.087   1.780   8.146  1.0996 -0.1475 -0.0396
   32CHL1   C17 2318   3.280   1.865   8.090  0.0327 -0.5381  0.2708
   32CHL1   H17 2319   3.312   1.762   8.114  1.7071  0.2888  1.8232
   32CHL1   C13 2320   3.325   1.894   7.946 -0.3165  0.5656 -0.0769
   32CHL1   C18 2321   3.316   2.042   7.921  0.3460 -0.2946  0.1393
   32CHL1  H18A 2322   3.331   2.065   7.813  2.2849 -4.5595 -0.7268
   32CHL1  H18B 2323   3.225   2.093   7.958  1.3473  1.0310  0.8782
   32CHL1  H18C 2324   3.403   2.094   7.966  2.0445  0.1421 -3.2641
   32CHL1   C12 2325   3.465   1.843   7.892 -0.1889 -0.0955  0.9172
   32CHL1  H12A 2326   3.551   1.899   7.936  0.6317 -0.8046  0.2377
   32CHL1  H12B 2327   3.476   1.736   7.919 -1.4292 -0.1630  1.1975
   32CHL1   C11 2328   3.482   1.855   7.745  0.6392  0.2613  0.5300
   32CHL1  H11A 2329   3.496   1.961   7.715 -0.5324 -0.0993 -1.4201
   32CHL1  H11B 2330   3.579   1.808   7.717  0.0171  0.1037 -1.4940
   32CHL1    C9 2331   3.366   1.795   7.662 -0.4331  0.2442  0.6004
   32CHL1    H9 2332   3.373   1.685   7.677 -2.1424 -0.6769 -3.8094
   32CHL1   C10 2333   3.384   1.816   7.507 -0.9011  0.6171 -0.3069
   32CHL1   C19 2334   3.411   1.971   7.478 -0.2423  0.4222 -0.6293
   32CHL1  H19A 2335   3.335   2.036   7.527  0.4728 -0.1130  1.2593
   32CHL1  H19B 2336   3.506   1.999   7.529 -1.4336  0.0563  1.9533
   32CHL1  H19C 2337   3.413   1.988   7.368  2.6236 -0.6410 -0.8358
   32CHL1    C1 2338   3.515   1.732   7.453 -0.5917  0.0602  0.6173
   32CHL1   H1A 2339   3.608   1.779   7.492 -0.9530  0.6056  0.8349
   32CHL1   H1B 2340   3.501   1.628   7.490  0.1995 -0.4878 -0.5315
   32CHL1    C2 2341   3.519   1.714   7.302  0.5915 -0.2799  0.1782
   32CHL1   H2A 2342   3.596   1.638   7.278 -0.7294 -1.4811 -0.4694
   32CHL1   H2B 2343   3.542   1.804   7.241 -0.9594  0.2521  0.3356
   32CHL1   C20 2344   3.324   1.957   8.204 -0.1864 -0.9763  0.2420
   32CHL1   H20 2345   3.287   2.060   8.186  0.0347 -0.0877  4.0793
   32CHL1   C21 2346   3.478   1.953   8.223  0.4391 -0.6931 -0.6862
   32CHL1  H21A 2347   3.506   2.016   8.311  1.3814 -0.8110 -0.8981
   32CHL1  H21B 2348   3.534   1.994   8.136 -0.1134 -0.2368 -0.8407
   32CHL1  H21C 2349   3.527   1.854   8.234  0.8067 -0.6295 -1.6428
   32CHL1   C22 2350   3.249   1.917   8.344 -0.4806 -0.3400 -0.1478
   32CHL1  H22A 2351   3.262   2.003   8.413 -3.2816  0.8931 -1.0255
   32CHL1  H22B 2352   3.139   1.925   8.335 -0.3007  0.7357 -1.8306
   32CHL1   C23 2353   3.297   1.784   8.398 -0.2145  0.4030 -0.7613
   32CHL1  H23A 2354   3.272   1.696   8.334  1.4185 -0.4022 -0.3575
   32CHL1  H23B 2355   3.407   1.771   8.409 -0.3879 -2.2032 -1.4603
   32CHL1   C24 2356   3.238   1.772   8.542  0.1363 -0.4419 -0.5402
   32CHL1  H24A 2357   3.130   1.796   8.533  0.4659  0.6225 -1.9407
   32CHL1  H24B 2358   3.235   1.666   8.576 -0.2165 -0.5801 -0.9917
   32CHL1   C25 2359   3.304   1.854   8.653  0.1322  0.3746  0.2228
   32CHL1   H25 2360   3.282   1.957   8.618  0.7184  0.8691  1.2550
   32CHL1   C26 2361   3.231   1.822   8.784 -0.6516  0.6381  0.1300
   32CHL1  H26A 2362   3.239   1.908   8.855  2.4284  0.9660 -0.4662
   32CHL1  H26B 2363   3.124   1.796   8.772 -0.4434 -1.2176  1.7681
   32CHL1  H26C 2364   3.272   1.729   8.829  0.9538  1.3331  0.1993
   32CHL1   C27 2365   3.455   1.842   8.676 -0.5669 -0.0785 -0.0423
   32CHL1  H27A 2366   3.484   1.917   8.752  0.1649  0.3298 -0.7126
   32CHL1  H27B 2367   3.480   1.739   8.710 -1.5221 -0.8763 -1.6224
   32CHL1  H27C 2368   3.504   1.870   8.581 -1.8329 -1.0456 -1.0226
   33CHL1    C3 2369   4.367   2.899   6.944 -0.2369 -0.4500 -0.4425
   33CHL1    H3 2370   4.399   2.797   6.972  0.3815 -0.1546 -0.0607
   33CHL1    O3 2371   4.350   2.904   6.807 -0.0055 -0.0614 -0.4692
   33CHL1   H3' 2372   4.266   2.861   6.791 -0.5655  1.1715 -1.0156
   33CHL1    C4 2373   4.231   2.953   7.004 -0.5802  0.6550  0.0620
   33CHL1   H4A 2374   4.246   3.057   6.969 -0.7608  0.5695 -0.2807
   33CHL1   H4B 2375   4.136   2.907   6.969 -1.3439  2.5690 -0.4981
   33CHL1    C5 2376   4.240   2.948   7.152  0.3677 -0.5612  0.2935
   33CHL1    C6 2377   4.148   2.880   7.226  0.0906 -0.0947  0.5108
   33CHL1    H6 2378   4.064   2.823   7.182 -1.8849  1.0460  2.6063
   33CHL1    C7 2379   4.144   2.877   7.381 -0.2236 -0.2690  0.1077
   33CHL1   H7A 2380   4.040   2.891   7.419  0.0466  0.4762  0.5810
   33CHL1   H7B 2381   4.192   2.779   7.403 -0.5218 -0.1458  1.3615
   33CHL1    C8 2382   4.228   2.989   7.432 -0.2671 -0.3962  0.2212
   33CHL1    H8 2383   4.173   3.086   7.428 -0.3256 -0.4580 -0.4414
   33CHL1   C14 2384   4.261   2.958   7.577  0.7213 -0.1743 -0.4222
   33CHL1   H14 2385   4.317   2.863   7.566  1.1668  0.3108 -3.1607
   33CHL1   C15 2386   4.135   2.928   7.663  0.0946  0.2444  0.3534
   33CHL1  H15A 2387   4.061   3.010   7.655  0.4073  0.3527 -2.4589
   33CHL1  H15B 2388   4.077   2.837   7.636  0.4838 -0.5436  2.0486
   33CHL1   C16 2389   4.198   2.926   7.805  0.3104 -0.2353 -0.6321
   33CHL1  H16A 2390   4.146   3.011   7.855  2.2936  0.7384 -0.1380
   33CHL1  H16B 2391   4.173   2.828   7.851  1.0448 -0.2748 -0.3023
   33CHL1   C17 2392   4.349   2.959   7.792  0.2436  0.0054  0.6815
   33CHL1   H17 2393   4.393   2.858   7.774 -0.0868  0.0204 -0.2567
   33CHL1   C13 2394   4.364   3.044   7.657  0.9727 -0.6260 -0.0032
   33CHL1   C18 2395   4.303   3.186   7.684  0.6545 -0.4675 -0.2196
   33CHL1  H18A 2396   4.207   3.184   7.739  0.5973  0.7296 -0.2379
   33CHL1  H18B 2397   4.378   3.259   7.723 -0.6833  1.8109 -1.6600
   33CHL1  H18C 2398   4.268   3.224   7.586 -2.8286 -2.4221  0.1214
   33CHL1   C12 2399   4.493   3.057   7.583  0.3686 -0.0572  0.4553
   33CHL1  H12A 2400   4.550   3.136   7.638  1.5832 -0.3711 -0.3120
   33CHL1  H12B 2401   4.550   2.962   7.576  1.5883  0.6536  0.4728
   33CHL1   C11 2402   4.462   3.100   7.442  0.3731 -0.7814  0.5816
   33CHL1  H11A 2403   4.420   3.202   7.448  1.4605 -0.2611 -0.3511
   33CHL1  H11B 2404   4.558   3.124   7.391 -0.6232 -1.2254 -1.6044
   33CHL1    C9 2405   4.360   3.008   7.366 -1.2163 -0.0171  0.8366
   33CHL1    H9 2406   4.403   2.906   7.374 -1.5485 -0.2963 -0.5696
   33CHL1   C10 2407   4.355   3.033   7.213  0.2512  0.0047 -0.6994
   33CHL1   C19 2408   4.307   3.180   7.192 -0.5335  0.1683  0.0535
   33CHL1  H19A 2409   4.301   3.213   7.086  1.3508  1.0114  0.1676
   33CHL1  H19B 2410   4.211   3.202   7.243 -0.0363  0.0228  1.0598
   33CHL1  H19C 2411   4.395   3.239   7.226  0.0922 -0.5148 -0.3453
   33CHL1    C1 2412   4.489   2.997   7.151 -0.1601  0.2572  0.2771
   33CHL1   H1A 2413   4.573   3.063   7.182 -0.5996 -0.2263  2.6497
   33CHL1   H1B 2414   4.526   2.897   7.180 -1.7791 -0.8743 -1.3048
   33CHL1    C2 2415   4.483   2.998   7.002  0.1681 -0.2080 -0.0747
   33CHL1   H2A 2416   4.580   2.960   6.964 -0.0391 -1.5012  0.6269
   33CHL1   H2B 2417   4.464   3.096   6.953 -1.5211 -0.4871 -0.0368
   33CHL1   C20 2418   4.429   3.014   7.907  0.7344 -0.2235  0.4607
   33CHL1   H20 2419   4.415   3.124   7.900 -2.2751 -0.6091 -2.1063
   33CHL1   C21 2420   4.572   2.964   7.898  0.3168 -0.0392 -0.1433
   33CHL1  H21A 2421   4.569   2.855   7.916 -1.1871 -0.0549 -0.3867
   33CHL1  H21B 2422   4.650   3.004   7.966  0.8361  0.2003 -0.8655
   33CHL1  H21C 2423   4.615   2.989   7.798  0.2121  0.9320  0.0435
   33CHL1   C22 2424   4.374   2.982   8.044  0.0441 -0.8574  0.1718
   33CHL1  H22A 2425   4.265   3.003   8.047 -0.1808 -1.8103 -0.6491
   33CHL1  H22B 2426   4.381   2.872   8.058 -0.3546 -0.8706  0.2828
   33CHL1   C23 2427   4.437   3.052   8.166  0.0671 -0.3717  0.6179
   33CHL1  H23A 2428   4.530   2.994   8.181  0.1699 -0.1100  0.9982
   33CHL1  H23B 2429   4.452   3.160   8.142  0.6893 -0.6433 -0.2872
   33CHL1   C24 2430   4.345   3.035   8.288  0.1243 -0.0468 -0.5269
   33CHL1  H24A 2431   4.239   3.068   8.281 -0.0609  0.1858  2.3129
   33CHL1  H24B 2432   4.345   2.926   8.312  1.6176 -0.1369 -0.8224
   33CHL1   C25 2433   4.388   3.105   8.417 -0.5139  0.4355  0.5683
   33CHL1   H25 2434   4.392   3.215   8.401  1.5640  0.1528 -1.5652
   33CHL1   C26 2435   4.288   3.074   8.525  0.5518  0.4178  0.4871
   33CHL1  H26A 2436   4.198   3.135   8.504  1.6189  0.6636 -4.6925
   33CHL1  H26B 2437   4.265   2.967   8.544  1.7538  0.4767  2.6075
   33CHL1  H26C 2438   4.328   3.118   8.620 -3.1733  2.8355  1.1296
   33CHL1   C27 2439   4.528   3.050   8.462 -0.4524 -0.5249 -0.1480
   33CHL1  H27A 2440   4.513   2.946   8.498 -0.5712 -0.3140  0.4299
   33CHL1  H27B 2441   4.600   3.055   8.378 -1.3178  1.9577 -0.8227
   33CHL1  H27C 2442   4.563   3.109   8.550 -2.9051 -0.7120  1.0529
   34CHL1    C3 2443   4.228   0.485   7.369 -0.6345 -0.0567 -0.6162
   34CHL1    H3 2444   4.121   0.515   7.366 -0.2626  1.3280 -0.7322
   34CHL1    O3 2445   4.268   0.423   7.254  0.0316 -0.6557 -0.2093
   34CHL1   H3' 2446   4.192   0.385   7.209 -0.9005  3.5673 -2.8180
   34CHL1    C4 2447   4.305   0.616   7.401  0.3041  0.0579 -0.2339
   34CHL1   H4A 2448   4.413   0.594   7.388  0.2695  0.2583 -0.8838
   34CHL1   H4B 2449   4.274   0.689   7.323  1.5281  0.1003 -0.7059
   34CHL1    C5 2450   4.278   0.671   7.543 -0.5385  0.3482  0.4995
   34CHL1    C6 2451   4.228   0.792   7.561  0.3273 -0.1913  0.0549
   34CHL1    H6 2452   4.211   0.856   7.473 -2.1568  2.3496  2.2050
   34CHL1    C7 2453   4.218   0.853   7.699  0.9063  0.5518  0.8579
   34CHL1   H7A 2454   4.253   0.958   7.703 -1.9122  1.5457  1.9241
   34CHL1   H7B 2455   4.112   0.855   7.731  0.7184 -1.3517  0.4914
   34CHL1    C8 2456   4.293   0.774   7.811  0.4280 -0.2692  0.1915
   34CHL1    H8 2457   4.403   0.784   7.800  0.4884 -0.1980  0.8347
   34CHL1   C14 2458   4.240   0.809   7.951 -0.7901 -0.6096 -0.3443
   34CHL1   H14 2459   4.130   0.795   7.952 -1.1520  1.8301 -0.0375
   34CHL1   C15 2460   4.258   0.960   7.991 -0.0050  0.1149  0.2240
   34CHL1  H15A 2461   4.356   1.006   7.966 -0.5834  0.7982 -0.8590
   34CHL1  H15B 2462   4.189   1.023   7.931  1.5327  0.9563 -0.7327
   34CHL1   C16 2463   4.237   0.970   8.138  0.5070 -0.1027  0.2014
   34CHL1  H16A 2464   4.336   0.999   8.177  1.0219 -1.6740  0.1191
   34CHL1  H16B 2465   4.152   1.033   8.173 -1.2950 -2.2571 -0.0396
   34CHL1   C17 2466   4.221   0.814   8.180  0.7600 -0.1343 -0.1640
   34CHL1   H17 2467   4.114   0.783   8.180  0.3345  1.2166  0.7230
   34CHL1   C13 2468   4.291   0.730   8.064 -0.3701 -0.3014 -0.1236
   34CHL1   C18 2469   4.446   0.749   8.066 -0.2068  0.1393  0.3695
   34CHL1  H18A 2470   4.505   0.715   7.979 -2.4336  0.5559 -1.3891
   34CHL1  H18B 2471   4.476   0.851   8.098 -0.7317 -0.2199  2.1186
   34CHL1  H18C 2472   4.492   0.688   8.147 -1.1657 -0.9544  0.1237
   34CHL1   C12 2473   4.246   0.577   8.050  0.1948  0.0415  0.1229
   34CHL1  H12A 2474   4.290   0.518   8.133 -0.6357 -0.1583  0.4247
   34CHL1  H12B 2475   4.137   0.560   8.058 -0.2127  1.3977 -1.7446
   34CHL1   C11 2476   4.313   0.534   7.918 -0.8392 -0.1568 -0.7007
   34CHL1  H11A 2477   4.424   0.537   7.925 -0.8061 -0.2251 -1.1497
   34CHL1  H11B 2478   4.291   0.427   7.900 -0.9154 -0.2080 -0.3137
   34CHL1    C9 2479   4.264   0.624   7.794  0.7745 -0.4115  0.3218
   34CHL1    H9 2480   4.153   0.617   7.796  0.6023  1.7245  0.7725
   34CHL1   C10 2481   4.306   0.566   7.655  0.1613  0.2033 -0.0953
   34CHL1   C19 2482   4.450   0.516   7.661 -0.6698 -0.2279  0.3622
   34CHL1  H19A 2483   4.518   0.596   7.696 -0.6830 -0.2854  0.5166
   34CHL1  H19B 2484   4.468   0.424   7.721  3.1909  1.2615  1.7482
   34CHL1  H19C 2485   4.489   0.499   7.558 -0.7888 -0.1084  0.2971
   34CHL1    C1 2486   4.214   0.448   7.620  0.2043  0.8171 -0.4713
   34CHL1   H1A 2487   4.225   0.383   7.709 -2.4462 -0.1426 -0.7505
   34CHL1   H1B 2488   4.109   0.477   7.640  0.6643  1.9423  0.3930
   34CHL1    C2 2489   4.249   0.388   7.484  0.9182 -0.2324 -0.0882
   34CHL1   H2A 2490   4.180   0.302   7.469  0.1463  0.4663 -0.5773
   34CHL1   H2B 2491   4.355   0.356   7.475  0.7324 -0.8131 -0.3033
   34CHL1   C20 2492   4.281   0.797   8.320 -0.7756  0.0198  0.4401
   34CHL1   H20 2493   4.387   0.829   8.317 -0.7076 -0.2519 -0.5161
   34CHL1   C21 2494   4.277   0.640   8.356 -0.2975  0.5755  0.3654
   34CHL1  H21A 2495   4.318   0.622   8.458  0.8135  1.8496  0.1659
   34CHL1  H21B 2496   4.349   0.582   8.295 -1.1371  0.8955 -0.9593
   34CHL1  H21C 2497   4.175   0.598   8.345 -0.2653  0.5826  0.0236
   34CHL1   C22 2498   4.210   0.870   8.432  0.3284 -0.0449 -0.6413
   34CHL1  H22A 2499   4.251   0.842   8.532 -1.8243 -1.3246 -0.0563
   34CHL1  H22B 2500   4.223   0.980   8.429 -2.6578  0.3684 -1.6144
   34CHL1   C23 2501   4.057   0.860   8.443  0.2645 -0.4701 -0.3794
   34CHL1  H23A 2502   3.997   0.870   8.351 -0.2130 -1.3735 -0.1685
   34CHL1  H23B 2503   4.029   0.754   8.458 -1.5381  0.0700  0.2804
   34CHL1   C24 2504   3.997   0.945   8.556 -0.5573  1.8603 -0.1875
   34CHL1  H24A 2505   4.034   0.908   8.654  2.6655 -0.6472 -2.1282
   34CHL1  H24B 2506   4.024   1.053   8.555  1.0536  1.5408  1.6359
   34CHL1   C25 2507   3.845   0.937   8.554  0.1259  0.0572 -0.6171
   34CHL1   H25 2508   3.809   0.956   8.451  0.6495 -1.3056 -1.0854
   34CHL1   C26 2509   3.783   0.802   8.591  0.8384  0.6205 -0.2635
   34CHL1  H26A 2510   3.774   0.796   8.701  0.0592  2.0268 -0.2328
   34CHL1  H26B 2511   3.677   0.805   8.559  0.3285 -1.9071  0.9539
   34CHL1  H26C 2512   3.831   0.706   8.561  0.1931 -0.4326  1.8900
   34CHL1   C27 2513   3.777   1.041   8.641 -0.7711  0.4053 -0.3199
   34CHL1  H27A 2514   3.811   1.052   8.746  1.6177  4.2578 -1.2804
   34CHL1  H27B 2515   3.815   1.138   8.602  1.7658  0.1490  1.3078
   34CHL1  H27C 2516   3.666   1.033   8.637 -0.6196 -2.1934 -1.5487
   35CHL1    C3 2517   1.704   1.395   7.654 -0.2184  0.5572  0.1165
   35CHL1    H3 2518   1.796   1.455   7.675 -1.9955  3.5716 -0.1253
   35CHL1    O3 2519   1.683   1.403   7.516 -0.5833 -0.1941  0.1982
   35CHL1   H3' 2520   1.592   1.377   7.502 -1.4350  1.6832  1.8226
   35CHL1    C4 2521   1.738   1.249   7.703 -0.6790  0.6019  0.0893
   35CHL1   H4A 2522   1.659   1.178   7.668  1.7334 -1.8555 -0.7612
   35CHL1   H4B 2523   1.835   1.214   7.661 -0.6509 -1.4407  1.7049
   35CHL1    C5 2524   1.757   1.231   7.860  0.3150 -0.3596  0.8178
   35CHL1    C6 2525   1.860   1.182   7.927 -0.1249 -0.4114  0.5308
   35CHL1    H6 2526   1.942   1.137   7.869 -0.1122 -0.6638  0.7370
   35CHL1    C7 2527   1.875   1.156   8.072 -0.0322  0.3239  0.5163
   35CHL1   H7A 2528   1.902   1.049   8.074  0.7589  0.5205  0.6926
   35CHL1   H7B 2529   1.966   1.211   8.105  2.4776 -3.1317 -0.0235
   35CHL1    C8 2530   1.745   1.187   8.144  0.0216  0.3992  0.1940
   35CHL1    H8 2531   1.680   1.098   8.127  2.9689 -1.8896  0.2059
   35CHL1   C14 2532   1.775   1.195   8.292  0.1836 -0.1289 -0.8860
   35CHL1   H14 2533   1.819   1.294   8.321 -1.0152 -0.0045  0.6749
   35CHL1   C15 2534   1.864   1.086   8.353 -0.0300 -0.3554  1.0006
   35CHL1  H15A 2535   1.851   0.989   8.300  2.7327  0.8736 -2.2739
   35CHL1  H15B 2536   1.968   1.123   8.340 -0.5806  0.5748 -1.2173
   35CHL1   C16 2537   1.820   1.087   8.504 -0.3244  0.0262 -0.0805
   35CHL1  H16A 2538   1.786   0.982   8.522 -1.0137  0.1845 -0.4523
   35CHL1  H16B 2539   1.901   1.108   8.577 -0.4242 -0.9601  0.3381
   35CHL1   C17 2540   1.708   1.187   8.519  0.1733 -0.1229 -0.0981
   35CHL1   H17 2541   1.758   1.283   8.542  0.1794  0.5386 -2.5874
   35CHL1   C13 2542   1.643   1.200   8.377  0.1635  0.2157  0.4534
   35CHL1   C18 2543   1.550   1.075   8.359 -0.4432  0.2679  0.0328
   35CHL1  H18A 2544   1.523   1.049   8.255 -1.9513 -2.1203  0.9371
   35CHL1  H18B 2545   1.608   0.986   8.389  0.5702  1.2246  1.0509
   35CHL1  H18C 2546   1.451   1.091   8.408 -0.3283  1.0838  0.0168
   35CHL1   C12 2547   1.568   1.328   8.341  0.6524 -0.0602  0.0032
   35CHL1  H12A 2548   1.469   1.330   8.392  0.4286 -0.9194 -0.3846
   35CHL1  H12B 2549   1.615   1.422   8.377  0.4264  0.4506 -1.0061
   35CHL1   C11 2550   1.550   1.332   8.186  0.3544 -0.6607  0.0289
   35CHL1  H11A 2551   1.483   1.244   8.170  0.1096 -0.8792  2.0673
   35CHL1  H11B 2552   1.502   1.427   8.155  3.5434  1.5449  1.3868
   35CHL1    C9 2553   1.669   1.306   8.095  0.7492 -0.7092  0.7366
   35CHL1    H9 2554   1.726   1.400   8.113  0.6468 -0.4164 -0.3659
   35CHL1   C10 2555   1.638   1.298   7.937 -0.0719 -0.8089 -1.2351
   35CHL1   C19 2556   1.523   1.204   7.906  0.1447  0.5788 -0.3768
   35CHL1  H19A 2557   1.547   1.103   7.946  0.6743  0.7564 -0.2423
   35CHL1  H19B 2558   1.425   1.235   7.949  0.6631 -0.8218  2.0055
   35CHL1  H19C 2559   1.508   1.192   7.797  0.9911 -0.4118 -0.3988
   35CHL1    C1 2560   1.599   1.438   7.881 -0.6925 -0.2329 -0.7503
   35CHL1   H1A 2561   1.500   1.471   7.919 -1.2352  0.4636 -2.6540
   35CHL1   H1B 2562   1.673   1.507   7.927 -0.8806  1.6911 -3.1219
   35CHL1    C2 2563   1.581   1.447   7.730  0.0344 -0.1148  0.0986
   35CHL1   H2A 2564   1.573   1.553   7.698  0.9332  0.5798  1.9955
   35CHL1   H2B 2565   1.489   1.399   7.692 -1.4214  1.3143  1.6366
   35CHL1   C20 2566   1.622   1.139   8.640 -0.1145 -0.3802 -0.3130
   35CHL1   H20 2567   1.581   1.038   8.621  2.0533 -1.7449  1.6454
   35CHL1   C21 2568   1.509   1.240   8.659  0.2505  0.4018  0.3528
   35CHL1  H21A 2569   1.469   1.245   8.763 -0.9423  0.7494 -0.1110
   35CHL1  H21B 2570   1.420   1.233   8.594  0.4416 -2.2942  0.2610
   35CHL1  H21C 2571   1.547   1.343   8.641  0.1639  0.5647  1.0532
   35CHL1   C22 2572   1.707   1.114   8.770  0.4775 -0.0465  0.4265
   35CHL1  H22A 2573   1.808   1.067   8.768  1.0589  1.1510  0.6426
   35CHL1  H22B 2574   1.723   1.220   8.802  2.1756 -0.1359 -0.0297
   35CHL1   C23 2575   1.635   1.044   8.883 -0.2929  0.4434 -0.8633
   35CHL1  H23A 2576   1.538   1.094   8.905  0.4938  0.9282  1.7832
   35CHL1  H23B 2577   1.620   0.936   8.863  0.1959  0.1516  0.2959
   35CHL1   C24 2578   1.715   1.059   9.018 -0.4300 -0.2299 -0.4672
   35CHL1  H24A 2579   1.821   1.027   9.018 -0.3166  0.1320  0.2883
   35CHL1  H24B 2580   1.718   1.167   9.040 -1.1811 -0.5500  1.3595
   35CHL1   C25 2581   1.654   0.987   9.140  0.3760  0.5323 -0.5833
   35CHL1   H25 2582   1.549   1.020   9.157  0.1411 -1.0615  1.5947
   35CHL1   C26 2583   1.647   0.838   9.128 -0.0244  0.1218 -0.3444
   35CHL1  H26A 2584   1.588   0.830   9.034 -1.6090  0.1883  0.6104
   35CHL1  H26B 2585   1.745   0.786   9.124  0.0857 -0.1924  3.2781
   35CHL1  H26C 2586   1.592   0.785   9.209  1.3559  1.4769  1.5902
   35CHL1   C27 2587   1.738   1.025   9.267  0.3280  0.3961 -0.3916
   35CHL1  H27A 2588   1.841   0.986   9.255 -0.2920 -1.4233 -0.0021
   35CHL1  H27B 2589   1.690   0.982   9.357  0.0064 -0.8130 -1.1314
   35CHL1  H27C 2590   1.748   1.135   9.281 -0.9276  0.3377  1.2400
   36CHL1    C3 2591   2.164   0.685   7.336  0.7132  0.9295 -0.1562
   36CHL1    H3 2592   2.077   0.751   7.358  0.3700  0.5318 -0.3210
   36CHL1    O3 2593   2.169   0.659   7.197 -0.2902  0.0750  0.1125
   36CHL1   H3' 2594   2.092   0.614   7.161 -0.5808  2.4449 -2.6334
   36CHL1    C4 2595   2.290   0.768   7.358 -0.1196  0.1163  0.3932
   36CHL1   H4A 2596   2.381   0.714   7.323 -1.1302 -0.6089 -1.2299
   36CHL1   H4B 2597   2.283   0.863   7.301 -2.6548  0.2022  0.7691
   36CHL1    C5 2598   2.299   0.801   7.508  0.3386  0.5134 -0.8905
   36CHL1    C6 2599   2.299   0.930   7.551  0.0655  0.2396 -0.2528
   36CHL1    H6 2600   2.290   1.010   7.475  0.1837 -0.2643 -0.8018
   36CHL1    C7 2601   2.295   0.963   7.697  0.7628 -0.4437 -0.7079
   36CHL1   H7A 2602   2.367   1.042   7.728 -0.0727 -0.2154  0.7251
   36CHL1   H7B 2603   2.195   1.007   7.720  0.6645 -0.5957 -0.8483
   36CHL1    C8 2604   2.325   0.854   7.793 -0.3724  0.6106 -0.1887
   36CHL1    H8 2605   2.435   0.853   7.808 -0.2882  0.2903 -0.8097
   36CHL1   C14 2606   2.281   0.884   7.944 -0.2852  0.0230 -1.0540
   36CHL1   H14 2607   2.172   0.864   7.947  0.1151 -2.3034 -0.0930
   36CHL1   C15 2608   2.299   1.020   7.999 -0.1279 -0.5862 -0.3242
   36CHL1  H15A 2609   2.404   1.049   7.974  0.6368 -1.5080  1.5980
   36CHL1  H15B 2610   2.230   1.104   7.974  0.4140 -0.0789 -0.1611
   36CHL1   C16 2611   2.277   0.993   8.152 -0.2878  0.6905 -1.0501
   36CHL1  H16A 2612   2.353   1.039   8.218 -0.7108 -0.6400  0.4272
   36CHL1  H16B 2613   2.180   1.038   8.185 -1.4468 -1.8435 -0.7155
   36CHL1   C17 2614   2.272   0.840   8.181  0.2898 -0.0851 -0.3879
   36CHL1   H17 2615   2.163   0.825   8.176  0.2348  0.2933 -0.3652
   36CHL1   C13 2616   2.336   0.784   8.052  0.1677  0.1532  0.1798
   36CHL1   C18 2617   2.491   0.782   8.065 -0.8962 -1.1386 -0.0835
   36CHL1  H18A 2618   2.523   0.888   8.077 -1.7303 -1.0870  2.1656
   36CHL1  H18B 2619   2.534   0.727   8.151  0.3536  0.2829  0.2350
   36CHL1  H18C 2620   2.534   0.737   7.973  1.3066 -0.4781  0.5500
   36CHL1   C12 2621   2.284   0.645   8.015  0.4064 -0.0369  0.6000
   36CHL1  H12A 2622   2.334   0.570   8.080 -2.9362 -1.7678  1.3676
   36CHL1  H12B 2623   2.175   0.640   8.032  0.6226  0.5752  2.2795
   36CHL1   C11 2624   2.321   0.607   7.866 -0.6220 -0.2784  0.0237
   36CHL1  H11A 2625   2.431   0.594   7.860 -0.6293  0.1139 -1.0127
   36CHL1  H11B 2626   2.263   0.519   7.832 -0.0156 -0.3325 -0.8889
   36CHL1    C9 2627   2.276   0.715   7.757  0.0579  0.3306 -0.3422
   36CHL1    H9 2628   2.166   0.728   7.767  0.1096  1.5279 -1.1470
   36CHL1   C10 2629   2.295   0.674   7.603  0.3951 -1.1214 -0.0587
   36CHL1   C19 2630   2.430   0.603   7.581  0.1193 -0.4613 -0.4216
   36CHL1  H19A 2631   2.509   0.658   7.636  1.6884 -1.2656 -1.7579
   36CHL1  H19B 2632   2.410   0.504   7.628 -2.1794 -0.3790 -1.0843
   36CHL1  H19C 2633   2.451   0.594   7.472  2.6527  0.2176 -0.0509
   36CHL1    C1 2634   2.179   0.579   7.570  0.5944 -0.4425  0.4318
   36CHL1   H1A 2635   2.193   0.485   7.627 -0.4882  0.0801  1.6254
   36CHL1   H1B 2636   2.081   0.625   7.594  0.6553 -0.0664 -0.0496
   36CHL1    C2 2637   2.160   0.558   7.420  0.4189 -0.0265 -0.2243
   36CHL1   H2A 2638   2.063   0.505   7.404  0.3970  0.6913 -2.8532
   36CHL1   H2B 2639   2.235   0.492   7.373 -0.0933 -0.7612 -0.0400
   36CHL1   C20 2640   2.317   0.798   8.326 -0.2058 -0.5685  0.3406
   36CHL1   H20 2641   2.423   0.828   8.340  0.0571 -1.2036 -0.2397
   36CHL1   C21 2642   2.278   0.645   8.341 -0.0138  0.5304 -0.4947
   36CHL1  H21A 2643   2.170   0.624   8.327 -0.8872  1.3877  3.7077
   36CHL1  H21B 2644   2.294   0.596   8.439 -1.8119  0.1435 -0.3563
   36CHL1  H21C 2645   2.337   0.583   8.270 -1.3270 -1.3825  0.0035
   36CHL1   C22 2646   2.241   0.875   8.433  1.1524 -0.2963  0.6335
   36CHL1  H22A 2647   2.275   0.980   8.425  1.0666 -0.3930 -1.6830
   36CHL1  H22B 2648   2.136   0.887   8.400  1.1820  1.8281  1.1448
   36CHL1   C23 2649   2.262   0.819   8.572  0.4856 -0.7323 -0.3310
   36CHL1  H23A 2650   2.198   0.729   8.588  1.4768 -0.9724  2.8638
   36CHL1  H23B 2651   2.370   0.793   8.571  0.9552  1.0517 -1.9725
   36CHL1   C24 2652   2.229   0.920   8.686  0.8681 -0.4504 -0.3270
   36CHL1  H24A 2653   2.304   1.002   8.686 -0.5695  0.9530  1.2461
   36CHL1  H24B 2654   2.125   0.953   8.664  0.9245 -1.5324 -2.4934
   36CHL1   C25 2655   2.222   0.856   8.829 -0.0477  0.6468  0.2313
   36CHL1   H25 2656   2.170   0.759   8.818  0.1095  0.5059  0.7338
   36CHL1   C26 2657   2.368   0.823   8.875  0.2903 -0.7760  0.1474
   36CHL1  H26A 2658   2.371   0.788   8.981  0.5092  0.8001  0.6931
   36CHL1  H26B 2659   2.413   0.745   8.810  0.1161  0.1356 -1.0946
   36CHL1  H26C 2660   2.430   0.915   8.874 -0.0560 -0.5412 -1.0568
   36CHL1   C27 2661   2.140   0.931   8.935 -0.2607 -0.4289  0.2346
   36CHL1  H27A 2662   2.160   0.900   9.039  1.5116 -1.1842 -0.2999
   36CHL1  H27B 2663   2.171   1.037   8.924  1.5332 -0.7712  1.6717
   36CHL1  H27C 2664   2.032   0.915   8.915  0.3189 -1.7455 -2.3567
   37CHL1    C3 2665   6.532   3.226   7.291 -0.2760 -0.0838  0.3720
   37CHL1    H3 2666   6.428   3.254   7.320 -0.0269  0.9372  0.3034
   37CHL1    O3 2667   6.531   3.194   7.154 -0.1212 -0.3507 -0.0269
   37CHL1   H3' 2668   6.616   3.155   7.133 -0.9004 -2.4940  0.5362
   37CHL1    C4 2669   6.627   3.341   7.313 -0.1115 -0.0313 -0.0276
   37CHL1   H4A 2670   6.728   3.308   7.280 -0.2329  0.0075 -0.4398
   37CHL1   H4B 2671   6.596   3.414   7.236  2.5902 -1.3465 -2.5379
   37CHL1    C5 2672   6.624   3.376   7.461 -0.2722 -0.0283 -0.0588
   37CHL1    C6 2673   6.592   3.504   7.504 -0.5032 -0.4310 -0.0018
   37CHL1    H6 2674   6.580   3.586   7.431 -0.6420  1.9432  2.5173
   37CHL1    C7 2675   6.575   3.551   7.641 -0.1294  0.3723  0.0226
   37CHL1   H7A 2676   6.623   3.650   7.652  0.4233  0.0634  0.4429
   37CHL1   H7B 2677   6.466   3.555   7.664 -0.3537 -0.6492 -0.7527
   37CHL1    C8 2678   6.636   3.451   7.741  0.2324 -0.5250  0.4290
   37CHL1    H8 2679   6.745   3.472   7.737 -0.0687  0.9350 -1.0506
   37CHL1   C14 2680   6.581   3.482   7.883 -0.2178  0.3750 -0.5792
   37CHL1   H14 2681   6.471   3.466   7.884  0.2000 -3.7073  1.3309
   37CHL1   C15 2682   6.580   3.629   7.931 -0.6109  0.1411  0.9340
   37CHL1  H15A 2683   6.681   3.666   7.905 -1.1049  1.3845  0.7142
   37CHL1  H15B 2684   6.507   3.693   7.876  1.6473  1.1196 -1.1203
   37CHL1   C16 2685   6.570   3.611   8.088 -0.1187 -0.5106  0.1836
   37CHL1  H16A 2686   6.666   3.654   8.123  0.7243 -1.0514 -1.3616
   37CHL1  H16B 2687   6.493   3.678   8.133  1.7001  0.9361  1.2973
   37CHL1   C17 2688   6.566   3.451   8.112 -0.3381 -0.1251 -0.0802
   37CHL1   H17 2689   6.457   3.433   8.117 -0.1032 -2.0155 -0.9233
   37CHL1   C13 2690   6.636   3.391   7.992 -0.2041 -0.4557  0.1519
   37CHL1   C18 2691   6.789   3.402   8.000  0.4578  0.3842  0.4632
   37CHL1  H18A 2692   6.828   3.466   8.082  1.9646  1.2468 -0.8515
   37CHL1  H18B 2693   6.827   3.302   8.030 -1.8279 -0.5064  0.5469
   37CHL1  H18C 2694   6.843   3.425   7.905 -1.0549  2.5796  0.0622
   37CHL1   C12 2695   6.595   3.245   7.959  0.4363 -1.0134  0.5437
   37CHL1  H12A 2696   6.621   3.162   8.029 -0.3332 -0.2651  1.7524
   37CHL1  H12B 2697   6.484   3.244   7.952  0.4791 -3.0770 -0.6675
   37CHL1   C11 2698   6.650   3.218   7.818 -0.2908  0.8403  0.2030
   37CHL1  H11A 2699   6.761   3.216   7.817 -0.2698 -0.4739  1.4554
   37CHL1  H11B 2700   6.620   3.112   7.802 -1.3728  1.1364  0.1712
   37CHL1    C9 2701   6.600   3.308   7.707  0.1363 -0.7468  0.2060
   37CHL1    H9 2702   6.490   3.296   7.708 -0.0459  0.4422 -1.1797
   37CHL1   C10 2703   6.637   3.262   7.566  0.3884 -0.3525  0.2983
   37CHL1   C19 2704   6.791   3.233   7.562 -0.1953 -0.1320 -0.6793
   37CHL1  H19A 2705   6.816   3.208   7.457 -1.1604 -1.1510 -0.6757
   37CHL1  H19B 2706   6.849   3.324   7.591  0.1581 -0.3050 -0.8363
   37CHL1  H19C 2707   6.818   3.146   7.626 -0.5049  0.0968 -0.2316
   37CHL1    C1 2708   6.558   3.135   7.525 -0.1729  0.2686 -0.4685
   37CHL1   H1A 2709   6.606   3.061   7.592 -0.7014  1.3158  1.1309
   37CHL1   H1B 2710   6.452   3.145   7.556  0.9887  2.5410  3.5049
   37CHL1    C2 2711   6.562   3.094   7.375 -0.3484 -0.1869 -0.0637
   37CHL1   H2A 2712   6.483   3.020   7.349  2.1334 -2.9199 -0.3416
   37CHL1   H2B 2713   6.655   3.050   7.334 -1.4387 -1.2759 -1.4408
   37CHL1   C20 2714   6.629   3.421   8.247 -0.4018  0.6742 -0.4764
   37CHL1   H20 2715   6.733   3.458   8.255 -0.7524  1.7328 -0.6697
   37CHL1   C21 2716   6.608   3.272   8.279 -0.2707  0.0444 -0.1440
   37CHL1  H21A 2717   6.660   3.207   8.206 -0.9898 -1.0978  0.3377
   37CHL1  H21B 2718   6.499   3.251   8.273 -0.1147 -0.8202 -0.1260
   37CHL1  H21C 2719   6.647   3.246   8.380  3.2797  3.2761 -0.4269
   37CHL1   C22 2720   6.562   3.498   8.361  0.2350 -0.5674  0.2275
   37CHL1  H22A 2721   6.547   3.603   8.329  4.6826 -0.0494 -0.7099
   37CHL1  H22B 2722   6.457   3.460   8.364  0.1655 -0.8601 -2.8425
   37CHL1   C23 2723   6.650   3.513   8.491  0.7713 -0.2552  0.2820
   37CHL1  H23A 2724   6.702   3.415   8.502  0.2292 -0.5447  0.2933
   37CHL1  H23B 2725   6.725   3.591   8.464  0.8082 -1.0616 -2.2591
   37CHL1   C24 2726   6.579   3.549   8.624  0.0620  0.3405  0.1106
   37CHL1  H24A 2727   6.655   3.578   8.699  1.3703  1.1559 -1.4534
   37CHL1  H24B 2728   6.524   3.644   8.608  1.6752  1.6273  1.7830
   37CHL1   C25 2729   6.478   3.445   8.674 -0.1120  0.2058  1.1926
   37CHL1   H25 2730   6.409   3.422   8.591  1.6830 -1.0048 -0.0369
   37CHL1   C26 2731   6.548   3.316   8.726  0.1145 -0.8057  0.2486
   37CHL1  H26A 2732   6.482   3.244   8.779  0.1887 -1.5297 -0.6052
   37CHL1  H26B 2733   6.584   3.271   8.631 -1.1864  1.3149 -1.3449
   37CHL1  H26C 2734   6.628   3.340   8.798 -0.7076 -0.1284  0.9569
   37CHL1   C27 2735   6.398   3.500   8.790 -0.2044  0.2571 -0.0796
   37CHL1  H27A 2736   6.314   3.440   8.831 -1.0258  1.6797  0.3802
   37CHL1  H27B 2737   6.466   3.525   8.874 -2.0318  3.1679  0.6845
   37CHL1  H27C 2738   6.349   3.594   8.757  0.7114  0.7409 -0.0739
   38CHL1    C3 2739   2.106   4.142   6.978 -0.5701  0.4639 -0.0631
   38CHL1    H3 2740   2.089   4.247   7.011 -2.8709  0.1044  0.0143
   38CHL1    O3 2741   2.111   4.147   6.834  0.1478 -0.7153 -0.0500
   38CHL1   H3' 2742   2.168   4.079   6.798 -1.2254 -0.5318 -2.7992
   38CHL1    C4 2743   2.246   4.090   7.030  0.7879 -0.2197 -0.5235
   38CHL1   H4A 2744   2.254   3.990   6.982  0.2325 -0.4828 -0.0720
   38CHL1   H4B 2745   2.323   4.161   6.993  0.4667  0.7876  0.6605
   38CHL1    C5 2746   2.243   4.077   7.181  0.2839 -0.4413 -0.0267
   38CHL1    C6 2747   2.335   4.148   7.250 -0.2167 -0.3979 -0.2411
   38CHL1    H6 2748   2.418   4.203   7.205 -0.0443  1.2920  1.9709
   38CHL1    C7 2749   2.335   4.146   7.398  0.5910 -0.0169  0.5395
   38CHL1   H7A 2750   2.437   4.157   7.440  0.5386 -0.8612  0.9153
   38CHL1   H7B 2751   2.278   4.233   7.436  1.2149  0.3784  0.5769
   38CHL1    C8 2752   2.262   4.017   7.454 -0.2864  0.0864  0.5981
   38CHL1    H8 2753   2.324   3.926   7.439 -0.4120  0.4038 -2.5530
   38CHL1   C14 2754   2.248   4.042   7.605  0.9068  0.3627  0.1800
   38CHL1   H14 2755   2.185   4.133   7.609  1.1467  0.7257 -2.3608
   38CHL1   C15 2756   2.368   4.065   7.697  0.2981  0.3191  0.4836
   38CHL1  H15A 2757   2.465   4.013   7.679  0.1769  0.2137  0.1243
   38CHL1  H15B 2758   2.405   4.170   7.697 -0.1874  0.4962  0.9220
   38CHL1   C16 2759   2.313   4.036   7.833  0.8983  0.3398 -0.2430
   38CHL1  H16A 2760   2.366   3.954   7.885  0.1135  0.7008  1.1914
   38CHL1  H16B 2761   2.321   4.120   7.906 -0.3075 -1.6150  2.2928
   38CHL1   C17 2762   2.160   3.991   7.822  0.2096  0.1141 -0.2564
   38CHL1   H17 2763   2.097   4.082   7.832 -1.2751 -0.8092 -0.8933
   38CHL1   C13 2764   2.153   3.938   7.679  0.2888 -0.6879 -0.6154
   38CHL1   C18 2765   2.213   3.802   7.669  0.7793 -0.0712  0.3351
   38CHL1  H18A 2766   2.234   3.777   7.562 -1.1311 -0.6529  0.0569
   38CHL1  H18B 2767   2.314   3.798   7.715  2.4064  0.5402 -2.8982
   38CHL1  H18C 2768   2.148   3.720   7.707  1.2038 -0.3719  0.4175
   38CHL1   C12 2769   2.017   3.950   7.604 -0.3039 -0.0397  0.3369
   38CHL1  H12A 2770   1.945   3.872   7.635  2.2586 -2.9489 -0.5296
   38CHL1  H12B 2771   1.976   4.054   7.599 -0.0681  0.0529  0.2930
   38CHL1   C11 2772   2.035   3.895   7.463 -0.3735 -0.0903  0.7260
   38CHL1  H11A 2773   2.063   3.788   7.461 -0.3969 -0.1436  2.3321
   38CHL1  H11B 2774   1.938   3.907   7.410 -0.1641  0.5071  0.4615
   38CHL1    C9 2775   2.126   3.996   7.381  0.1288  0.2244 -0.1152
   38CHL1    H9 2776   2.066   4.087   7.402 -1.2755 -0.1280 -2.2562
   38CHL1   C10 2777   2.134   3.986   7.230  0.5642  0.7315 -0.0055
   38CHL1   C19 2778   2.181   3.847   7.186 -0.4354  0.2741  0.0708
   38CHL1  H19A 2779   2.222   3.831   7.084  1.8827 -0.7759  1.1041
   38CHL1  H19B 2780   2.254   3.818   7.264 -1.5410 -0.7751  0.7502
   38CHL1  H19C 2781   2.092   3.784   7.208 -1.3972  0.8360 -1.9072
   38CHL1    C1 2782   1.993   4.019   7.168  0.0815 -0.3568 -0.5769
   38CHL1   H1A 2783   1.918   3.942   7.196 -1.3954  0.9212 -0.8939
   38CHL1   H1B 2784   1.954   4.104   7.228 -1.3023 -0.3371 -1.4604
   38CHL1    C2 2785   1.994   4.051   7.015 -0.5222  0.1361 -0.0704
   38CHL1   H2A 2786   1.898   4.104   7.001 -0.7948 -0.0997  0.7879
   38CHL1   H2B 2787   1.996   3.962   6.949  0.7763  0.8121 -0.9706
   38CHL1   C20 2788   2.115   3.893   7.934 -0.1801  0.5241 -0.2759
   38CHL1   H20 2789   2.178   3.803   7.917  1.3288  1.2036  1.4336
   38CHL1   C21 2790   1.965   3.849   7.907  0.2111 -0.4001 -0.5974
   38CHL1  H21A 2791   1.897   3.935   7.924 -0.2597 -0.7567 -0.6706
   38CHL1  H21B 2792   1.925   3.778   7.982  2.0368 -1.5495 -0.6504
   38CHL1  H21C 2793   1.961   3.800   7.808 -0.4372  1.9315 -1.7847
   38CHL1   C22 2794   2.118   3.945   8.086 -0.0345  0.7065 -0.1692
   38CHL1  H22A 2795   2.220   3.985   8.103  0.7619 -1.4755  0.5617
   38CHL1  H22B 2796   2.040   4.023   8.076 -0.6466 -0.1875 -4.7108
   38CHL1   C23 2797   2.099   3.837   8.195 -0.2749 -0.3392 -0.6192
   38CHL1  H23A 2798   2.018   3.765   8.172 -0.2605 -0.0835 -1.5024
   38CHL1  H23B 2799   2.191   3.775   8.198 -1.4216 -2.1016  1.8442
   38CHL1   C24 2800   2.090   3.893   8.339  0.7152 -0.4203  0.6724
   38CHL1  H24A 2801   2.058   3.819   8.416 -3.8767  1.8918  1.3200
   38CHL1  H24B 2802   2.195   3.921   8.364  0.4685 -0.0939  1.3568
   38CHL1   C25 2803   1.985   4.010   8.351  0.4527  0.3594  0.0289
   38CHL1   H25 2804   2.026   4.088   8.284  0.0573  0.3554 -0.2196
   38CHL1   C26 2805   1.850   3.959   8.300  0.2255  0.1349 -0.1246
   38CHL1  H26A 2806   1.847   3.933   8.192  0.1625 -0.2599 -0.0303
   38CHL1  H26B 2807   1.817   3.878   8.369  1.7354 -0.1514  0.2993
   38CHL1  H26C 2808   1.778   4.039   8.328  2.7221  1.7906  2.0654
   38CHL1   C27 2809   1.961   4.061   8.493  0.0768 -0.7102  0.2099
   38CHL1  H27A 2810   1.937   3.979   8.564  1.6523 -1.6245 -0.2394
   38CHL1  H27B 2811   2.059   4.095   8.533  1.3703  0.3230 -3.4601
   38CHL1  H27C 2812   1.880   4.136   8.498 -0.9427 -1.6830 -1.0197
   39CHL1    C3 2813   2.357   2.750   7.147 -0.6070  0.0015  0.0643
   39CHL1    H3 2814   2.367   2.639   7.147 -2.7964 -0.2512  0.9453
   39CHL1    O3 2815   2.380   2.792   7.013  0.1143 -0.1335 -0.2705
   39CHL1   H3' 2816   2.317   2.861   6.991 -0.1458 -0.4472 -0.5324
   39CHL1    C4 2817   2.213   2.788   7.198 -0.5802 -0.6943 -0.4233
   39CHL1   H4A 2818   2.210   2.898   7.181 -0.4846 -0.4160  1.1717
   39CHL1   H4B 2819   2.133   2.752   7.129 -2.2979  3.7693 -1.1179
   39CHL1    C5 2820   2.185   2.761   7.347  0.0133  0.1992  0.4256
   39CHL1    C6 2821   2.073   2.695   7.382 -0.8300 -0.1978  0.8544
   39CHL1    H6 2822   2.000   2.659   7.308  0.0910 -0.2337 -0.0630
   39CHL1    C7 2823   2.029   2.688   7.531 -0.2439  0.6020 -0.4064
   39CHL1   H7A 2824   1.930   2.737   7.548 -0.4550  0.4423 -1.1526
   39CHL1   H7B 2825   2.029   2.583   7.566  1.9027  0.8656  0.5085
   39CHL1    C8 2826   2.122   2.762   7.627 -0.4715  0.0533  0.0476
   39CHL1    H8 2827   2.091   2.868   7.635 -3.3512 -0.6921 -0.2156
   39CHL1   C14 2828   2.119   2.694   7.765 -0.4478 -0.1950 -0.3020
   39CHL1   H14 2829   2.174   2.598   7.755 -0.5165 -0.4139  1.2073
   39CHL1   C15 2830   1.984   2.674   7.841 -0.2620 -0.8068 -0.5309
   39CHL1  H15A 2831   1.914   2.761   7.838  0.5169 -0.1831 -1.4633
   39CHL1  H15B 2832   1.929   2.586   7.804 -0.3010 -0.9401 -0.1597
   39CHL1   C16 2833   2.026   2.654   7.986  0.3723  1.1067  0.3301
   39CHL1  H16A 2834   1.990   2.739   8.047  1.4348  3.2594 -1.8902
   39CHL1  H16B 2835   1.991   2.553   8.018 -1.7525  1.3486 -1.0168
   39CHL1   C17 2836   2.178   2.672   7.988 -0.3020  0.5490 -0.2713
   39CHL1   H17 2837   2.230   2.575   7.970 -1.1918 -0.4027  1.8936
   39CHL1   C13 2838   2.203   2.766   7.872 -0.1136 -0.0292 -0.1763
   39CHL1   C18 2839   2.153   2.913   7.890  0.3124 -0.4448  0.1641
   39CHL1  H18A 2840   2.183   2.985   7.811 -0.8566  2.0489  1.8581
   39CHL1  H18B 2841   2.042   2.913   7.903  0.2372 -2.4627 -0.0418
   39CHL1  H18C 2842   2.184   2.965   7.983 -1.8233  1.5563 -0.1329
   39CHL1   C12 2843   2.351   2.762   7.819 -0.6779 -0.4408 -0.0126
   39CHL1  H12A 2844   2.412   2.832   7.880  2.1954 -1.6485 -1.3002
   39CHL1  H12B 2845   2.405   2.666   7.834  0.1210  0.3586  2.8404
   39CHL1   C11 2846   2.362   2.810   7.677 -1.3000 -0.3126  0.2872
   39CHL1  H11A 2847   2.366   2.921   7.686 -0.1351 -0.4599  2.1650
   39CHL1  H11B 2848   2.465   2.775   7.653 -1.3681  0.1413 -0.7101
   39CHL1    C9 2849   2.273   2.756   7.579  0.3398  0.0220 -0.1838
   39CHL1    H9 2850   2.292   2.647   7.576  1.1498  0.1184  0.8846
   39CHL1   C10 2851   2.289   2.814   7.445  0.7995  0.7131  0.4265
   39CHL1   C19 2852   2.270   2.966   7.453  0.2691 -0.1709  0.1764
   39CHL1  H19A 2853   2.295   3.010   7.354 -1.4619  2.6819  0.8961
   39CHL1  H19B 2854   2.168   3.001   7.479  0.9940  3.1751 -1.0526
   39CHL1  H19C 2855   2.345   3.017   7.518  0.4289  2.0140 -1.6223
   39CHL1    C1 2856   2.432   2.774   7.390  0.2572  0.1643 -0.1221
   39CHL1   H1A 2857   2.522   2.802   7.448  0.1662 -1.0113  0.6213
   39CHL1   H1B 2858   2.437   2.663   7.399  0.1640  0.2736  1.5787
   39CHL1    C2 2859   2.462   2.813   7.238 -0.0587 -0.0583 -0.4820
   39CHL1   H2A 2860   2.565   2.776   7.218  0.0550 -0.0646  0.0748
   39CHL1   H2B 2861   2.451   2.923   7.225 -0.8944 -0.1391 -0.4969
   39CHL1   C20 2862   2.219   2.718   8.138 -0.3369  0.1214  1.1242
   39CHL1   H20 2863   2.187   2.824   8.153 -1.0891 -0.1496  1.5358
   39CHL1   C21 2864   2.369   2.699   8.160 -0.6322 -0.6956  0.1663
   39CHL1  H21A 2865   2.423   2.748   8.076 -1.6180  2.0682  1.0274
   39CHL1  H21B 2866   2.388   2.590   8.166 -1.5033 -1.0672 -2.4613
   39CHL1  H21C 2867   2.409   2.758   8.245 -0.5780  3.2468 -2.2984
   39CHL1   C22 2868   2.156   2.630   8.248  0.1929  0.2759 -0.6490
   39CHL1  H22A 2869   2.050   2.654   8.224  0.8208  2.6742 -1.2923
   39CHL1  H22B 2870   2.165   2.519   8.242  1.8748  0.3073  0.5795
   39CHL1   C23 2871   2.174   2.675   8.391 -0.6613 -0.4517 -0.3745
   39CHL1  H23A 2872   2.264   2.629   8.437 -1.4078 -0.4194  1.1885
   39CHL1  H23B 2873   2.172   2.784   8.410 -2.5679 -0.9993  3.2481
   39CHL1   C24 2874   2.063   2.604   8.476 -0.1465 -0.4266 -0.2499
   39CHL1  H24A 2875   1.960   2.618   8.437  0.1187  0.4464 -0.6673
   39CHL1  H24B 2876   2.087   2.496   8.468  2.7819  0.0018  1.2195
   39CHL1   C25 2877   2.056   2.645   8.628  0.1970 -0.1887  0.5570
   39CHL1   H25 2878   2.009   2.745   8.639  1.9244  0.7743 -0.3073
   39CHL1   C26 2879   1.977   2.536   8.699  0.2637  0.1313  0.0842
   39CHL1  H26A 2880   1.871   2.541   8.668  0.3537  2.4199 -0.0327
   39CHL1  H26B 2881   2.029   2.441   8.674 -0.3149 -1.4025  4.0659
   39CHL1  H26C 2882   1.978   2.550   8.809 -2.2268  1.0208  0.0418
   39CHL1   C27 2883   2.195   2.657   8.697  0.3290 -0.0372  0.5346
   39CHL1  H27A 2884   2.188   2.658   8.808 -2.0330  1.6019  0.4490
   39CHL1  H27B 2885   2.247   2.564   8.667 -1.0047 -1.7818  3.2073
   39CHL1  H27C 2886   2.247   2.750   8.665 -1.7655  1.5345  1.4244
   40CHL1    C3 2887   4.251   2.169   7.135  0.0290  0.0025  0.0188
   40CHL1    H3 2888   4.255   2.278   7.155 -0.1470  0.0442 -0.1608
   40CHL1    O3 2889   4.214   2.151   7.006  0.1286  0.3506  0.8190
   40CHL1   H3' 2890   4.179   2.061   7.001  0.0090  0.2199  3.1090
   40CHL1    C4 2891   4.383   2.091   7.167  0.6481 -0.2545 -0.1837
   40CHL1   H4A 2892   4.361   1.983   7.149  0.1822 -0.6778  2.4566
   40CHL1   H4B 2893   4.466   2.113   7.097  0.2193 -3.6863 -2.0203
   40CHL1    C5 2894   4.413   2.111   7.310 -0.3241 -0.0309  0.1258
   40CHL1    C6 2895   4.529   2.167   7.354  0.0117  0.5967 -0.3862
   40CHL1    H6 2896   4.602   2.207   7.282 -1.1727  1.5187 -1.1215
   40CHL1    C7 2897   4.562   2.183   7.500 -0.0460 -0.1519  0.3462
   40CHL1   H7A 2898   4.672   2.171   7.511  0.0537  0.5745  0.2421
   40CHL1   H7B 2899   4.533   2.287   7.529 -1.3449  0.1724 -1.8244
   40CHL1    C8 2900   4.481   2.086   7.590  0.2572  0.0041  0.1549
   40CHL1    H8 2901   4.525   1.986   7.570  1.4232  0.3716  0.7440
   40CHL1   C14 2902   4.504   2.114   7.736 -0.0872 -0.3527  0.3310
   40CHL1   H14 2903   4.449   2.209   7.750  1.0644  0.7497 -2.0071
   40CHL1   C15 2904   4.647   2.141   7.791 -0.7342 -0.2475 -0.2010
   40CHL1  H15A 2905   4.714   2.063   7.750  0.7809  0.4583  0.8366
   40CHL1  H15B 2906   4.691   2.236   7.756  1.1227 -0.6310  0.9651
   40CHL1   C16 2907   4.636   2.131   7.942 -0.3804  0.4516 -0.0863
   40CHL1  H16A 2908   4.728   2.078   7.973  1.1884  3.0095 -0.0724
   40CHL1  H16B 2909   4.648   2.234   7.984 -1.2094  0.4652  0.1410
   40CHL1   C17 2910   4.491   2.081   7.971  0.0233  0.1068 -0.1641
   40CHL1   H17 2911   4.422   2.168   7.977 -0.7200 -0.4000 -1.0580
   40CHL1   C13 2912   4.437   2.020   7.831 -0.3290  0.2331  0.0821
   40CHL1   C18 2913   4.499   1.875   7.811  0.0011 -0.6327  0.1926
   40CHL1  H18A 2914   4.462   1.846   7.711  0.5103  0.1207 -0.2187
   40CHL1  H18B 2915   4.609   1.871   7.796 -0.0700 -0.3356 -0.4265
   40CHL1  H18C 2916   4.472   1.801   7.890  0.6951 -1.7289 -0.5566
   40CHL1   C12 2917   4.287   2.024   7.806  0.2138 -0.6584 -0.1274
   40CHL1  H12A 2918   4.244   1.942   7.866  0.5234  0.2000  1.3275
   40CHL1  H12B 2919   4.251   2.126   7.835  1.9340  0.3332 -1.2618
   40CHL1   C11 2920   4.248   1.997   7.660 -0.2131  0.5309 -0.2146
   40CHL1  H11A 2921   4.254   1.887   7.643 -2.9309  0.4823 -1.3799
   40CHL1  H11B 2922   4.138   2.007   7.647 -0.5711 -2.0511  0.1366
   40CHL1    C9 2923   4.334   2.082   7.555  0.8948  0.0124 -0.3070
   40CHL1    H9 2924   4.302   2.188   7.568 -1.0588 -0.0632 -3.3660
   40CHL1   C10 2925   4.309   2.056   7.404  0.5874  0.5181 -1.0316
   40CHL1   C19 2926   4.289   1.898   7.389  0.2738  0.0153  0.1366
   40CHL1  H19A 2927   4.280   1.866   7.283 -1.0251 -1.3330  0.6227
   40CHL1  H19B 2928   4.386   1.856   7.424  0.0504 -1.7086 -1.1890
   40CHL1  H19C 2929   4.206   1.854   7.448 -1.6913  1.0933 -1.6892
   40CHL1    C1 2930   4.175   2.124   7.367 -0.2092  0.3688 -0.7953
   40CHL1   H1A 2931   4.099   2.070   7.426  0.8015  0.8719  1.0547
   40CHL1   H1B 2932   4.168   2.231   7.396 -1.0127 -0.3276  1.8432
   40CHL1    C2 2933   4.136   2.117   7.215  0.1476 -0.3169 -0.4587
   40CHL1   H2A 2934   4.041   2.173   7.198  0.0785  1.0149  3.3775
   40CHL1   H2B 2935   4.109   2.010   7.205 -0.4774 -0.2356  0.2759
   40CHL1   C20 2936   4.483   1.985   8.093  0.3384 -0.8500  0.3529
   40CHL1   H20 2937   4.535   1.888   8.075 -0.7782 -1.3849 -0.0544
   40CHL1   C21 2938   4.345   1.944   8.129  0.5598 -0.2438  0.0877
   40CHL1  H21A 2939   4.297   1.877   8.054 -1.1783 -0.0525  0.9883
   40CHL1  H21B 2940   4.294   2.042   8.133  3.1274  1.1366  1.8421
   40CHL1  H21C 2941   4.344   1.895   8.229  0.1981 -0.4604 -0.0215
   40CHL1   C22 2942   4.564   2.035   8.218 -0.5332 -0.3189  0.1068
   40CHL1  H22A 2943   4.551   1.951   8.289  0.2776 -1.4018 -0.9888
   40CHL1  H22B 2944   4.670   2.022   8.189 -1.5143 -1.8852 -3.2870
   40CHL1   C23 2945   4.528   2.178   8.274  0.2219  0.6486 -0.2659
   40CHL1  H23A 2946   4.601   2.246   8.226  1.3702 -0.9915 -0.9479
   40CHL1  H23B 2947   4.424   2.206   8.250 -0.4601 -1.2618  0.2501
   40CHL1   C24 2948   4.560   2.211   8.425  0.5898 -0.4519  0.0687
   40CHL1  H24A 2949   4.664   2.179   8.446  0.3051 -1.3504  0.1267
   40CHL1  H24B 2950   4.543   2.319   8.448 -4.0424 -1.4429  2.4515
   40CHL1   C25 2951   4.476   2.128   8.521  0.3413 -0.3152  0.3143
   40CHL1   H25 2952   4.482   2.019   8.503  2.6537 -0.1542 -0.2424
   40CHL1   C26 2953   4.535   2.140   8.670  0.3988  0.0207  0.3194
   40CHL1  H26A 2954   4.509   2.243   8.700 -3.1362 -1.0220  1.3198
   40CHL1  H26B 2955   4.487   2.073   8.745  1.8523  0.0055  1.2621
   40CHL1  H26C 2956   4.643   2.113   8.666  0.0493 -1.5149  0.5012
   40CHL1   C27 2957   4.343   2.183   8.524  0.3133 -0.5962  0.4551
   40CHL1  H27A 2958   4.349   2.293   8.540 -0.9370 -0.5595  0.7293
   40CHL1  H27B 2959   4.298   2.162   8.425  1.4902 -2.1355  0.2075
   40CHL1  H27C 2960   4.278   2.143   8.604 -1.4343 -0.1984 -0.7119
   41CHL1    C3 2961   4.896   2.874   7.209  1.1642 -0.1150  0.0904
   41CHL1    H3 2962   4.819   2.808   7.256  1.3229 -1.6004 -1.6483
   41CHL1    O3 2963   4.864   2.897   7.075 -0.7793  0.6095  0.1788
   41CHL1   H3' 2964   4.936   2.951   7.041 -1.2670  0.6661 -0.7961
   41CHL1    C4 2965   4.921   2.998   7.292 -0.0983  0.0479 -0.1910
   41CHL1   H4A 2966   5.007   3.058   7.255  1.1783 -0.3931  1.8941
   41CHL1   H4B 2967   4.833   3.065   7.287 -0.7000 -0.7474 -0.5714
   41CHL1    C5 2968   4.951   2.953   7.436 -0.2217  0.1997  0.5790
   41CHL1    C6 2969   4.877   3.002   7.535 -0.1442  0.4279  0.1640
   41CHL1    H6 2970   4.792   3.068   7.513 -0.5488 -0.5217 -1.3269
   41CHL1    C7 2971   4.909   2.975   7.678  0.2431  0.1235  0.0878
   41CHL1   H7A 2972   4.893   3.066   7.741  0.7671 -0.2467  0.7722
   41CHL1   H7B 2973   4.843   2.895   7.718 -0.1708 -0.1965 -1.1940
   41CHL1    C8 2974   5.058   2.935   7.699 -0.3721  0.3793  0.2868
   41CHL1    H8 2975   5.112   3.028   7.675 -2.5402  1.3454 -1.2206
   41CHL1   C14 2976   5.084   2.902   7.839  0.6308 -0.1121 -0.5196
   41CHL1   H14 2977   5.021   2.813   7.858  1.4498 -0.0423  3.4664
   41CHL1   C15 2978   5.057   3.006   7.945  0.4579  0.0321  0.4901
   41CHL1  H15A 2979   5.121   3.093   7.916  1.4192 -1.1352 -1.0685
   41CHL1  H15B 2980   4.949   3.028   7.960  0.2751 -0.2617 -0.3347
   41CHL1   C16 2981   5.119   2.937   8.069  0.2843 -0.0712  0.8671
   41CHL1  H16A 2982   5.188   3.006   8.123  2.6234 -1.0727 -0.6806
   41CHL1  H16B 2983   5.043   2.893   8.137 -0.1629 -2.1860 -0.8863
   41CHL1   C17 2984   5.215   2.817   8.018 -0.2971 -0.5775 -0.1107
   41CHL1   H17 2985   5.154   2.724   8.018 -1.5614  0.2151  0.3194
   41CHL1   C13 2986   5.227   2.854   7.873  0.3491 -0.0529 -0.4068
   41CHL1   C18 2987   5.333   2.957   7.857  0.0201 -0.0310 -0.1590
   41CHL1  H18A 2988   5.331   3.038   7.932  1.4698  3.0833 -3.2052
   41CHL1  H18B 2989   5.430   2.902   7.859 -0.5651 -1.2181 -1.7316
   41CHL1  H18C 2990   5.338   3.016   7.763  0.8798  1.3372  0.7056
   41CHL1   C12 2991   5.253   2.734   7.787 -0.4597 -0.9035 -0.3800
   41CHL1  H12A 2992   5.361   2.706   7.782 -0.2449 -0.5006  1.3923
   41CHL1  H12B 2993   5.194   2.645   7.817  0.2404 -1.1510  0.3221
   41CHL1   C11 2994   5.226   2.757   7.636  0.1707  0.3934  0.3858
   41CHL1  H11A 2995   5.310   2.825   7.607  2.2526 -2.1564  0.0080
   41CHL1  H11B 2996   5.235   2.661   7.580 -1.7162 -0.0882  0.8391
   41CHL1    C9 2997   5.093   2.821   7.603 -0.7562 -0.7731  0.1320
   41CHL1    H9 2998   5.006   2.752   7.614 -1.5630  0.0049 -1.0463
   41CHL1   C10 2999   5.080   2.862   7.454  0.6556  0.0215 -0.4558
   41CHL1   C19 3000   5.206   2.930   7.409  0.4109 -0.3963  0.4830
   41CHL1  H19A 3001   5.196   2.965   7.303  1.0895  2.0278  1.1471
   41CHL1  H19B 3002   5.224   3.015   7.478 -0.7711 -0.7930  1.3035
   41CHL1  H19C 3003   5.287   2.854   7.407 -0.1448 -1.0174  1.2221
   41CHL1    C1 3004   5.052   2.736   7.366 -0.1030  0.3153 -0.6117
   41CHL1   H1A 3005   5.147   2.677   7.368  0.1729  0.6366 -2.3470
   41CHL1   H1B 3006   4.965   2.675   7.399  0.3666  0.1050  0.2890
   41CHL1    C2 3007   5.016   2.769   7.218 -0.1840 -0.2168  0.6190
   41CHL1   H2A 3008   4.987   2.676   7.165 -0.9142 -0.3414  1.2298
   41CHL1   H2B 3009   5.109   2.799   7.164 -0.0370  0.9130  1.4603
   41CHL1   C20 3010   5.334   2.798   8.114  0.9393 -0.0452 -0.2947
   41CHL1   H20 3011   5.390   2.892   8.129 -0.9380  1.1924 -0.6772
   41CHL1   C21 3012   5.437   2.691   8.065  0.6777 -0.3600  0.0021
   41CHL1  H21A 3013   5.516   2.676   8.142  0.7346  1.7058  0.4159
   41CHL1  H21B 3014   5.485   2.715   7.968 -0.0082  0.6875 -0.0994
   41CHL1  H21C 3015   5.388   2.592   8.050  0.2150  0.2037 -2.6961
   41CHL1   C22 3016   5.266   2.767   8.252  0.4761 -0.1421  0.4361
   41CHL1  H22A 3017   5.189   2.842   8.281  0.2299 -1.1512  2.5823
   41CHL1  H22B 3018   5.218   2.667   8.244 -0.6739  0.3873  0.4256
   41CHL1   C23 3019   5.362   2.765   8.373  0.2396 -0.1465  0.4506
   41CHL1  H23A 3020   5.429   2.678   8.358  0.2221 -0.1072  0.1358
   41CHL1  H23B 3021   5.417   2.861   8.380  0.1370  0.1217 -1.6805
   41CHL1   C24 3022   5.292   2.743   8.509 -0.7786  0.1867  0.0748
   41CHL1  H24A 3023   5.225   2.830   8.527  0.2345  1.2439 -1.0363
   41CHL1  H24B 3024   5.223   2.660   8.483  0.7675 -0.5678 -1.8364
   41CHL1   C25 3025   5.390   2.719   8.623  0.4007 -0.7216 -0.2425
   41CHL1   H25 3026   5.464   2.648   8.580  0.1070 -1.3025  0.1984
   41CHL1   C26 3027   5.472   2.842   8.660  0.2996 -0.3112  0.5352
   41CHL1  H26A 3028   5.528   2.823   8.754  0.8152 -2.6940 -0.1789
   41CHL1  H26B 3029   5.549   2.875   8.587 -1.6188  2.2043 -0.5030
   41CHL1  H26C 3030   5.400   2.926   8.671 -0.8092 -1.0929 -0.4448
   41CHL1   C27 3031   5.323   2.659   8.743 -0.3617 -0.1488 -0.2976
   41CHL1  H27A 3032   5.229   2.713   8.766  0.2107  0.3628  0.8794
   41CHL1  H27B 3033   5.293   2.554   8.721 -2.3077  0.1368  0.7687
   41CHL1  H27C 3034   5.396   2.647   8.826  1.2457  2.5179 -1.2042
   42CHL1    C3 3035   6.382   4.423   7.259 -0.6912  0.2738 -0.8227
   42CHL1    H3 3036   6.325   4.353   7.323 -0.3059 -0.1700 -0.9593
   42CHL1    O3 3037   6.416   4.354   7.143  0.8763  0.2775 -0.0153
   42CHL1   H3' 3038   6.488   4.404   7.104  0.8408 -0.9736 -1.8206
   42CHL1    C4 3039   6.299   4.554   7.246 -0.2122 -0.0134  0.3706
   42CHL1   H4A 3040   6.350   4.616   7.170 -0.5670  0.3406  0.4197
   42CHL1   H4B 3041   6.201   4.531   7.199 -1.1675 -2.7643  3.3638
   42CHL1    C5 3042   6.284   4.630   7.375  0.0409  0.3174  0.2087
   42CHL1    C6 3043   6.164   4.662   7.419  0.2840 -0.0272 -0.5071
   42CHL1    H6 3044   6.073   4.643   7.361 -1.4297  1.2092  1.6012
   42CHL1    C7 3045   6.147   4.744   7.545 -0.3881  0.3034  0.3096
   42CHL1   H7A 3046   6.084   4.831   7.518 -0.6399  0.0695  0.1357
   42CHL1   H7B 3047   6.085   4.675   7.607  0.1121 -0.3973  0.0447
   42CHL1    C8 3048   6.271   4.789   7.618  0.3211  0.6985 -0.5647
   42CHL1    H8 3049   6.310   4.884   7.576  2.5095  0.7982  1.4965
   42CHL1   C14 3050   6.235   4.832   7.762 -0.6674  0.3259 -0.1400
   42CHL1   H14 3051   6.184   4.746   7.809  0.4463 -0.3611 -0.1577
   42CHL1   C15 3052   6.123   4.938   7.781 -0.7051  0.2217  0.3174
   42CHL1  H15A 3053   6.146   5.022   7.712 -1.5969 -0.1408 -0.4391
   42CHL1  H15B 3054   6.025   4.892   7.756 -2.8799  3.6684  1.6480
   42CHL1   C16 3055   6.139   4.983   7.921  0.1450 -0.3195 -0.2861
   42CHL1  H16A 3056   6.143   5.094   7.928 -0.1922 -0.0842 -2.9229
   42CHL1  H16B 3057   6.053   4.951   7.984  0.9365  0.2868  1.1564
   42CHL1   C17 3058   6.270   4.915   7.974 -0.3308  0.3715 -0.2554
   42CHL1   H17 3059   6.247   4.811   8.003  0.2022 -0.2635 -1.9836
   42CHL1   C13 3060   6.354   4.876   7.848 -0.5353  0.1601 -0.2509
   42CHL1   C18 3061   6.424   5.002   7.789 -0.0973 -0.5737  0.2612
   42CHL1  H18A 3062   6.443   4.978   7.683  3.3919 -0.3690  0.7232
   42CHL1  H18B 3063   6.364   5.096   7.787  2.1218  0.9285 -0.0261
   42CHL1  H18C 3064   6.522   5.028   7.835  0.1161 -0.0697 -0.4649
   42CHL1   C12 3065   6.457   4.759   7.849 -0.4659  0.2788 -0.4114
   42CHL1  H12A 3066   6.554   4.787   7.897 -0.4440  1.3828 -1.0724
   42CHL1  H12B 3067   6.414   4.678   7.913  0.3041  2.3325  2.9898
   42CHL1   C11 3068   6.499   4.712   7.710  0.6167  0.4534  0.1272
   42CHL1  H11A 3069   6.562   4.792   7.666 -1.0108  1.8949  0.3028
   42CHL1  H11B 3070   6.566   4.625   7.728  0.8329  0.8649  1.3971
   42CHL1    C9 3071   6.378   4.684   7.613  0.0172  0.0695 -0.7299
   42CHL1    H9 3072   6.325   4.600   7.663 -0.0352  1.5085  1.7822
   42CHL1   C10 3073   6.407   4.648   7.464 -0.0777 -0.4568  0.1505
   42CHL1   C19 3074   6.496   4.756   7.395 -0.3795 -0.3909  0.6377
   42CHL1  H19A 3075   6.536   4.723   7.297 -1.4406 -1.6659  0.6043
   42CHL1  H19B 3076   6.447   4.855   7.389 -0.2782 -0.3889 -0.4136
   42CHL1  H19C 3077   6.583   4.773   7.463 -0.0366  0.9792 -0.0905
   42CHL1    C1 3078   6.495   4.524   7.458  0.8187 -0.2663 -0.1009
   42CHL1   H1A 3079   6.597   4.547   7.496  0.2643  1.7827  0.2418
   42CHL1   H1B 3080   6.444   4.457   7.530 -1.4344 -0.2247 -1.5650
   42CHL1    C2 3081   6.514   4.452   7.324 -0.2631  0.2377  0.6079
   42CHL1   H2A 3082   6.570   4.359   7.349 -0.0046  0.3054  0.2931
   42CHL1   H2B 3083   6.587   4.506   7.259  2.2140 -2.8416  0.5512
   42CHL1   C20 3084   6.328   4.993   8.092 -0.1181 -0.7392  0.1266
   42CHL1   H20 3085   6.369   5.089   8.053  3.9298 -2.4696 -0.2867
   42CHL1   C21 3086   6.451   4.917   8.146  0.7588  0.4531 -0.8178
   42CHL1  H21A 3087   6.411   4.814   8.150  0.4236  0.6037 -0.1331
   42CHL1  H21B 3088   6.479   4.949   8.249 -0.3182  1.7150 -0.8889
   42CHL1  H21C 3089   6.538   4.928   8.078  1.5244 -2.6778 -0.4878
   42CHL1   C22 3090   6.217   5.024   8.201 -0.1164  0.2684  0.3988
   42CHL1  H22A 3091   6.131   5.075   8.153 -0.0820 -0.4146 -0.4231
   42CHL1  H22B 3092   6.186   4.924   8.240 -0.9652  0.1993 -0.4187
   42CHL1   C23 3093   6.282   5.103   8.318  0.0727 -0.1942 -0.3804
   42CHL1  H23A 3094   6.350   5.034   8.373 -0.7650 -3.1150 -2.6925
   42CHL1  H23B 3095   6.320   5.192   8.264 -2.0610 -0.4846 -2.5555
   42CHL1   C24 3096   6.171   5.142   8.424 -0.1648  0.1275 -0.5080
   42CHL1  H24A 3097   6.089   5.190   8.366  0.2981 -0.8316 -2.0073
   42CHL1  H24B 3098   6.134   5.053   8.480 -1.0989  1.5201  1.1961
   42CHL1   C25 3099   6.222   5.247   8.537  0.3319  0.2646 -0.0123
   42CHL1   H25 3100   6.265   5.334   8.483 -0.7207 -0.2897 -1.8426
   42CHL1   C26 3101   6.098   5.291   8.628  0.0298  0.4192 -0.1782
   42CHL1  H26A 3102   6.135   5.354   8.712  0.3761 -0.9894  0.7657
   42CHL1  H26B 3103   6.027   5.352   8.568  0.0250  1.7230  1.0791
   42CHL1  H26C 3104   6.046   5.205   8.673  0.8177 -0.7901 -1.4837
   42CHL1   C27 3105   6.341   5.187   8.616 -0.2861 -0.0337 -0.1737
   42CHL1  H27A 3106   6.423   5.142   8.555  0.4688 -0.7017  1.2848
   42CHL1  H27B 3107   6.300   5.108   8.683 -3.1172  0.4696 -1.1799
   42CHL1  H27C 3108   6.373   5.272   8.679 -1.7544 -0.5122  1.2691
   43CHL1    C3 3109   6.055   3.563   7.042  0.8739 -0.5897  0.8288
   43CHL1    H3 3110   5.971   3.491   7.044 -2.4755  2.8000 -2.1755
   43CHL1    O3 3111   6.067   3.598   6.903 -0.1889  0.8963 -0.4000
   43CHL1   H3' 3112   6.058   3.517   6.852  1.5692  0.2864  0.2063
   43CHL1    C4 3113   6.022   3.690   7.115  0.0638  0.1840 -0.7302
   43CHL1   H4A 3114   6.094   3.772   7.097  0.2249  1.7671  5.1074
   43CHL1   H4B 3115   5.925   3.719   7.070 -0.1986 -0.6749 -0.7420
   43CHL1    C5 3116   6.004   3.673   7.261 -0.1982  0.3247 -0.2645
   43CHL1    C6 3117   5.891   3.710   7.318  0.5650  0.0505 -0.3542
   43CHL1    H6 3118   5.816   3.762   7.257  0.7036 -0.6359 -1.1190
   43CHL1    C7 3119   5.868   3.715   7.465  0.4717  0.2248  0.2347
   43CHL1   H7A 3120   5.812   3.806   7.497  0.2656 -0.0424  0.6399
   43CHL1   H7B 3121   5.798   3.632   7.488 -2.4399  1.7788 -2.2929
   43CHL1    C8 3122   6.005   3.693   7.545  0.9267 -0.2659  0.9083
   43CHL1    H8 3123   6.060   3.788   7.531 -1.4979  1.0226 -0.6451
   43CHL1   C14 3124   5.962   3.660   7.687 -0.1249  0.7399 -0.0845
   43CHL1   H14 3125   5.923   3.556   7.683 -3.3018  1.5165  3.7441
   43CHL1   C15 3126   5.845   3.737   7.761 -0.1765  0.8080 -0.3146
   43CHL1  H15A 3127   5.840   3.848   7.761 -0.6671  0.7864 -0.5926
   43CHL1  H15B 3128   5.747   3.715   7.715  1.1393 -0.9114 -2.5168
   43CHL1   C16 3129   5.863   3.693   7.907 -0.1267 -0.0089  0.2084
   43CHL1  H16A 3130   5.863   3.781   7.976  1.6532  0.3265 -0.1680
   43CHL1  H16B 3131   5.771   3.634   7.924 -0.6921  0.9345  0.5479
   43CHL1   C17 3132   6.000   3.623   7.916  0.4826  0.6594  0.1679
   43CHL1   H17 3133   5.974   3.515   7.913 -1.6771  1.1449  0.0115
   43CHL1   C13 3134   6.076   3.648   7.786 -0.8261  0.5959  0.3010
   43CHL1   C18 3135   6.149   3.774   7.804 -0.0257 -0.0980  0.1643
   43CHL1  H18A 3136   6.198   3.804   7.709 -0.8698  0.6449 -0.0441
   43CHL1  H18B 3137   6.092   3.855   7.852  0.0248  0.7020 -1.0754
   43CHL1  H18C 3138   6.242   3.760   7.864 -1.1508 -0.6833  1.8368
   43CHL1   C12 3139   6.153   3.529   7.724 -0.3037  0.6134 -0.0678
   43CHL1  H12A 3140   6.246   3.511   7.781  0.3572  0.5554 -1.1521
   43CHL1  H12B 3141   6.100   3.432   7.734 -0.2090  0.6167  0.4940
   43CHL1   C11 3142   6.200   3.542   7.568  0.3150 -0.7967 -0.1997
   43CHL1  H11A 3143   6.267   3.630   7.578  0.0186 -0.5499 -0.3773
   43CHL1  H11B 3144   6.257   3.458   7.523  1.1978  0.6791 -1.9726
   43CHL1    C9 3145   6.082   3.582   7.479 -0.9119  1.0667  0.0131
   43CHL1    H9 3146   6.021   3.489   7.469  2.2067 -1.0936 -0.4630
   43CHL1   C10 3147   6.125   3.611   7.333  0.2603 -0.1199  0.1749
   43CHL1   C19 3148   6.236   3.703   7.342  0.5839 -0.0882 -0.0092
   43CHL1  H19A 3149   6.268   3.755   7.249 -2.3228 -0.0461 -1.0817
   43CHL1  H19B 3150   6.209   3.787   7.411 -0.6137  1.8620 -2.6864
   43CHL1  H19C 3151   6.332   3.655   7.372  0.1428 -0.4246  0.8917
   43CHL1    C1 3152   6.172   3.486   7.249  1.0645 -0.8636 -0.0939
   43CHL1   H1A 3153   6.265   3.446   7.294  0.6415  0.1015  1.7569
   43CHL1   H1B 3154   6.097   3.406   7.266 -0.5941  0.4374 -0.9676
   43CHL1    C2 3155   6.187   3.508   7.094 -0.4533  0.3436  0.0651
   43CHL1   H2A 3156   6.206   3.408   7.049 -0.1013  1.3598 -2.1674
   43CHL1   H2B 3157   6.269   3.578   7.067  0.2896 -0.2452  0.7625
   43CHL1   C20 3158   6.078   3.636   8.049 -0.0320 -0.2551 -0.4563
   43CHL1   H20 3159   6.128   3.735   8.046  1.0897 -0.8144 -0.5977
   43CHL1   C21 3160   6.181   3.523   8.056  0.2147  0.1864  0.1023
   43CHL1  H21A 3161   6.257   3.534   7.976 -0.4677 -0.7335 -0.6872
   43CHL1  H21B 3162   6.124   3.430   8.035  2.1786 -1.4552  1.6246
   43CHL1  H21C 3163   6.233   3.514   8.154  2.6211 -0.6944 -1.1683
   43CHL1   C22 3164   5.986   3.628   8.177  0.0255  0.2507  0.5677
   43CHL1  H22A 3165   5.904   3.702   8.164 -0.9235 -1.1333 -2.1309
   43CHL1  H22B 3166   5.932   3.532   8.158  1.5984 -0.5754  0.1490
   43CHL1   C23 3167   6.053   3.650   8.316 -0.1589  1.0962  0.1277
   43CHL1  H23A 3168   6.161   3.624   8.319 -0.6712 -1.7321 -1.7407
   43CHL1  H23B 3169   6.038   3.760   8.327 -0.5551  0.8620  2.2702
   43CHL1   C24 3170   5.980   3.584   8.435  0.3315 -0.0777 -0.3138
   43CHL1  H24A 3171   5.871   3.594   8.415  0.1034 -1.5069  0.0902
   43CHL1  H24B 3172   6.004   3.476   8.443 -0.3459 -0.3621 -1.7291
   43CHL1   C25 3173   6.003   3.657   8.568 -0.5649  0.2303  0.3138
   43CHL1   H25 3174   6.098   3.715   8.561  0.0416 -0.6490  1.1222
   43CHL1   C26 3175   5.892   3.761   8.592 -0.2131  0.0641  0.0912
   43CHL1  H26A 3176   5.889   3.850   8.526 -0.1299  1.0654  1.3870
   43CHL1  H26B 3177   5.790   3.718   8.586  0.5648 -1.7460 -0.7139
   43CHL1  H26C 3178   5.907   3.792   8.698  0.1041 -1.4841  0.5198
   43CHL1   C27 3179   6.016   3.559   8.680 -0.7193  0.1203  1.1675
   43CHL1  H27A 3180   5.917   3.511   8.695 -0.2701 -1.5321 -0.7706
   43CHL1  H27B 3181   6.090   3.478   8.665 -0.8912  0.4529 -2.2085
   43CHL1  H27C 3182   6.047   3.611   8.773 -0.1203  1.2743  0.3511
   44CHL1    C3 3183   0.140   2.324   7.074 -0.4705  0.3239 -0.1579
   44CHL1    H3 3184   0.145   2.434   7.082 -1.0457  0.2441  1.5977
   44CHL1    O3 3185   0.148   2.282   6.937 -0.1012 -0.0268  0.0172
   44CHL1   H3' 3186   0.113   2.192   6.940 -1.8249  0.6185  0.0290
   44CHL1    C4 3187   0.258   2.266   7.151  1.1531 -0.6062  1.0052
   44CHL1   H4A 3188   0.263   2.155   7.141  1.8782 -0.3864 -2.2469
   44CHL1   H4B 3189   0.354   2.305   7.110  1.0515 -1.0371  0.3470
   44CHL1    C5 3190   0.244   2.279   7.303 -0.2705 -0.1028 -0.2918
   44CHL1    C6 3191   0.349   2.321   7.369 -0.2939  0.3631 -0.6722
   44CHL1    H6 3192   0.445   2.338   7.318 -0.3653 -0.8024 -1.2328
   44CHL1    C7 3193   0.348   2.332   7.514  0.3058 -0.4513  0.3263
   44CHL1   H7A 3194   0.448   2.297   7.546  1.1141  0.6508 -0.8953
   44CHL1   H7B 3195   0.341   2.441   7.533 -2.3184 -0.5474  0.2813
   44CHL1    C8 3196   0.224   2.284   7.595  0.1023 -0.5286  0.0332
   44CHL1    H8 3197   0.236   2.175   7.611  0.7808 -0.6572 -1.2357
   44CHL1   C14 3198   0.216   2.349   7.732 -0.4469 -0.2326 -0.2038
   44CHL1   H14 3199   0.202   2.458   7.715 -1.3282  0.0702  2.0418
   44CHL1   C15 3200   0.332   2.342   7.833 -0.0335 -0.3277 -0.0975
   44CHL1  H15A 3201   0.389   2.247   7.833 -1.0397 -1.0017 -2.0195
   44CHL1  H15B 3202   0.414   2.408   7.797  1.1290 -0.6618  1.8121
   44CHL1   C16 3203   0.272   2.387   7.967 -0.3399 -0.1311 -0.1226
   44CHL1  H16A 3204   0.302   2.317   8.048 -2.8650 -0.9235  0.2085
   44CHL1  H16B 3205   0.305   2.488   7.999 -0.4528 -1.0197  3.1523
   44CHL1   C17 3206   0.117   2.389   7.947  0.1855  0.8149  0.8767
   44CHL1   H17 3207   0.096   2.496   7.926  1.7406  1.2079  1.1855
   44CHL1   C13 3208   0.099   2.309   7.819  0.3669 -0.0711  0.3477
   44CHL1   C18 3209   0.111   2.165   7.859 -0.0365  0.1906 -0.2573
   44CHL1  H18A 3210   0.015   2.132   7.906 -0.0289 -0.9306 -1.0048
   44CHL1  H18B 3211   0.131   2.103   7.769 -0.4898  1.1644 -1.0401
   44CHL1  H18C 3212   0.189   2.152   7.937  0.0541  0.1294 -0.3576
   44CHL1   C12 3213  -0.030   2.338   7.737 -0.0904  0.4508 -0.3381
   44CHL1  H12A 3214  -0.103   2.276   7.794  0.9457  0.4714  1.0766
   44CHL1  H12B 3215  -0.041   2.449   7.738 -0.8737  0.3932  1.3105
   44CHL1   C11 3216  -0.033   2.263   7.602 -0.9704 -0.7496  0.0268
   44CHL1  H11A 3217  -0.040   2.155   7.626  1.1611 -0.1204  4.6689
   44CHL1  H11B 3218  -0.130   2.299   7.562 -1.1201 -0.2736  0.7954
   44CHL1    C9 3219   0.093   2.297   7.517  0.2181 -0.2103 -0.0427
   44CHL1    H9 3220   0.075   2.406   7.508  0.7387 -0.2746 -2.6364
   44CHL1   C10 3221   0.101   2.241   7.369  0.9091 -0.1545  0.7854
   44CHL1   C19 3222   0.070   2.089   7.370 -0.9811 -0.0660  1.0560
   44CHL1  H19A 3223   0.151   2.044   7.431  0.2726 -0.0043 -0.4947
   44CHL1  H19B 3224  -0.031   2.063   7.407 -2.5510 -0.1310 -2.7923
   44CHL1  H19C 3225   0.076   2.054   7.265  0.0233 -0.9283  1.3857
   44CHL1    C1 3226  -0.011   2.303   7.277  0.7655 -0.0520 -0.4426
   44CHL1   H1A 3227  -0.115   2.283   7.312  0.3497  1.6716 -0.6007
   44CHL1   H1B 3228  -0.013   2.409   7.309  0.3666  0.1230 -1.0309
   44CHL1    C2 3229   0.005   2.289   7.122 -0.2008  0.3850  0.0935
   44CHL1   H2A 3230  -0.078   2.344   7.072 -0.9086 -0.3051  0.4876
   44CHL1   H2B 3231  -0.018   2.184   7.096  0.5156  1.0968 -4.0543
   44CHL1   C20 3232   0.039   2.338   8.075 -0.7835 -0.9416  0.0826
   44CHL1   H20 3233   0.053   2.229   8.091  0.3052 -1.1900 -2.1702
   44CHL1   C21 3234  -0.116   2.370   8.057 -0.3664 -0.5609  0.0355
   44CHL1  H21A 3235  -0.129   2.476   8.025  2.3537 -0.6210 -1.5788
   44CHL1  H21B 3236  -0.180   2.345   8.144 -1.1429 -2.5983 -1.0620
   44CHL1  H21C 3237  -0.155   2.284   7.999  0.6896 -1.5427  0.7288
   44CHL1   C22 3238   0.076   2.408   8.200  0.2684  0.0949 -0.3556
   44CHL1  H22A 3239   0.186   2.426   8.209  0.4124 -0.1904 -1.3750
   44CHL1  H22B 3240   0.044   2.514   8.202  0.6192  0.2644 -2.1158
   44CHL1   C23 3241   0.013   2.330   8.321  0.9424 -0.5892 -0.9556
   44CHL1  H23A 3242  -0.098   2.336   8.322  0.9616  0.9900  1.8272
   44CHL1  H23B 3243   0.030   2.222   8.302 -0.8148 -1.1211  0.2202
   44CHL1   C24 3244   0.062   2.385   8.462 -0.5860 -0.2543  0.1638
   44CHL1  H24A 3245   0.172   2.368   8.467 -0.7314 -1.6135 -0.8136
   44CHL1  H24B 3246   0.048   2.495   8.451 -0.3285 -0.3467 -1.2451
   44CHL1   C25 3247  -0.006   2.338   8.592 -0.0769 -0.5097 -0.3850
   44CHL1   H25 3248   0.018   2.230   8.597  1.5279 -0.2156 -1.0920
   44CHL1   C26 3249   0.066   2.409   8.711  0.6963 -0.0134 -0.3794
   44CHL1  H26A 3250   0.175   2.396   8.694 -0.0261 -2.0799 -5.3641
   44CHL1  H26B 3251   0.043   2.517   8.706  3.4554  0.6054 -3.1402
   44CHL1  H26C 3252   0.037   2.366   8.809  1.5601 -2.6453 -1.1999
   44CHL1   C27 3253  -0.150   2.352   8.609 -0.1400  0.4924 -0.7212
   44CHL1  H27A 3254  -0.191   2.290   8.527  0.0717  0.5696 -0.8865
   44CHL1  H27B 3255  -0.171   2.310   8.710  0.3017  2.6654  0.3372
   44CHL1  H27C 3256  -0.188   2.455   8.593  0.9350  1.2597  1.2049
   45CHL1    C3 3257   5.993   6.516   7.268 -0.4222  0.3468  0.0092
   45CHL1    H3 3258   5.900   6.524   7.209  0.5732 -0.2832 -1.7319
   45CHL1    O3 3259   6.092   6.505   7.164  0.6276  0.1266 -0.1236
   45CHL1   H3' 3260   6.077   6.422   7.117 -0.8395 -0.5725  1.4853
   45CHL1    C4 3261   6.019   6.650   7.346  0.4028 -0.1219 -0.7464
   45CHL1   H4A 3262   6.127   6.652   7.373  0.6341 -2.3835 -1.2737
   45CHL1   H4B 3263   6.007   6.728   7.268 -0.5635 -0.8992 -1.3836
   45CHL1    C5 3264   5.926   6.656   7.465 -0.4279 -0.1330  0.0531
   45CHL1    C6 3265   5.842   6.755   7.485  0.2278 -0.2515 -0.5718
   45CHL1    H6 3266   5.822   6.821   7.399 -0.5063  0.3077  0.0242
   45CHL1    C7 3267   5.778   6.774   7.623  0.5167  0.0004 -0.6023
   45CHL1   H7A 3268   5.802   6.875   7.662 -0.2876  0.2536 -0.7518
   45CHL1   H7B 3269   5.669   6.753   7.626  0.5873 -0.2661  1.7745
   45CHL1    C8 3270   5.826   6.682   7.741  0.1694 -0.1024 -1.0753
   45CHL1    H8 3271   5.926   6.719   7.772 -0.2095  1.0748 -1.2153
   45CHL1   C14 3272   5.734   6.683   7.860  0.2250 -0.3899  0.1499
   45CHL1   H14 3273   5.634   6.651   7.826  0.5059  1.6189 -2.9026
   45CHL1   C15 3274   5.711   6.815   7.929 -0.3844 -0.0839 -0.2450
   45CHL1  H15A 3275   5.810   6.859   7.952 -0.5492 -0.6754  1.7704
   45CHL1  H15B 3276   5.654   6.892   7.873  2.0756  2.3775  0.4324
   45CHL1   C16 3277   5.641   6.771   8.056  0.4551  0.8375 -0.5610
   45CHL1  H16A 3278   5.696   6.828   8.134  0.3668  0.3584 -0.1429
   45CHL1  H16B 3279   5.536   6.798   8.076  0.6912 -0.0327  2.2946
   45CHL1   C17 3280   5.660   6.619   8.065 -1.2466 -0.0219 -0.5967
   45CHL1   H17 3281   5.568   6.571   8.025 -1.1640 -1.4282  0.7713
   45CHL1   C13 3282   5.767   6.578   7.964  0.6777  0.7096  0.1364
   45CHL1   C18 3283   5.909   6.607   8.035 -0.2437 -0.4456 -0.2286
   45CHL1  H18A 3284   5.991   6.607   7.960  0.4562  0.6712  0.5159
   45CHL1  H18B 3285   5.921   6.704   8.087 -0.4941  1.8387 -4.0529
   45CHL1  H18C 3286   5.930   6.518   8.097  0.7305 -0.0380  0.0365
   45CHL1   C12 3287   5.770   6.437   7.910 -0.3588  1.0520 -0.0176
   45CHL1  H12A 3288   5.813   6.377   7.993  0.9851  1.0948 -0.6527
   45CHL1  H12B 3289   5.665   6.406   7.890 -0.2397  1.6803 -1.8849
   45CHL1   C11 3290   5.857   6.425   7.784 -0.8186  0.0597 -0.0466
   45CHL1  H11A 3291   5.958   6.425   7.830 -0.4032 -0.9009 -0.9181
   45CHL1  H11B 3292   5.846   6.323   7.740  1.7621 -0.4272  0.3040
   45CHL1    C9 3293   5.839   6.541   7.687 -0.2939 -0.2840 -0.2985
   45CHL1    H9 3294   5.739   6.522   7.642 -1.0813 -1.2987  1.7596
   45CHL1   C10 3295   5.944   6.543   7.569 -0.3487 -0.3189 -0.4454
   45CHL1   C19 3296   6.092   6.538   7.611  0.7320  0.0142  0.4661
   45CHL1  H19A 3297   6.165   6.496   7.539  0.3119 -1.0331  0.6326
   45CHL1  H19B 3298   6.117   6.642   7.638 -0.1537  0.7304 -1.2800
   45CHL1  H19C 3299   6.105   6.474   7.701  1.1335 -0.5535  0.0134
   45CHL1    C1 3300   5.912   6.415   7.486 -0.5107 -0.3455  0.6081
   45CHL1   H1A 3301   5.934   6.333   7.558  1.4696 -0.4213 -0.0334
   45CHL1   H1B 3302   5.811   6.403   7.441  0.4732 -3.0938 -1.1784
   45CHL1    C2 3303   5.999   6.393   7.359 -0.2930 -0.1720 -0.3726
   45CHL1   H2A 3304   5.960   6.302   7.310 -1.3500 -1.2912  2.3326
   45CHL1   H2B 3305   6.103   6.368   7.389 -0.7353 -1.1820  0.3629
   45CHL1   C20 3306   5.673   6.570   8.216  0.6903  0.0307 -0.4317
   45CHL1   H20 3307   5.752   6.636   8.259 -0.5996  1.4623 -0.2033
   45CHL1   C21 3308   5.700   6.416   8.235 -0.1672  0.7206  0.1032
   45CHL1  H21A 3309   5.713   6.398   8.344  0.4210 -0.5283 -0.1467
   45CHL1  H21B 3310   5.801   6.394   8.194 -0.7333 -1.6644 -0.1571
   45CHL1  H21C 3311   5.634   6.340   8.188  0.7906  0.0854 -0.2666
   45CHL1   C22 3312   5.543   6.600   8.296 -0.0016  0.3500  0.1201
   45CHL1  H22A 3313   5.542   6.711   8.306  1.4426  0.2937  1.2492
   45CHL1  H22B 3314   5.461   6.551   8.239  1.6490 -1.1283 -1.0510
   45CHL1   C23 3315   5.537   6.547   8.446  0.6298 -0.4792  0.1145
   45CHL1  H23A 3316   5.536   6.436   8.447 -4.1184 -0.7033  2.1753
   45CHL1  H23B 3317   5.628   6.594   8.489  0.7188 -0.8072  0.2842
   45CHL1   C24 3318   5.412   6.595   8.524 -0.4756  0.3842  0.6660
   45CHL1  H24A 3319   5.421   6.705   8.534 -0.1946  0.7223 -2.2693
   45CHL1  H24B 3320   5.318   6.564   8.472  1.4447 -0.0950 -2.8535
   45CHL1   C25 3321   5.406   6.543   8.671  0.2726 -0.1077 -0.0519
   45CHL1   H25 3322   5.504   6.566   8.717  1.2230  0.3575 -2.1988
   45CHL1   C26 3323   5.304   6.628   8.752  0.0817  0.2431  0.0157
   45CHL1  H26A 3324   5.297   6.585   8.854 -1.2127 -3.2570 -1.4098
   45CHL1  H26B 3325   5.323   6.738   8.750 -3.1804  0.9029 -0.3995
   45CHL1  H26C 3326   5.198   6.612   8.722 -0.1903 -3.0745  2.2333
   45CHL1   C27 3327   5.387   6.387   8.687  0.4695  0.3215 -0.0836
   45CHL1  H27A 3328   5.451   6.326   8.620 -0.9019 -0.2706 -0.8956
   45CHL1  H27B 3329   5.398   6.364   8.795 -3.3078 -0.7293  0.2016
   45CHL1  H27C 3330   5.285   6.360   8.652  1.2157  1.5074 -3.5867
   46CHL1    C3 3331   0.612   1.781   7.242 -0.0233  0.0712 -0.5389
   46CHL1    H3 3332   0.701   1.825   7.291 -0.1766 -0.1093 -0.0948
   46CHL1    O3 3333   0.644   1.760   7.104 -0.1054  0.5622 -0.4905
   46CHL1   H3' 3334   0.562   1.743   7.056  0.9215  1.4918 -2.7387
   46CHL1    C4 3335   0.566   1.642   7.292 -0.2370 -0.2748 -0.1487
   46CHL1   H4A 3336   0.494   1.608   7.216  1.1594 -2.4340 -0.5905
   46CHL1   H4B 3337   0.646   1.567   7.274 -1.7801 -2.1652  0.5660
   46CHL1    C5 3338   0.531   1.647   7.441  0.1605  0.3217 -0.1987
   46CHL1    C6 3339   0.577   1.549   7.523 -0.3825 -0.0750  0.0067
   46CHL1    H6 3340   0.637   1.470   7.476  0.2467  0.5597 -0.2818
   46CHL1    C7 3341   0.550   1.544   7.671 -0.6002  0.9013 -0.2140
   46CHL1   H7A 3342   0.525   1.440   7.698 -1.1703  0.2274 -3.0040
   46CHL1   H7B 3343   0.644   1.572   7.722 -0.2616 -0.0352 -0.3050
   46CHL1    C8 3344   0.421   1.628   7.708 -0.2699  0.0892  0.0227
   46CHL1    H8 3345   0.335   1.566   7.675 -1.3850  1.0420  1.0548
   46CHL1   C14 3346   0.413   1.649   7.859  0.1074  0.6347  0.5682
   46CHL1   H14 3347   0.507   1.699   7.890  0.6915 -0.7748  1.1480
   46CHL1   C15 3348   0.416   1.520   7.948  0.1869 -0.2905  0.1794
   46CHL1  H15A 3349   0.339   1.452   7.906  1.3386 -0.4489 -1.7851
   46CHL1  H15B 3350   0.523   1.490   7.942  0.3596  0.0132  1.4053
   46CHL1   C16 3351   0.363   1.575   8.084 -0.3410  0.5909  0.1679
   46CHL1  H16A 3352   0.279   1.508   8.115  1.1787 -1.8603 -0.7205
   46CHL1  H16B 3353   0.444   1.559   8.158  1.1492  0.8325 -1.3693
   46CHL1   C17 3354   0.323   1.724   8.069  0.3651  0.0135  0.2173
   46CHL1   H17 3355   0.419   1.777   8.085  0.7355 -0.9057  1.1600
   46CHL1   C13 3356   0.296   1.735   7.910 -0.0562 -0.2518 -0.2506
   46CHL1   C18 3357   0.156   1.666   7.897 -0.5586 -0.2294  0.3893
   46CHL1  H18A 3358   0.081   1.747   7.907 -0.3243  0.0775 -0.3159
   46CHL1  H18B 3359   0.145   1.639   7.790 -0.9553 -0.3078  0.4475
   46CHL1  H18C 3360   0.146   1.588   7.976  2.0711  0.5511  1.6027
   46CHL1   C12 3361   0.305   1.871   7.838  0.0015 -0.4168 -0.4264
   46CHL1  H12A 3362   0.210   1.918   7.869 -1.7261 -2.9659 -1.4962
   46CHL1  H12B 3363   0.398   1.922   7.871  0.0248  0.7449 -2.1913
   46CHL1   C11 3364   0.313   1.855   7.687 -0.0753 -0.2477  0.0796
   46CHL1  H11A 3365   0.214   1.811   7.661  0.9187 -3.0518  0.6728
   46CHL1  H11B 3366   0.321   1.959   7.647 -1.7448  0.1812  0.7780
   46CHL1    C9 3367   0.423   1.759   7.632  0.4809  0.0728  0.3895
   46CHL1    H9 3368   0.511   1.819   7.664 -0.2910  0.8568  1.0985
   46CHL1   C10 3369   0.428   1.747   7.475 -0.2963 -0.4467 -0.8590
   46CHL1   C19 3370   0.294   1.698   7.426  0.4348  0.0818  0.1933
   46CHL1  H19A 3371   0.212   1.768   7.453  0.3398  0.4336 -0.9481
   46CHL1  H19B 3372   0.289   1.704   7.315 -0.9834  2.4820  0.3093
   46CHL1  H19C 3373   0.286   1.595   7.466 -0.7344 -0.1576 -0.6131
   46CHL1    C1 3374   0.459   1.883   7.408 -0.1823  0.1085 -0.6148
   46CHL1   H1A 3375   0.370   1.947   7.426 -2.3441 -3.1702  1.3936
   46CHL1   H1B 3376   0.548   1.927   7.457 -0.4569  0.8363 -0.7578
   46CHL1    C2 3377   0.495   1.877   7.264  0.3544 -0.3328  0.5134
   46CHL1   H2A 3378   0.526   1.974   7.219 -2.2364  0.5315  0.4374
   46CHL1   H2B 3379   0.409   1.856   7.196  1.0815  0.5120 -0.6974
   46CHL1   C20 3380   0.217   1.763   8.172  0.1685 -0.5740 -0.1586
   46CHL1   H20 3381   0.131   1.699   8.141  0.5525 -0.5965 -1.2271
   46CHL1   C21 3382   0.191   1.914   8.172  0.2505  0.5917 -0.4975
   46CHL1  H21A 3383   0.154   1.940   8.071 -0.2378  1.6279 -0.0691
   46CHL1  H21B 3384   0.281   1.977   8.188  0.7781 -0.3678  0.4704
   46CHL1  H21C 3385   0.118   1.940   8.251 -0.5592 -0.0420 -1.0272
   46CHL1   C22 3386   0.245   1.715   8.312  0.0953  0.2503 -0.3840
   46CHL1  H22A 3387   0.148   1.714   8.366 -1.5862 -0.5085 -3.2127
   46CHL1  H22B 3388   0.282   1.610   8.320 -1.7605 -0.3173  2.1142
   46CHL1   C23 3389   0.348   1.786   8.405 -0.8484  0.4549 -0.0294
   46CHL1  H23A 3390   0.451   1.778   8.362  0.2725 -1.0806  2.6897
   46CHL1  H23B 3391   0.325   1.893   8.422  1.6216  0.9951  0.3919
   46CHL1   C24 3392   0.372   1.716   8.542 -1.0444  0.0693 -0.5280
   46CHL1  H24A 3393   0.466   1.757   8.586 -1.3430  1.1795 -0.8805
   46CHL1  H24B 3394   0.294   1.735   8.619 -1.4687 -0.0814 -0.9228
   46CHL1   C25 3395   0.383   1.560   8.544  0.4074  0.5250  0.0960
   46CHL1   H25 3396   0.433   1.533   8.448  0.1041  1.0011 -0.1962
   46CHL1   C26 3397   0.463   1.513   8.664  0.3873 -0.1442  0.8392
   46CHL1  H26A 3398   0.430   1.562   8.758  0.6441 -0.5010  1.1196
   46CHL1  H26B 3399   0.449   1.403   8.669 -1.4719 -0.0421 -0.9478
   46CHL1  H26C 3400   0.572   1.533   8.652  0.3167 -0.9084 -1.6619
   46CHL1   C27 3401   0.242   1.499   8.552 -0.2585 -1.0668  0.6461
   46CHL1  H27A 3402   0.181   1.538   8.468  0.1937  0.3628  0.9642
   46CHL1  H27B 3403   0.250   1.389   8.538 -1.4734 -1.3420  1.9624
   46CHL1  H27C 3404   0.197   1.504   8.653 -2.4731 -1.3677 -0.2683
   47CHL1    C3 3405   6.422   1.153   6.981 -0.1802 -0.3092  0.4522
   47CHL1    H3 3406   6.493   1.068   6.993 -1.4995 -1.3003  1.7192
   47CHL1    O3 3407   6.423   1.209   6.849 -0.3738  0.2672 -0.3614
   47CHL1   H3' 3408   6.381   1.294   6.860  0.2080  0.2956  2.4394
   47CHL1    C4 3409   6.276   1.099   7.004 -0.5902  0.2532 -0.2029
   47CHL1   H4A 3410   6.194   1.170   6.981 -2.3921 -0.1208  4.1105
   47CHL1   H4B 3411   6.254   1.016   6.934 -1.9401 -0.3369  0.8782
   47CHL1    C5 3412   6.253   1.052   7.151 -0.2916 -0.2966  0.2615
   47CHL1    C6 3413   6.217   0.927   7.166  0.4515  0.1583 -0.1429
   47CHL1    H6 3414   6.208   0.864   7.076 -3.0056 -2.5589  1.8203
   47CHL1    C7 3415   6.191   0.872   7.307  0.3334 -0.5394  0.2587
   47CHL1   H7A 3416   6.093   0.819   7.306 -0.0322  0.1406 -0.9859
   47CHL1   H7B 3417   6.278   0.808   7.334  1.6428  1.4056  0.8432
   47CHL1    C8 3418   6.178   0.980   7.422 -0.5266 -0.2523  0.3051
   47CHL1    H8 3419   6.077   1.024   7.409 -0.8165 -0.6259  1.2140
   47CHL1   C14 3420   6.207   0.918   7.563  0.5039  0.6520 -0.3485
   47CHL1   H14 3421   6.314   0.888   7.569  0.0249 -0.8930  4.1608
   47CHL1   C15 3422   6.116   0.792   7.587 -1.4449 -0.4783  0.9861
   47CHL1  H15A 3423   6.018   0.818   7.540  0.6563  3.4517 -1.8388
   47CHL1  H15B 3424   6.163   0.707   7.533  1.6693  3.2571 -2.9768
   47CHL1   C16 3425   6.105   0.785   7.739 -0.0371 -0.4305 -0.2808
   47CHL1  H16A 3426   5.998   0.784   7.769 -0.6326 -1.6497 -2.1726
   47CHL1  H16B 3427   6.132   0.686   7.782 -4.8546 -2.1797 -0.6272
   47CHL1   C17 3428   6.187   0.911   7.792 -0.3103 -0.8029 -1.0784
   47CHL1   H17 3429   6.291   0.874   7.793 -0.6127 -1.6741 -0.9126
   47CHL1   C13 3430   6.186   1.015   7.678  0.0198 -0.5626 -0.2782
   47CHL1   C18 3431   6.045   1.073   7.680  0.2384 -0.5315  0.6566
   47CHL1  H18A 3432   6.025   1.137   7.592  0.2859 -2.2987 -0.6802
   47CHL1  H18B 3433   5.970   0.992   7.693  0.1133 -0.7760 -1.3011
   47CHL1  H18C 3434   6.040   1.138   7.770  1.5233  1.0177 -0.3426
   47CHL1   C12 3435   6.294   1.128   7.664  0.0424  0.5128 -0.1405
   47CHL1  H12A 3436   6.284   1.211   7.738  0.7733  0.1744  0.3455
   47CHL1  H12B 3437   6.398   1.091   7.676  0.0657  0.8567  0.7636
   47CHL1   C11 3438   6.297   1.185   7.519  0.1920  0.1985  0.0024
   47CHL1  H11A 3439   6.206   1.248   7.513 -0.2276 -0.4728 -0.7594
   47CHL1  H11B 3440   6.387   1.248   7.498 -0.0573  2.1714  3.8233
   47CHL1    C9 3441   6.289   1.086   7.401  0.0751 -0.6116 -0.0858
   47CHL1    H9 3442   6.376   1.019   7.416  0.6343  0.5851  2.8488
   47CHL1   C10 3443   6.292   1.149   7.260  0.0317  0.0803  0.2222
   47CHL1   C19 3444   6.195   1.257   7.251  0.1878  0.1561 -0.7760
   47CHL1  H19A 3445   6.226   1.349   7.305  0.0709  0.2870 -0.9294
   47CHL1  H19B 3446   6.168   1.284   7.147 -2.5342  1.4679  0.1680
   47CHL1  H19C 3447   6.098   1.227   7.298 -0.4419  0.9464 -1.5275
   47CHL1    C1 3448   6.436   1.200   7.227  0.1823 -0.0997 -0.4958
   47CHL1   H1A 3449   6.469   1.271   7.306 -0.3344 -2.0602  1.5849
   47CHL1   H1B 3450   6.505   1.115   7.246  2.9922  2.1876  0.2887
   47CHL1    C2 3451   6.457   1.262   7.084 -0.5581 -0.0766 -0.2360
   47CHL1   H2A 3452   6.563   1.295   7.074 -0.6583  1.0932  1.9137
   47CHL1   H2B 3453   6.392   1.350   7.065 -1.6376  0.0571  3.3747
   47CHL1   C20 3454   6.154   0.956   7.944  0.4979  0.1753  0.0174
   47CHL1   H20 3455   6.059   1.014   7.940  0.1580 -0.3253  0.6158
   47CHL1   C21 3456   6.273   1.033   8.009 -0.1803  0.7900 -0.3978
   47CHL1  H21A 3457   6.327   1.101   7.939 -0.3040  1.3844  0.0796
   47CHL1  H21B 3458   6.345   0.959   8.049  0.2967  0.5776 -1.5849
   47CHL1  H21C 3459   6.238   1.097   8.092  2.0998  0.0682  1.2151
   47CHL1   C22 3460   6.127   0.839   8.033 -0.0251  0.3930  0.0961
   47CHL1  H22A 3461   6.040   0.787   7.988  0.2067  0.7858 -0.8308
   47CHL1  H22B 3462   6.217   0.774   8.020 -1.1732 -1.0267 -1.1075
   47CHL1   C23 3463   6.085   0.879   8.181 -0.2501  1.1357 -0.6262
   47CHL1  H23A 3464   6.177   0.909   8.235  0.0011 -1.4510  0.5359
   47CHL1  H23B 3465   6.018   0.968   8.187 -1.0001  0.6560 -1.5798
   47CHL1   C24 3466   6.031   0.755   8.256 -0.5492  0.1363 -0.1967
   47CHL1  H24A 3467   5.938   0.721   8.204 -0.8118  0.6209 -0.0572
   47CHL1  H24B 3468   6.104   0.672   8.253 -0.2396  0.2574  2.0563
   47CHL1   C25 3469   5.999   0.764   8.407  0.4620  0.2662  0.2557
   47CHL1   H25 3470   6.096   0.797   8.452  0.5909  1.1434 -0.6220
   47CHL1   C26 3471   5.897   0.872   8.442 -0.4137 -0.0684  0.7105
   47CHL1  H26A 3472   5.898   0.881   8.553 -0.8096 -3.5732  1.1073
   47CHL1  H26B 3473   5.932   0.967   8.398 -0.4374 -0.7527 -0.8549
   47CHL1  H26C 3474   5.794   0.856   8.403 -0.6923  1.5986  0.7162
   47CHL1   C27 3475   5.970   0.622   8.461  0.3169 -0.0399 -0.1186
   47CHL1  H27A 3476   5.940   0.631   8.567  0.6824  1.4101 -0.1149
   47CHL1  H27B 3477   5.887   0.568   8.410  1.1867 -1.7326  0.1833
   47CHL1  H27C 3478   6.060   0.557   8.457  1.1471  1.0359  0.4649
   48CHL1    C3 3479   4.181   4.693   6.516  0.5343 -1.1351  0.3994
   48CHL1    H3 3480   4.225   4.593   6.532  1.1094 -0.7943  1.0315
   48CHL1    O3 3481   4.199   4.746   6.384 -0.5446 -0.4212  0.0417
   48CHL1   H3' 3482   4.175   4.839   6.387 -0.5235 -0.3945 -0.4259
   48CHL1    C4 3483   4.032   4.688   6.555 -0.3595  0.6602 -0.8969
   48CHL1   H4A 3484   3.995   4.786   6.517 -0.1856  1.0612 -0.0545
   48CHL1   H4B 3485   3.988   4.607   6.493  0.7349 -0.6254 -0.0233
   48CHL1    C5 3486   4.007   4.661   6.701 -0.1059 -0.4007  0.0930
   48CHL1    C6 3487   3.927   4.564   6.740  0.2170  0.3919 -0.1103
   48CHL1    H6 3488   3.880   4.498   6.666 -0.7722  1.7258 -0.6883
   48CHL1    C7 3489   3.889   4.542   6.885  0.3558 -0.4491  0.0542
   48CHL1   H7A 3490   3.779   4.535   6.898  0.1973  2.8771  1.7150
   48CHL1   H7B 3491   3.923   4.448   6.933 -0.0243  0.7125  2.7358
   48CHL1    C8 3492   3.931   4.653   6.979 -0.3307 -1.2408 -0.3912
   48CHL1    H8 3493   3.860   4.736   6.959  0.0697 -1.3645 -2.5019
   48CHL1   C14 3494   3.932   4.605   7.125 -0.5797  0.1570  0.3630
   48CHL1   H14 3495   4.014   4.531   7.124 -0.6579  0.0696 -1.3340
   48CHL1   C15 3496   3.809   4.529   7.186 -0.2942 -0.0762  0.2564
   48CHL1  H15A 3497   3.715   4.581   7.158 -1.4014 -2.3712 -0.4857
   48CHL1  H15B 3498   3.810   4.424   7.151  0.2989 -0.3439  1.0365
   48CHL1   C16 3499   3.836   4.531   7.335  0.3218  0.1638 -0.3378
   48CHL1  H16A 3500   3.743   4.563   7.387  0.2216 -1.4489  0.5430
   48CHL1  H16B 3501   3.847   4.432   7.385 -1.8001  0.4908  0.8915
   48CHL1   C17 3502   3.963   4.617   7.361  0.5269 -0.9537  0.0257
   48CHL1   H17 3503   4.046   4.543   7.358  0.8857 -0.5100 -1.5211
   48CHL1   C13 3504   3.970   4.700   7.233 -0.8595 -0.4248 -0.4214
   48CHL1   C18 3505   3.875   4.824   7.236 -0.4653 -0.0677 -0.0406
   48CHL1  H18A 3506   3.770   4.799   7.264 -0.1477 -0.9208  0.4204
   48CHL1  H18B 3507   3.914   4.895   7.312  0.8459 -0.8081 -0.0008
   48CHL1  H18C 3508   3.876   4.869   7.134  1.3738 -1.3556 -0.6352
   48CHL1   C12 3509   4.120   4.739   7.210  0.3149 -0.1052  0.5380
   48CHL1  H12A 3510   4.156   4.814   7.283 -1.0535  1.6082 -0.4766
   48CHL1  H12B 3511   4.188   4.651   7.219  2.7318  1.6999  0.8300
   48CHL1   C11 3512   4.135   4.799   7.064  0.7897  0.2623  0.2594
   48CHL1  H11A 3513   4.078   4.894   7.058 -1.9497 -1.3173 -0.8628
   48CHL1  H11B 3514   4.239   4.821   7.034  0.3379  2.0604 -0.1076
   48CHL1    C9 3515   4.067   4.710   6.950 -0.1131  0.0573 -0.8333
   48CHL1    H9 3516   4.131   4.620   6.959  1.2069  0.9674 -0.8522
   48CHL1   C10 3517   4.082   4.753   6.801  0.5955 -0.1096 -0.0335
   48CHL1   C19 3518   4.020   4.902   6.796  0.2914 -0.1653 -0.6241
   48CHL1  H19A 3519   3.926   4.906   6.854  1.0684  0.1384  0.6433
   48CHL1  H19B 3520   4.096   4.969   6.841 -1.2409 -0.2796  2.3768
   48CHL1  H19C 3521   3.993   4.938   6.694  1.8879 -0.7426 -1.2886
   48CHL1    C1 3522   4.230   4.752   6.759  0.1917 -0.8914 -0.1019
   48CHL1   H1A 3523   4.280   4.832   6.817  0.9564  0.3661 -2.3940
   48CHL1   H1B 3524   4.279   4.653   6.775 -0.2500 -0.7399  2.6633
   48CHL1    C2 3525   4.256   4.788   6.609  1.0092  0.6491  0.6732
   48CHL1   H2A 3526   4.361   4.793   6.574  0.9960 -2.0052  0.0965
   48CHL1   H2B 3527   4.205   4.885   6.593 -1.2235 -0.5226  0.2994
   48CHL1   C20 3528   3.950   4.682   7.505 -0.4772  0.6291  0.2207
   48CHL1   H20 3529   3.857   4.741   7.518 -0.4022  0.8112 -0.0514
   48CHL1   C21 3530   4.062   4.784   7.529 -1.3646 -0.4087 -0.4716
   48CHL1  H21A 3531   4.163   4.752   7.495 -1.2206 -0.1876 -0.2531
   48CHL1  H21B 3532   4.057   4.821   7.633  1.9222 -1.7222  0.2821
   48CHL1  H21C 3533   4.035   4.874   7.469 -0.2922  0.1339 -0.1606
   48CHL1   C22 3534   3.953   4.569   7.614  0.3447  0.1111  0.1087
   48CHL1  H22A 3535   3.871   4.497   7.595 -0.7001  1.0500  0.9103
   48CHL1  H22B 3536   4.049   4.517   7.595  0.6620  1.5944 -3.1881
   48CHL1   C23 3537   3.907   4.608   7.752  0.3914 -0.9552  0.0329
   48CHL1  H23A 3538   3.965   4.696   7.786 -0.2267 -1.1983  1.8546
   48CHL1  H23B 3539   3.800   4.639   7.752  0.3339 -1.1141  1.2298
   48CHL1   C24 3540   3.921   4.497   7.855 -0.1723 -0.1675 -0.7078
   48CHL1  H24A 3541   3.884   4.398   7.821  0.6066  0.0331 -2.2036
   48CHL1  H24B 3542   4.031   4.487   7.865 -0.4074 -1.6783  1.0085
   48CHL1   C25 3543   3.851   4.527   7.993 -0.8679 -0.5680  0.7390
   48CHL1   H25 3544   3.761   4.581   7.957  1.0895  0.8303 -2.6022
   48CHL1   C26 3545   3.817   4.397   8.067  0.4699 -0.3922  0.0874
   48CHL1  H26A 3546   3.909   4.335   8.070 -0.8176 -2.3555  1.1831
   48CHL1  H26B 3547   3.777   4.421   8.168  1.7124 -0.3821  0.6002
   48CHL1  H26C 3548   3.743   4.344   8.004 -0.5771  0.4000  0.6301
   48CHL1   C27 3549   3.936   4.628   8.077 -0.1682 -0.5616 -0.4081
   48CHL1  H27A 3550   4.031   4.584   8.112 -1.6162 -1.6223  2.5703
   48CHL1  H27B 3551   3.970   4.715   8.018 -0.3321 -0.3974 -0.2623
   48CHL1  H27C 3552   3.879   4.674   8.161  1.9237 -2.2968  2.1235
   49CHL1    C3 3553   1.242   4.670   7.016  0.8633  0.7158  0.1157
   49CHL1    H3 3554   1.152   4.609   6.992  0.3843  1.3880  0.1996
   49CHL1    O3 3555   1.288   4.729   6.895 -0.2784 -0.7532  0.1176
   49CHL1   H3' 3556   1.353   4.792   6.925 -1.7723  1.1667 -0.4993
   49CHL1    C4 3557   1.214   4.777   7.123 -0.7256  0.6079 -0.4165
   49CHL1   H4A 3558   1.304   4.833   7.153 -0.1575 -1.5878  2.4388
   49CHL1   H4B 3559   1.142   4.855   7.089  2.1294  3.4399 -0.3723
   49CHL1    C5 3560   1.181   4.709   7.256  0.5146  0.8830 -0.4426
   49CHL1    C6 3561   1.077   4.747   7.329 -0.9689  0.1514 -0.6585
   49CHL1    H6 3562   1.007   4.821   7.286 -2.1494 -0.3563  0.3367
   49CHL1    C7 3563   1.059   4.697   7.467  0.6873 -0.3019  0.0634
   49CHL1   H7A 3564   1.013   4.782   7.522 -1.2251 -0.9324 -0.4967
   49CHL1   H7B 3565   0.988   4.612   7.461  0.9297 -0.4291 -1.4297
   49CHL1    C8 3566   1.189   4.642   7.534  0.3178  0.4144 -0.1570
   49CHL1    H8 3567   1.264   4.722   7.551 -0.1480  0.4422  1.9918
   49CHL1   C14 3568   1.149   4.580   7.667  0.4211  0.2318 -0.3557
   49CHL1   H14 3569   1.083   4.497   7.633 -1.1056  1.7138 -1.1818
   49CHL1   C15 3570   1.076   4.665   7.772 -0.1976 -0.0774  0.7923
   49CHL1  H15A 3571   1.134   4.760   7.766 -1.9062  0.9486 -3.1602
   49CHL1  H15B 3572   0.975   4.708   7.755 -0.1527  0.3765  1.6577
   49CHL1   C16 3573   1.097   4.595   7.906  0.4483 -0.0317  0.4129
   49CHL1  H16A 3574   1.145   4.669   7.973  0.8771  2.1650 -2.1530
   49CHL1  H16B 3575   1.006   4.561   7.960  0.6422 -0.8863  0.2280
   49CHL1   C17 3576   1.200   4.477   7.879 -0.1068  0.2436  0.2202
   49CHL1   H17 3577   1.143   4.385   7.856 -0.4507  0.6866 -0.7707
   49CHL1   C13 3578   1.262   4.509   7.739  0.4678  0.2161  0.5433
   49CHL1   C18 3579   1.376   4.606   7.774  1.2798  0.0598 -0.1093
   49CHL1  H18A 3580   1.430   4.635   7.681  0.5043 -0.5751 -0.7738
   49CHL1  H18B 3581   1.338   4.696   7.827  0.7294 -0.6281  0.6913
   49CHL1  H18C 3582   1.453   4.561   7.840  0.4902  2.5122  2.6610
   49CHL1   C12 3583   1.310   4.399   7.644 -0.2861  0.0390 -0.1285
   49CHL1  H12A 3584   1.384   4.325   7.681  0.1923  1.1308  1.2004
   49CHL1  H12B 3585   1.214   4.347   7.624 -1.4187  1.2972  1.7049
   49CHL1   C11 3586   1.359   4.446   7.511 -0.1896 -0.0446  0.2716
   49CHL1  H11A 3587   1.456   4.499   7.525 -0.2032 -0.2185  1.0530
   49CHL1  H11B 3588   1.379   4.364   7.439  0.0180 -0.6186  0.9748
   49CHL1    C9 3589   1.252   4.537   7.440 -0.4805 -0.2003 -0.4943
   49CHL1    H9 3590   1.169   4.475   7.400 -0.3105 -1.3090  0.7948
   49CHL1   C10 3591   1.292   4.612   7.315 -0.6238  0.0711  0.1943
   49CHL1   C19 3592   1.425   4.697   7.332 -0.2962 -0.0378  0.3987
   49CHL1  H19A 3593   1.402   4.779   7.403 -2.9620 -0.7638  0.4949
   49CHL1  H19B 3594   1.504   4.631   7.374 -0.6064  0.0004  1.0526
   49CHL1  H19C 3595   1.464   4.750   7.243  0.5063 -0.8509  0.2532
   49CHL1    C1 3596   1.325   4.511   7.194  0.2488  1.0397  0.3922
   49CHL1   H1A 3597   1.407   4.448   7.234 -0.5327  0.3201  0.9043
   49CHL1   H1B 3598   1.236   4.446   7.178  1.6487 -0.9720  0.3575
   49CHL1    C2 3599   1.353   4.572   7.060  0.2208  0.3455  0.0826
   49CHL1   H2A 3600   1.365   4.491   6.984 -0.5442  1.9084 -1.7697
   49CHL1   H2B 3601   1.449   4.628   7.064  0.1743  0.9776 -3.6707
   49CHL1   C20 3602   1.280   4.449   8.006 -0.4353 -0.0341 -0.2838
   49CHL1   H20 3603   1.353   4.533   8.017  0.2245 -0.3051 -2.1819
   49CHL1   C21 3604   1.360   4.324   7.979  0.1370  0.5497  1.2360
   49CHL1  H21A 3605   1.436   4.318   8.060 -1.0303  1.3741  2.4296
   49CHL1  H21B 3606   1.424   4.334   7.889 -0.5406  0.0136  0.6856
   49CHL1  H21C 3607   1.306   4.226   7.979  1.6410 -0.4730 -2.8594
   49CHL1   C22 3608   1.182   4.441   8.133 -0.1675  0.4565  0.3851
   49CHL1  H22A 3609   1.242   4.434   8.226 -3.3246 -0.4745  2.5142
   49CHL1  H22B 3610   1.131   4.539   8.150  2.6221  1.4935  4.2927
   49CHL1   C23 3611   1.068   4.336   8.139 -0.1190 -0.4356  0.0699
   49CHL1  H23A 3612   0.996   4.363   8.059  2.3468  3.0382 -1.2320
   49CHL1  H23B 3613   1.100   4.231   8.126  0.1116 -0.1738 -1.6460
   49CHL1   C24 3614   0.980   4.346   8.266  0.0903  0.4726 -1.0001
   49CHL1  H24A 3615   0.924   4.442   8.275 -2.6119 -1.0791 -0.0142
   49CHL1  H24B 3616   0.896   4.274   8.265 -1.0018  1.6598  0.5773
   49CHL1   C25 3617   1.073   4.325   8.389 -0.2221  0.5147  0.4589
   49CHL1   H25 3618   1.149   4.405   8.388  0.3581  0.0003  1.5859
   49CHL1   C26 3619   0.991   4.344   8.513  0.0418  0.2801 -0.6211
   49CHL1  H26A 3620   0.933   4.438   8.503  0.9423  0.9131 -0.0804
   49CHL1  H26B 3621   0.930   4.254   8.533  1.4371 -0.2855  1.3259
   49CHL1  H26C 3622   1.065   4.361   8.594  0.5940  1.8285 -1.4123
   49CHL1   C27 3623   1.153   4.185   8.382  0.1713 -0.1033  0.2756
   49CHL1  H27A 3624   1.207   4.160   8.476  0.3689 -0.0129  0.1862
   49CHL1  H27B 3625   1.086   4.102   8.350  0.2766 -1.1812  2.6361
   49CHL1  H27C 3626   1.223   4.190   8.295 -2.5196  0.2888 -2.0116
   50CHL1    C3 3627   0.435   0.619   7.171  0.0236  0.2791  1.0501
   50CHL1    H3 3628   0.326   0.604   7.186  0.0333  0.8101  1.6900
   50CHL1    O3 3629   0.446   0.661   7.030  0.2471 -0.4334  0.3954
   50CHL1   H3' 3630   0.383   0.731   7.016  0.8379  0.0512  0.1256
   50CHL1    C4 3631   0.487   0.732   7.260 -0.7357  0.0420 -0.3199
   50CHL1   H4A 3632   0.594   0.752   7.240 -0.5037 -1.3861 -0.6267
   50CHL1   H4B 3633   0.433   0.825   7.234 -0.2102 -0.1093 -2.0777
   50CHL1    C5 3634   0.460   0.705   7.411 -0.0052  0.3600  0.3083
   50CHL1    C6 3635   0.397   0.789   7.489 -0.0342 -0.6066 -0.2404
   50CHL1    H6 3636   0.369   0.887   7.448  1.5238 -0.6394 -1.4600
   50CHL1    C7 3637   0.365   0.769   7.630  0.0009  0.6456  0.2279
   50CHL1   H7A 3638   0.415   0.850   7.688  0.2271  0.6815 -0.0173
   50CHL1   H7B 3639   0.257   0.760   7.656  0.4150  1.2022  2.3434
   50CHL1    C8 3640   0.438   0.651   7.695  0.5341  0.6951 -0.3391
   50CHL1    H8 3641   0.543   0.687   7.704  1.5677 -2.1637 -0.0514
   50CHL1   C14 3642   0.368   0.618   7.823 -0.4813  0.4263 -0.3125
   50CHL1   H14 3643   0.273   0.570   7.792 -0.3747  0.3715 -0.5588
   50CHL1   C15 3644   0.337   0.726   7.922  0.2217  0.2838 -0.5526
   50CHL1  H15A 3645   0.415   0.805   7.919  1.4724 -0.8669  0.4536
   50CHL1  H15B 3646   0.239   0.775   7.903  0.5098  1.1934  0.2156
   50CHL1   C16 3647   0.340   0.669   8.067 -0.2129  0.6345 -0.0347
   50CHL1  H16A 3648   0.426   0.708   8.126  0.0331 -0.1484  0.1346
   50CHL1  H16B 3649   0.241   0.678   8.116 -1.0566  0.9412 -1.7007
   50CHL1   C17 3650   0.368   0.517   8.045 -0.1128  0.5875  0.3422
   50CHL1   H17 3651   0.270   0.466   8.034  0.8175 -1.2176 -0.0245
   50CHL1   C13 3652   0.440   0.513   7.908  0.4039  0.1884  0.0890
   50CHL1   C18 3653   0.581   0.564   7.933 -0.5211  0.0862  0.3252
   50CHL1  H18A 3654   0.591   0.657   7.992  1.8777 -0.9606  1.7555
   50CHL1  H18B 3655   0.641   0.486   7.986 -0.0111  1.6252  2.1180
   50CHL1  H18C 3656   0.643   0.584   7.843  2.0598 -0.2519  1.8907
   50CHL1   C12 3657   0.437   0.383   7.819 -0.3844  0.1970 -0.1719
   50CHL1  H12A 3658   0.495   0.300   7.865 -0.6127 -1.4295 -2.5948
   50CHL1  H12B 3659   0.332   0.348   7.812 -1.1928  1.9565  2.0400
   50CHL1   C11 3660   0.513   0.411   7.680  0.3867  0.6180 -1.1996
   50CHL1  H11A 3661   0.622   0.423   7.697  0.2998 -0.1905  0.0706
   50CHL1  H11B 3662   0.498   0.320   7.617 -0.9384  2.9017 -4.4272
   50CHL1    C9 3663   0.454   0.533   7.602 -0.4972  0.3739 -0.2152
   50CHL1    H9 3664   0.351   0.501   7.575  0.0495 -1.2309 -0.5095
   50CHL1   C10 3665   0.512   0.564   7.458 -0.1800 -0.1582 -0.6181
   50CHL1   C19 3666   0.661   0.583   7.477 -0.2322  0.6433  0.3318
   50CHL1  H19A 3667   0.701   0.494   7.531 -1.6792  1.6831  3.2873
   50CHL1  H19B 3668   0.719   0.575   7.382  0.3894  1.0813  0.6633
   50CHL1  H19C 3669   0.687   0.665   7.547 -0.5260  0.1633  1.0181
   50CHL1    C1 3670   0.477   0.451   7.354  0.8900 -0.2858  0.2237
   50CHL1   H1A 3671   0.524   0.352   7.370  2.3279 -0.1727 -2.6920
   50CHL1   H1B 3672   0.369   0.428   7.350  1.1310 -1.4334  0.0077
   50CHL1    C2 3673   0.502   0.481   7.208  0.2564  0.4755 -0.4329
   50CHL1   H2A 3674   0.460   0.408   7.135  0.7082 -1.8275  1.5112
   50CHL1   H2B 3675   0.608   0.502   7.183  0.5123  1.6828  1.4369
   50CHL1   C20 3676   0.440   0.456   8.167 -0.2507  0.0438  0.3856
   50CHL1   H20 3677   0.538   0.503   8.188 -0.8135  1.0573  0.8154
   50CHL1   C21 3678   0.464   0.307   8.137 -0.1768  0.0152  0.2835
   50CHL1  H21A 3679   0.486   0.242   8.224  0.7729  0.4645  0.3954
   50CHL1  H21B 3680   0.547   0.291   8.065  0.9505 -1.0903  1.7538
   50CHL1  H21C 3681   0.380   0.258   8.083  1.4265 -0.8137 -1.5660
   50CHL1   C22 3682   0.368   0.473   8.302 -1.1548  0.2786  0.2489
   50CHL1  H22A 3683   0.429   0.420   8.377  0.8141 -1.5273 -2.4402
   50CHL1  H22B 3684   0.377   0.579   8.334 -1.3586  0.6176 -0.7835
   50CHL1   C23 3685   0.215   0.427   8.300  0.3551 -0.2524 -0.2011
   50CHL1  H23A 3686   0.155   0.463   8.214  0.1287 -1.9523 -0.7986
   50CHL1  H23B 3687   0.214   0.319   8.275  1.1557 -0.3191  0.0331
   50CHL1   C24 3688   0.128   0.457   8.421 -0.3302  1.3933  0.6574
   50CHL1  H24A 3689   0.124   0.566   8.442 -0.3129  2.0125 -2.1833
   50CHL1  H24B 3690   0.025   0.418   8.408  0.5599 -1.3640  1.0960
   50CHL1   C25 3691   0.180   0.378   8.550  0.6961  0.1149  0.1055
   50CHL1   H25 3692   0.270   0.432   8.584  1.0891 -0.5344  0.1126
   50CHL1   C26 3693   0.085   0.398   8.666  0.7929  0.8491 -0.7504
   50CHL1  H26A 3694  -0.019   0.376   8.634  0.7809 -1.2318  0.4875
   50CHL1  H26B 3695   0.113   0.331   8.750 -0.2738  1.8375  0.4479
   50CHL1  H26C 3696   0.096   0.498   8.712 -0.2287  1.1343 -1.1056
   50CHL1   C27 3697   0.221   0.234   8.532  0.5741 -0.2742  0.1225
   50CHL1  H27A 3698   0.310   0.230   8.466  1.1942 -2.4173  0.9877
   50CHL1  H27B 3699   0.252   0.182   8.625  1.7616 -0.0913 -0.1564
   50CHL1  H27C 3700   0.136   0.179   8.487 -0.3025 -1.8678  3.4537
   51CHL1    C3 3701   2.254   4.621   7.068 -0.5881 -0.6730 -0.5705
   51CHL1    H3 3702   2.150   4.639   7.104 -0.4846 -0.3929 -0.4130
   51CHL1    O3 3703   2.253   4.604   6.929  0.5223 -0.0947 -0.0189
   51CHL1   H3' 3704   2.343   4.574   6.910  0.3442 -0.6937  0.0770
   51CHL1    C4 3705   2.346   4.745   7.104  0.3493  0.1297 -0.7685
   51CHL1   H4A 3706   2.445   4.716   7.062  0.6784  0.8580 -0.5125
   51CHL1   H4B 3707   2.306   4.834   7.051  0.8474  1.9324  1.7414
   51CHL1    C5 3708   2.362   4.768   7.248  0.4810  0.9143 -0.9607
   51CHL1    C6 3709   2.327   4.888   7.304 -0.0063  0.7777  0.4666
   51CHL1    H6 3710   2.308   4.969   7.231 -0.9148 -1.2310 -1.6474
   51CHL1    C7 3711   2.333   4.909   7.449  0.4941  0.7104 -0.3353
   51CHL1   H7A 3712   2.386   5.004   7.472 -0.0057  1.0978 -0.7609
   51CHL1   H7B 3713   2.229   4.909   7.486  0.0504 -2.2367 -1.2842
   51CHL1    C8 3714   2.413   4.797   7.530  0.4893 -0.7610  0.1448
   51CHL1    H8 3715   2.521   4.817   7.514  0.3876  0.7923  1.2261
   51CHL1   C14 3716   2.383   4.806   7.682  0.3699 -0.4541  0.3770
   51CHL1   H14 3717   2.273   4.789   7.683  0.3490 -0.3569 -0.0415
   51CHL1   C15 3718   2.405   4.949   7.752 -0.1532  0.1303 -0.4420
   51CHL1  H15A 3719   2.498   4.996   7.713 -0.3633 -0.3184 -1.5080
   51CHL1  H15B 3720   2.322   5.020   7.728 -0.2220  0.7497  1.4588
   51CHL1   C16 3721   2.424   4.913   7.903  0.3819 -0.0519  0.4550
   51CHL1  H16A 3722   2.530   4.938   7.926  1.3708 -2.3826 -1.1683
   51CHL1  H16B 3723   2.354   4.970   7.967 -0.3238  0.7647 -0.9939
   51CHL1   C17 3724   2.402   4.763   7.910  0.1565 -0.1052 -0.2540
   51CHL1   H17 3725   2.292   4.748   7.912  0.1459 -0.1216 -0.7861
   51CHL1   C13 3726   2.445   4.708   7.773 -0.2688  0.5731  0.0399
   51CHL1   C18 3727   2.598   4.707   7.763 -0.0238 -0.4216 -0.0731
   51CHL1  H18A 3728   2.636   4.697   7.660  1.3555  1.9738  0.1313
   51CHL1  H18B 3729   2.639   4.802   7.803  0.9918 -1.8270  2.4884
   51CHL1  H18C 3730   2.633   4.630   7.835  3.4119  0.3432 -0.7310
   51CHL1   C12 3731   2.396   4.570   7.723  0.1371 -0.2154 -0.3735
   51CHL1  H12A 3732   2.450   4.500   7.790 -0.0409  0.2335  0.2403
   51CHL1  H12B 3733   2.286   4.558   7.728  0.2912 -1.2841  1.4435
   51CHL1   C11 3734   2.430   4.543   7.578  0.4008 -0.3901  0.6699
   51CHL1  H11A 3735   2.539   4.532   7.558 -0.4155 -2.3294 -3.7230
   51CHL1  H11B 3736   2.376   4.454   7.540 -0.1505  0.7929 -1.4857
   51CHL1    C9 3737   2.380   4.656   7.482  0.0568 -0.1671 -0.1117
   51CHL1    H9 3738   2.270   4.642   7.478  0.2885 -1.8265 -2.2553
   51CHL1   C10 3739   2.399   4.639   7.331 -0.1424 -0.2555  0.0229
   51CHL1   C19 3740   2.551   4.618   7.305  0.0605 -0.0680  0.2608
   51CHL1  H19A 3741   2.585   4.513   7.318  0.1032 -0.2260 -1.0608
   51CHL1  H19B 3742   2.578   4.638   7.199 -0.6730  1.8525  0.3878
   51CHL1  H19C 3743   2.618   4.688   7.360  1.0993 -0.6854 -0.2081
   51CHL1    C1 3744   2.317   4.521   7.281 -0.0827 -0.5621 -0.0573
   51CHL1   H1A 3745   2.362   4.433   7.331 -1.0718 -0.7548  0.5246
   51CHL1   H1B 3746   2.213   4.526   7.319 -0.9701 -0.7351 -2.3311
   51CHL1    C2 3747   2.304   4.494   7.140 -0.2913  0.1944  0.2553
   51CHL1   H2A 3748   2.241   4.406   7.114 -0.8394  0.9059 -0.8921
   51CHL1   H2B 3749   2.408   4.475   7.105 -0.1319  0.0577  0.7863
   51CHL1   C20 3750   2.464   4.698   8.033 -0.8838  0.0345  0.4778
   51CHL1   H20 3751   2.571   4.729   8.022 -1.0062  0.0420 -0.9052
   51CHL1   C21 3752   2.450   4.548   8.036  0.4387  0.4095  0.0556
   51CHL1  H21A 3753   2.454   4.507   8.139 -1.5360  1.0940  0.4436
   51CHL1  H21B 3754   2.523   4.508   7.963 -0.9897 -0.7295 -0.8009
   51CHL1  H21C 3755   2.353   4.516   7.993  0.3749  0.9114 -0.1860
   51CHL1   C22 3756   2.426   4.755   8.176  0.5860 -0.0686 -0.6334
   51CHL1  H22A 3757   2.438   4.865   8.161  4.6921 -0.2546  0.1543
   51CHL1  H22B 3758   2.321   4.724   8.189  1.1141 -0.5359  3.8568
   51CHL1   C23 3759   2.519   4.711   8.289  0.1876 -1.2469  0.1403
   51CHL1  H23A 3760   2.505   4.605   8.318  0.2525 -1.3104 -0.0634
   51CHL1  H23B 3761   2.622   4.724   8.250 -0.9097  0.0964 -2.5172
   51CHL1   C24 3762   2.492   4.796   8.418 -0.6244  0.3748  0.4083
   51CHL1  H24A 3763   2.505   4.905   8.400  0.7660  0.0071 -1.1416
   51CHL1  H24B 3764   2.388   4.778   8.452  0.0776 -1.2384  1.8305
   51CHL1   C25 3765   2.584   4.758   8.533 -0.3171  0.8705  0.7554
   51CHL1   H25 3766   2.564   4.651   8.552  1.9254  0.5175  1.4426
   51CHL1   C26 3767   2.735   4.791   8.506 -0.3072 -0.3456  0.3159
   51CHL1  H26A 3768   2.798   4.759   8.591  0.0788  2.5253  1.1978
   51CHL1  H26B 3769   2.769   4.757   8.405 -0.3429  0.3280  0.0758
   51CHL1  H26C 3770   2.752   4.900   8.501  0.3713 -0.4463  0.3497
   51CHL1   C27 3771   2.559   4.826   8.667 -0.2701 -0.1615  0.7022
   51CHL1  H27A 3772   2.460   4.794   8.705 -0.3374  0.5734  1.1621
   51CHL1  H27B 3773   2.626   4.791   8.748 -1.6862 -3.7945  0.4901
   51CHL1  H27C 3774   2.556   4.937   8.663  1.1027 -0.0656  1.6000
   52CHL1    C3 3775   4.894   0.066   7.258 -0.3874  0.0036 -0.0231
   52CHL1    H3 3776   4.940  -0.035   7.270 -0.3191 -0.1798 -1.6350
   52CHL1    O3 3777   4.914   0.104   7.123  0.4116  0.2797 -0.1394
   52CHL1   H3' 3778   4.897   0.198   7.126 -2.8050 -0.2002  0.9641
   52CHL1    C4 3779   4.743   0.070   7.292 -0.3129  0.1078 -0.4280
   52CHL1   H4A 3780   4.708   0.172   7.266 -1.0818 -0.5713 -2.2245
   52CHL1   H4B 3781   4.684   0.002   7.227  0.1695 -0.4943 -0.2458
   52CHL1    C5 3782   4.715   0.055   7.438 -0.5839 -0.0914 -0.0589
   52CHL1    C6 3783   4.632  -0.038   7.476  0.3335  0.7407  0.3842
   52CHL1    H6 3784   4.587  -0.099   7.396 -1.2048  1.7594  0.4350
   52CHL1    C7 3785   4.589  -0.053   7.614 -0.5101  0.0194 -0.9810
   52CHL1   H7A 3786   4.478  -0.053   7.625 -0.4452 -0.8613 -0.2548
   52CHL1   H7B 3787   4.618  -0.148   7.664 -1.2928 -0.4542 -1.3987
   52CHL1    C8 3788   4.628   0.067   7.714 -0.4698  0.1644  0.7164
   52CHL1    H8 3789   4.562   0.153   7.690  1.1767  1.2181 -0.2334
   52CHL1   C14 3790   4.614   0.022   7.858 -0.1665 -0.3946  0.1236
   52CHL1   H14 3791   4.685  -0.061   7.873  0.1417 -0.4140 -1.3432
   52CHL1   C15 3792   4.474  -0.028   7.904  0.4630 -0.3292 -0.7074
   52CHL1  H15A 3793   4.403   0.052   7.874  2.2647  1.5968 -0.0829
   52CHL1  H15B 3794   4.454  -0.125   7.854 -2.1423 -0.1571 -0.1231
   52CHL1   C16 3795   4.496  -0.024   8.054 -0.2704  0.4257 -0.2598
   52CHL1  H16A 3796   4.407   0.026   8.099  0.0328  1.3658 -0.6803
   52CHL1  H16B 3797   4.498  -0.127   8.096 -1.0172  0.5210  0.0376
   52CHL1   C17 3798   4.626   0.048   8.088  1.0743  0.6515  0.0676
   52CHL1   H17 3799   4.704  -0.031   8.082  0.5356  0.1584 -0.4985
   52CHL1   C13 3800   4.650   0.131   7.956 -0.0649  0.3378 -0.1776
   52CHL1   C18 3801   4.561   0.254   7.946 -0.1720  0.5652 -0.6725
   52CHL1  H18A 3802   4.551   0.302   7.846  1.6096 -0.5485 -1.4398
   52CHL1  H18B 3803   4.461   0.231   7.988 -0.3763  1.0388 -0.8883
   52CHL1  H18C 3804   4.601   0.333   8.013 -0.1334  0.0385 -0.0639
   52CHL1   C12 3805   4.794   0.170   7.931 -0.2344 -0.2413  0.1536
   52CHL1  H12A 3806   4.817   0.255   7.999  0.6192 -1.4392  1.4188
   52CHL1  H12B 3807   4.870   0.093   7.956 -0.0731  0.1510  0.8939
   52CHL1   C11 3808   4.819   0.221   7.790 -0.3459 -0.1120 -0.1410
   52CHL1  H11A 3809   4.768   0.319   7.777 -1.6000 -0.8771 -1.3562
   52CHL1  H11B 3810   4.928   0.233   7.776 -0.4973  0.3027 -1.0458
   52CHL1    C9 3811   4.769   0.119   7.684 -0.2089 -0.1075  0.2884
   52CHL1    H9 3812   4.835   0.031   7.699 -2.0726 -1.6579 -0.1362
   52CHL1   C10 3813   4.784   0.159   7.532  0.0018 -0.8319 -0.5727
   52CHL1   C19 3814   4.722   0.303   7.516 -0.5227 -0.0268 -0.1690
   52CHL1  H19A 3815   4.748   0.352   7.420  1.1072  0.8393  0.6683
   52CHL1  H19B 3816   4.614   0.317   7.536 -0.6163  2.0488 -1.7890
   52CHL1  H19C 3817   4.775   0.375   7.583 -0.0916  1.5128 -2.0695
   52CHL1    C1 3818   4.937   0.161   7.493  0.1534 -0.7286 -0.1116
   52CHL1   H1A 3819   4.984   0.251   7.537  0.0940  0.1279 -1.7371
   52CHL1   H1B 3820   4.997   0.072   7.522  0.3247 -0.9741 -1.1476
   52CHL1    C2 3821   4.970   0.168   7.344  0.3374  0.2629 -0.1251
   52CHL1   H2A 3822   5.080   0.170   7.329  1.2776  1.6542  5.0496
   52CHL1   H2B 3823   4.926   0.266   7.318 -1.1059 -0.5576 -0.8954
   52CHL1   C20 3824   4.618   0.117   8.227  0.7118  0.0325  1.0059
   52CHL1   H20 3825   4.543   0.199   8.215  0.5664 -0.1228  0.8452
   52CHL1   C21 3826   4.741   0.203   8.262  0.1397  0.1690  0.4281
   52CHL1  H21A 3827   4.755   0.282   8.185 -3.3514 -0.1429 -0.7390
   52CHL1  H21B 3828   4.828   0.137   8.281  1.0362  1.9523  2.9758
   52CHL1  H21C 3829   4.727   0.255   8.358 -0.4621  0.3465  0.2502
   52CHL1   C22 3830   4.579   0.027   8.342 -0.3019  0.7443  0.4636
   52CHL1  H22A 3831   4.493  -0.042   8.328 -0.6206  1.5322 -1.8198
   52CHL1  H22B 3832   4.653  -0.055   8.354 -1.7807 -0.4926  1.4866
   52CHL1   C23 3833   4.548   0.093   8.479 -0.4585 -0.1287  0.1929
   52CHL1  H23A 3834   4.637   0.154   8.506  2.9715 -4.1363 -0.9705
   52CHL1  H23B 3835   4.463   0.161   8.456 -0.2569 -0.2686 -0.9871
   52CHL1   C24 3836   4.531  -0.014   8.588 -0.1595  0.2485 -0.0082
   52CHL1  H24A 3837   4.430  -0.056   8.571 -0.0971  1.1644 -3.2476
   52CHL1  H24B 3838   4.616  -0.085   8.577 -0.3052  0.1677 -0.6096
   52CHL1   C25 3839   4.540   0.043   8.729 -1.5759  0.3687 -0.2716
   52CHL1   H25 3840   4.638   0.094   8.739 -1.6001  0.4697 -0.5353
   52CHL1   C26 3841   4.440   0.145   8.764 -0.1544 -0.9338  0.0703
   52CHL1  H26A 3842   4.342   0.093   8.774 -0.7248  0.4668  2.9483
   52CHL1  H26B 3843   4.458   0.181   8.868  0.4639 -1.1249  0.0366
   52CHL1  H26C 3844   4.423   0.225   8.689 -1.0343  0.8046  2.0244
   52CHL1   C27 3845   4.542  -0.072   8.833  0.0307  0.2740  0.0044
   52CHL1  H27A 3846   4.560  -0.024   8.931  3.0445 -0.7922  0.0616
   52CHL1  H27B 3847   4.449  -0.128   8.856  0.5281 -0.0920  1.1638
   52CHL1  H27C 3848   4.610  -0.156   8.808 -0.4060 -0.0272 -0.1866
   53CHL1    C3 3849   1.308   2.251   7.436 -0.0680  0.0730  0.0441
   53CHL1    H3 3850   1.349   2.149   7.452 -2.1118 -0.7483  0.3411
   53CHL1    O3 3851   1.312   2.283   7.300 -0.5514  0.0451  0.1020
   53CHL1   H3' 3852   1.302   2.378   7.305  1.1042  0.2968 -0.4883
   53CHL1    C4 3853   1.166   2.254   7.500  0.4995  0.8121  1.0425
   53CHL1   H4A 3854   1.092   2.334   7.480 -1.9663 -1.8820 -1.3675
   53CHL1   H4B 3855   1.126   2.163   7.452  1.9910  0.3092  0.6941
   53CHL1    C5 3856   1.155   2.235   7.651 -0.1729  0.1989  0.1069
   53CHL1    C6 3857   1.091   2.126   7.698  0.2693  0.0790  0.4182
   53CHL1    H6 3858   1.026   2.058   7.641  0.6882 -1.1760  1.3703
   53CHL1    C7 3859   1.093   2.086   7.839  0.7971 -0.0043  0.8503
   53CHL1   H7A 3860   0.987   2.064   7.865  0.2606 -0.1856 -1.3048
   53CHL1   H7B 3861   1.156   1.995   7.845 -0.2841 -1.1079 -2.3557
   53CHL1    C8 3862   1.150   2.198   7.932 -0.7920  0.2298 -0.3420
   53CHL1    H8 3863   1.076   2.280   7.941 -0.0025  1.0159 -0.8759
   53CHL1   C14 3864   1.170   2.127   8.069  0.1702 -0.6043  0.5507
   53CHL1   H14 3865   1.241   2.043   8.055  1.4412  0.4852  0.2396
   53CHL1   C15 3866   1.041   2.068   8.128 -0.1198 -0.5877  0.1870
   53CHL1  H15A 3867   0.951   2.131   8.112  0.1000 -0.1768  0.5324
   53CHL1  H15B 3868   1.023   1.968   8.082 -0.7765  0.0415 -0.9668
   53CHL1   C16 3869   1.074   2.056   8.276 -0.1685 -0.1657  0.4983
   53CHL1  H16A 3870   0.996   2.111   8.334 -1.1099 -0.3953 -0.5199
   53CHL1  H16B 3871   1.067   1.949   8.304 -0.2196 -1.1285 -2.7705
   53CHL1   C17 3872   1.223   2.105   8.287  0.9058 -0.2365 -0.0797
   53CHL1   H17 3873   1.286   2.017   8.263 -1.8193 -2.0862 -0.9652
   53CHL1   C13 3874   1.228   2.213   8.173 -0.1381  0.3769 -0.7214
   53CHL1   C18 3875   1.144   2.332   8.223  0.0481  0.4155  0.2777
   53CHL1  H18A 3876   1.115   2.407   8.146  2.7528 -0.5538 -1.8202
   53CHL1  H18B 3877   1.053   2.307   8.282  0.1799  2.6510  1.5430
   53CHL1  H18C 3878   1.207   2.386   8.297  1.8416 -0.2027 -0.7443
   53CHL1   C12 3879   1.370   2.257   8.120  0.3668 -0.7058  0.1280
   53CHL1  H12A 3880   1.422   2.319   8.197  0.7216 -0.7583 -0.0653
   53CHL1  H12B 3881   1.426   2.163   8.103 -0.8817 -1.5733  0.6953
   53CHL1   C11 3882   1.354   2.338   7.985  0.0843  0.7737 -0.1006
   53CHL1  H11A 3883   1.285   2.423   7.999 -0.1988  1.1715 -3.1754
   53CHL1  H11B 3884   1.456   2.368   7.951  0.1451  2.3889  1.3757
   53CHL1    C9 3885   1.284   2.247   7.881 -0.2575 -0.1811  0.1397
   53CHL1    H9 3886   1.356   2.162   7.869  1.9782  1.4522  1.2277
   53CHL1   C10 3887   1.257   2.307   7.738 -0.1393  0.0149  0.0702
   53CHL1   C19 3888   1.215   2.454   7.752  0.0252  0.5259 -0.8558
   53CHL1  H19A 3889   1.299   2.519   7.787 -0.4378 -0.4419  2.3662
   53CHL1  H19B 3890   1.188   2.502   7.656  1.3171  1.0267 -0.9862
   53CHL1  H19C 3891   1.131   2.454   7.825  0.5294 -4.1909 -0.0069
   53CHL1    C1 3892   1.393   2.313   7.663  0.6820 -0.0858  0.0027
   53CHL1   H1A 3893   1.463   2.384   7.713 -0.8886  0.5879  1.3087
   53CHL1   H1B 3894   1.440   2.214   7.682  0.4144 -0.0010  1.1563
   53CHL1    C2 3895   1.397   2.343   7.511 -0.0728 -0.1935  0.0435
   53CHL1   H2A 3896   1.500   2.339   7.468 -0.5561 -0.0706 -1.1894
   53CHL1   H2B 3897   1.361   2.448   7.505 -0.9179 -0.4789 -0.0400
   53CHL1   C20 3898   1.261   2.141   8.436 -0.4968  0.2427 -0.4874
   53CHL1   H20 3899   1.211   2.233   8.474  0.7041  0.9570 -0.5916
   53CHL1   C21 3900   1.409   2.184   8.443  0.1017  0.3065 -0.1486
   53CHL1  H21A 3901   1.437   2.175   8.550  0.2083  0.2633 -0.1800
   53CHL1  H21B 3902   1.425   2.292   8.420 -0.8120  0.6252  0.6670
   53CHL1  H21C 3903   1.480   2.125   8.380  1.2730  0.9627  0.5319
   53CHL1   C22 3904   1.230   2.010   8.520  0.0285  0.2516 -0.8185
   53CHL1  H22A 3905   1.127   1.971   8.505  0.1202 -0.0851 -0.5983
   53CHL1  H22B 3906   1.289   1.927   8.474  0.8243  0.1110  0.4010
   53CHL1   C23 3907   1.273   2.033   8.667 -0.4624 -0.0759 -0.0924
   53CHL1  H23A 3908   1.383   2.032   8.683 -0.1810  2.4377 -1.4851
   53CHL1  H23B 3909   1.237   2.128   8.710  0.2543 -0.1707  0.7380
   53CHL1   C24 3910   1.231   1.911   8.751  0.9866  0.0411  0.3812
   53CHL1  H24A 3911   1.124   1.902   8.725  0.9531 -0.0762  0.5580
   53CHL1  H24B 3912   1.284   1.815   8.733 -0.2151 -0.4785 -0.4825
   53CHL1   C25 3913   1.228   1.948   8.903  0.4236  0.0205 -0.3648
   53CHL1   H25 3914   1.165   2.038   8.923 -1.4167 -1.3546  0.3301
   53CHL1   C26 3915   1.163   1.834   8.987  0.1671 -0.3195 -0.1132
   53CHL1  H26A 3916   1.193   1.836   9.093 -1.4540 -0.6687  0.3805
   53CHL1  H26B 3917   1.052   1.829   8.992  0.1805  0.3577  1.3431
   53CHL1  H26C 3918   1.194   1.734   8.949  0.2977 -1.1567  2.1071
   53CHL1   C27 3919   1.368   1.985   8.959  0.8625 -0.5711 -0.4658
   53CHL1  H27A 3920   1.442   1.912   8.919  0.0359 -1.5517 -0.2670
   53CHL1  H27B 3921   1.386   2.088   8.924  0.7803 -0.2063  0.5382
   53CHL1  H27C 3922   1.365   1.995   9.070 -0.4475 -0.3760 -0.4996
   54CHL1    C3 3923   1.458   4.106   7.187 -0.3985  0.0863  0.7440
   54CHL1    H3 3924   1.447   4.211   7.221  1.6610  0.3702  0.6966
   54CHL1    O3 3925   1.480   4.110   7.046  0.3048 -0.0783  0.2167
   54CHL1   H3' 3926   1.477   4.018   7.018  1.0177 -0.2360  0.6180
   54CHL1    C4 3927   1.576   4.033   7.259  0.0557  0.4036  0.4084
   54CHL1   H4A 3928   1.586   3.932   7.215 -1.0005  1.0319 -1.3255
   54CHL1   H4B 3929   1.663   4.099   7.235  1.4146 -1.6935 -0.6846
   54CHL1    C5 3930   1.552   4.023   7.411 -0.3921  0.1229  0.7615
   54CHL1    C6 3931   1.635   4.080   7.501 -0.2668  0.3706  0.2980
   54CHL1    H6 3932   1.725   4.135   7.469 -0.0757  1.1513  2.0336
   54CHL1    C7 3933   1.621   4.068   7.646  0.7573  0.5445  0.2730
   54CHL1   H7A 3934   1.721   4.045   7.688  1.2959 -0.3441 -1.3814
   54CHL1   H7B 3935   1.582   4.165   7.682 -2.0502 -1.4718  3.2178
   54CHL1    C8 3936   1.524   3.958   7.690  0.0015 -0.4918  0.0429
   54CHL1    H8 3937   1.580   3.864   7.671  2.8165  1.0776 -0.0578
   54CHL1   C14 3938   1.481   3.962   7.840 -0.2317 -0.9041  0.6114
   54CHL1   H14 3939   1.423   4.056   7.845  2.1203  0.7507 -0.8112
   54CHL1   C15 3940   1.593   3.987   7.944  0.0610 -0.1807 -0.6173
   54CHL1  H15A 3941   1.681   3.925   7.917  0.1303 -0.0691 -0.6464
   54CHL1  H15B 3942   1.621   4.091   7.968 -3.6424  0.7963  0.1822
   54CHL1   C16 3943   1.524   3.924   8.078  0.3812 -0.2318  0.4455
   54CHL1  H16A 3944   1.576   3.833   8.114 -1.0235 -1.9650 -1.6244
   54CHL1  H16B 3945   1.529   4.006   8.153  2.0915 -1.3416  1.6213
   54CHL1   C17 3946   1.376   3.884   8.033 -0.0306  0.1703 -0.3411
   54CHL1   H17 3947   1.306   3.967   8.054  2.3801  1.7691  1.9499
   54CHL1   C13 3948   1.390   3.851   7.886 -0.0737  0.5599  0.0218
   54CHL1   C18 3949   1.457   3.713   7.876 -0.1746  1.0274  0.1382
   54CHL1  H18A 3950   1.381   3.632   7.887  1.3166 -0.3392  0.8287
   54CHL1  H18B 3951   1.507   3.687   7.780  1.3434 -1.6367  1.5190
   54CHL1  H18C 3952   1.538   3.696   7.950 -2.5702  0.1958  2.7582
   54CHL1   C12 3953   1.256   3.869   7.804  0.1383 -0.2354  0.0998
   54CHL1  H12A 3954   1.193   3.782   7.830 -0.2089  0.9180  3.7640
   54CHL1  H12B 3955   1.201   3.958   7.841 -1.3668 -0.1522 -2.1185
   54CHL1   C11 3956   1.271   3.887   7.651 -0.7824  1.0545 -0.2180
   54CHL1  H11A 3957   1.295   3.784   7.618 -0.0705  1.0087  0.4026
   54CHL1  H11B 3958   1.179   3.924   7.603 -0.3091  0.4058 -1.6630
   54CHL1    C9 3959   1.392   3.970   7.607 -0.2233  0.0889  0.0612
   54CHL1    H9 3960   1.370   4.078   7.625 -0.8197 -0.1266  0.6975
   54CHL1   C10 3961   1.425   3.955   7.453  0.0930 -0.3127 -0.2467
   54CHL1   C19 3962   1.441   3.806   7.415 -0.1453 -0.6752 -0.7050
   54CHL1  H19A 3963   1.531   3.766   7.466  0.1520 -0.9727 -1.4486
   54CHL1  H19B 3964   1.348   3.753   7.445 -0.8725 -0.4648 -2.4602
   54CHL1  H19C 3965   1.456   3.794   7.305  1.1062  0.3510 -0.6818
   54CHL1    C1 3966   1.303   4.009   7.363 -0.5489  0.4433 -0.8429
   54CHL1   H1A 3967   1.218   3.938   7.380 -1.8817  2.2240  0.3031
   54CHL1   H1B 3968   1.267   4.108   7.398 -1.7598  0.2055 -1.3426
   54CHL1    C2 3969   1.333   4.020   7.217  0.0471 -0.0824  1.1385
   54CHL1   H2A 3970   1.243   4.067   7.174  0.0033 -0.7411  0.4894
   54CHL1   H2B 3971   1.352   3.923   7.165 -1.5172  0.4596 -0.5331
   54CHL1   C20 3972   1.321   3.776   8.130 -0.4089  0.6764  1.1383
   54CHL1   H20 3973   1.378   3.681   8.132 -0.5438  0.5975  1.3424
   54CHL1   C21 3974   1.178   3.723   8.080 -0.1856 -0.4988 -0.2560
   54CHL1  H21A 3975   1.140   3.658   8.162  1.5283  0.0345  1.0246
   54CHL1  H21B 3976   1.189   3.663   7.987 -0.4861  1.4657 -1.6003
   54CHL1  H21C 3977   1.108   3.808   8.068 -0.6634 -0.5529  1.6917
   54CHL1   C22 3978   1.302   3.818   8.284 -0.3090  0.8444  0.0012
   54CHL1  H22A 3979   1.250   3.915   8.299 -2.2411 -0.1645  0.1838
   54CHL1  H22B 3980   1.231   3.743   8.325  0.2838 -0.0759 -0.6272
   54CHL1   C23 3981   1.438   3.803   8.366  0.5165 -0.0540  0.2127
   54CHL1  H23A 3982   1.496   3.728   8.308  0.7252  0.6954 -0.5592
   54CHL1  H23B 3983   1.484   3.904   8.371 -1.4287  0.8738  0.4689
   54CHL1   C24 3984   1.444   3.741   8.509  0.3131 -0.5143  0.8707
   54CHL1  H24A 3985   1.405   3.637   8.501  2.9267 -1.4547 -0.8675
   54CHL1  H24B 3986   1.550   3.735   8.540  0.7306 -1.6709 -0.6335
   54CHL1   C25 3987   1.367   3.838   8.606 -0.2593  0.3311 -0.2487
   54CHL1   H25 3988   1.275   3.872   8.554 -0.6786  1.6159  1.2781
   54CHL1   C26 3989   1.332   3.765   8.736  0.3271 -0.2340 -0.1633
   54CHL1  H26A 3990   1.299   3.659   8.723 -1.3925  0.1706  0.6229
   54CHL1  H26B 3991   1.427   3.773   8.792 -1.6035  0.7619  3.2149
   54CHL1  H26C 3992   1.254   3.820   8.791  2.6470  1.2893  1.7984
   54CHL1   C27 3993   1.451   3.960   8.628  0.1627  0.2909 -0.1020
   54CHL1  H27A 3994   1.525   3.944   8.710 -1.4153 -0.0788  1.3237
   54CHL1  H27B 3995   1.505   3.996   8.539  1.9847 -3.5754 -0.7419
   54CHL1  H27C 3996   1.385   4.038   8.672  0.4313  0.7273 -0.4761
   55CHL1    C3 3997   6.545   6.155   7.277 -0.3064 -0.5052 -0.1845
   55CHL1    H3 3998   6.556   6.250   7.335 -1.6313  0.7921 -1.9323
   55CHL1    O3 3999   6.622   6.153   7.155 -0.6606 -0.2007 -0.1139
   55CHL1   H3' 4000   6.558   6.180   7.088 -2.4679 -0.4064  1.4572
   55CHL1    C4 4001   6.581   6.040   7.370 -0.0725 -0.4593 -0.1814
   55CHL1   H4A 4002   6.557   5.946   7.316 -4.0006 -0.9585  2.0012
   55CHL1   H4B 4003   6.687   6.037   7.402 -0.6088 -2.3352  1.6839
   55CHL1    C5 4004   6.488   6.036   7.499 -0.5212 -0.1733 -0.1822
   55CHL1    C6 4005   6.546   6.057   7.623 -0.5752  0.5776 -0.3230
   55CHL1    H6 4006   6.654   6.076   7.625 -0.5264  0.3169 -0.4803
   55CHL1    C7 4007   6.477   6.051   7.759 -0.1068 -0.0388 -0.8377
   55CHL1   H7A 4008   6.534   5.987   7.829  0.5812  0.1382 -1.2294
   55CHL1   H7B 4009   6.472   6.149   7.811  1.0076 -0.9662  1.1064
   55CHL1    C8 4010   6.335   5.995   7.737 -0.1990  0.3271 -0.0840
   55CHL1    H8 4011   6.351   5.886   7.725  2.5367  0.2883  2.8190
   55CHL1   C14 4012   6.249   6.027   7.856 -0.4610  0.2224 -0.6195
   55CHL1   H14 4013   6.232   6.137   7.851 -0.8296  0.2092  0.0681
   55CHL1   C15 4014   6.305   5.981   7.993 -0.4131 -0.7156  0.0531
   55CHL1  H15A 4015   6.337   5.874   7.991 -0.9365 -0.8748 -1.3613
   55CHL1  H15B 4016   6.391   6.041   8.028 -1.4594  0.3438  0.8943
   55CHL1   C16 4017   6.186   5.985   8.089  0.1938  0.0415  0.3167
   55CHL1  H16A 4018   6.164   5.889   8.140 -1.4675 -0.0384 -0.4830
   55CHL1  H16B 4019   6.204   6.066   8.163 -0.9340 -1.2890  2.1341
   55CHL1   C17 4020   6.067   6.032   8.002  0.0755  0.0009 -0.5664
   55CHL1   H17 4021   6.072   6.143   8.000 -0.9603  0.0645 -0.2476
   55CHL1   C13 4022   6.105   5.982   7.861 -0.0858 -0.6218 -0.3994
   55CHL1   C18 4023   6.104   5.832   7.849 -0.1178  0.0207  0.1023
   55CHL1  H18A 4024   6.004   5.785   7.848  0.3524 -1.2421  2.8523
   55CHL1  H18B 4025   6.134   5.805   7.745 -0.7808  0.8115 -0.3062
   55CHL1  H18C 4026   6.168   5.781   7.924 -0.6084  0.5613  0.9035
   55CHL1   C12 4027   6.038   6.054   7.737 -0.0511 -0.1729  0.4173
   55CHL1  H12A 4028   5.936   6.014   7.720 -0.7632  0.9315  1.8297
   55CHL1  H12B 4029   6.021   6.161   7.763  0.5253 -0.3355  1.5249
   55CHL1   C11 4030   6.118   6.046   7.600  0.1431 -0.3309 -0.0887
   55CHL1  H11A 4031   6.100   5.939   7.576  0.0099 -0.9889  2.6437
   55CHL1  H11B 4032   6.079   6.123   7.529  0.4366 -0.0313  0.0703
   55CHL1    C9 4033   6.272   6.067   7.615  0.4597 -0.5082 -0.3053
   55CHL1    H9 4034   6.280   6.177   7.632  0.0027  0.1124 -3.5178
   55CHL1   C10 4035   6.342   6.029   7.479  0.7605 -1.1577 -0.0729
   55CHL1   C19 4036   6.307   5.887   7.440  0.4310  0.1995 -1.2133
   55CHL1  H19A 4037   6.316   5.816   7.525  3.7540  0.6500 -1.0737
   55CHL1  H19B 4038   6.214   5.877   7.380  0.8084 -0.4691 -1.7015
   55CHL1  H19C 4039   6.380   5.840   7.371 -0.5169 -2.1074 -0.7560
   55CHL1    C1 4040   6.298   6.129   7.365 -0.0102 -1.0368 -0.3697
   55CHL1   H1A 4041   6.195   6.108   7.327  0.0977  1.7036 -2.5182
   55CHL1   H1B 4042   6.291   6.231   7.408  0.4152 -2.0612  2.2866
   55CHL1    C2 4043   6.391   6.139   7.239  0.3258  0.3861 -0.4318
   55CHL1   H2A 4044   6.357   6.234   7.191 -0.0156  1.3560  1.6156
   55CHL1   H2B 4045   6.373   6.057   7.166 -0.0388 -1.8593  2.0379
   55CHL1   C20 4046   5.926   5.990   8.055 -0.5563  0.5869  0.1851
   55CHL1   H20 4047   5.924   5.879   8.062 -0.9209  0.6564  1.6169
   55CHL1   C21 4048   5.814   6.030   7.961  0.2646  0.3839  0.8520
   55CHL1  H21A 4049   5.822   5.953   7.881  0.0767 -1.2270  2.3057
   55CHL1  H21B 4050   5.815   6.130   7.914  0.5529 -0.0013  0.0184
   55CHL1  H21C 4051   5.716   6.028   8.014 -0.9514  1.7554 -1.1881
   55CHL1   C22 4052   5.906   6.060   8.190 -0.4621 -0.0485 -0.2931
   55CHL1  H22A 4053   5.987   6.033   8.261 -1.5807  0.7285  1.3531
   55CHL1  H22B 4054   5.903   6.171   8.186 -3.2264 -0.0741 -0.2668
   55CHL1   C23 4055   5.796   6.013   8.280 -0.5400  0.0170  0.2668
   55CHL1  H23A 4056   5.697   6.035   8.235 -0.1170  0.6775 -0.3858
   55CHL1  H23B 4057   5.810   5.903   8.277  0.2762  0.1003 -2.5449
   55CHL1   C24 4058   5.810   6.070   8.424 -0.0128 -0.1762 -0.1574
   55CHL1  H24A 4059   5.911   6.066   8.469  1.5816  1.2260 -3.2978
   55CHL1  H24B 4060   5.781   6.177   8.418 -1.8207 -0.6095  0.4037
   55CHL1   C25 4061   5.704   6.017   8.519 -0.4787  0.1268 -0.1056
   55CHL1   H25 4062   5.724   6.070   8.614  0.1826 -0.0586 -0.1340
   55CHL1   C26 4063   5.569   6.055   8.474  0.2930  0.2472 -0.0989
   55CHL1  H26A 4064   5.547   6.023   8.370  1.1889  0.4128 -0.3500
   55CHL1  H26B 4065   5.489   6.013   8.539  0.1168 -0.4381 -0.7493
   55CHL1  H26C 4066   5.564   6.166   8.478  0.0042  0.2338 -0.1364
   55CHL1   C27 4067   5.696   5.866   8.535  0.2464  0.6722  0.2772
   55CHL1  H27A 4068   5.643   5.839   8.629  0.0510 -0.0855 -0.0420
   55CHL1  H27B 4069   5.639   5.819   8.452  2.3065 -0.2366 -0.6887
   55CHL1  H27C 4070   5.799   5.827   8.545  0.4640  1.3572  0.8328
   56CHL1    C3 4071   0.506   3.289   7.127 -0.0947  0.3440 -0.6455
   56CHL1    H3 4072   0.562   3.384   7.114  0.6090 -0.2155 -1.8154
   56CHL1    O3 4073   0.465   3.270   6.998  0.3490  0.3934 -0.0278
   56CHL1   H3' 4074   0.430   3.180   6.994 -2.3364  1.3309  0.5228
   56CHL1    C4 4075   0.600   3.183   7.182 -0.2237 -0.3580  0.3858
   56CHL1   H4A 4076   0.542   3.092   7.156 -5.8918  2.6594  0.8837
   56CHL1   H4B 4077   0.697   3.188   7.128  0.0321 -0.7547  0.8059
   56CHL1    C5 4078   0.632   3.189   7.328  0.2821  0.0181  1.0387
   56CHL1    C6 4079   0.759   3.188   7.374  0.2499  0.7774 -0.2000
   56CHL1    H6 4080   0.847   3.191   7.308 -0.0693  3.3616 -0.6049
   56CHL1    C7 4081   0.792   3.201   7.520 -0.0341  0.3926  0.0775
   56CHL1   H7A 4082   0.889   3.150   7.539  0.6832  1.1891 -1.2635
   56CHL1   H7B 4083   0.809   3.304   7.558  0.0684  0.9672 -1.4480
   56CHL1    C8 4084   0.673   3.148   7.605 -0.1985 -0.0768 -0.3035
   56CHL1    H8 4085   0.655   3.039   7.595 -3.5995  0.4426 -0.8915
   56CHL1   C14 4086   0.703   3.169   7.756 -0.4619 -0.5979  0.0623
   56CHL1   H14 4087   0.713   3.278   7.774 -4.1126 -0.4909  2.4113
   56CHL1   C15 4088   0.823   3.109   7.822 -0.2817  0.5511 -0.2526
   56CHL1  H15A 4089   0.831   3.004   7.790 -0.1427 -0.2057  2.0530
   56CHL1  H15B 4090   0.921   3.161   7.807  0.5222 -0.5253  1.0361
   56CHL1   C16 4091   0.796   3.133   7.971  0.0643  0.3263 -0.3031
   56CHL1  H16A 4092   0.826   3.044   8.030  0.6584  0.6157 -0.1728
   56CHL1  H16B 4093   0.853   3.216   8.016  1.7569 -1.1339  0.3333
   56CHL1   C17 4094   0.647   3.161   7.989  0.1249  0.0747  0.5794
   56CHL1   H17 4095   0.632   3.270   8.005 -1.1429  0.2125 -1.2743
   56CHL1   C13 4096   0.580   3.131   7.844 -0.1530  0.1105  0.4907
   56CHL1   C18 4097   0.538   2.977   7.826 -1.0437 -0.7908 -0.2240
   56CHL1  H18A 4098   0.620   2.910   7.859 -0.2947 -0.3818 -1.2022
   56CHL1  H18B 4099   0.452   2.967   7.896  0.3838  0.0188  1.7396
   56CHL1  H18C 4100   0.505   2.952   7.723 -1.4795  1.2682 -0.6426
   56CHL1   C12 4101   0.470   3.227   7.805  0.2132  0.1786 -0.4068
   56CHL1  H12A 4102   0.377   3.210   7.862  0.8763  1.2691  1.0612
   56CHL1  H12B 4103   0.495   3.334   7.824 -0.1636  0.0528  0.9083
   56CHL1   C11 4104   0.432   3.213   7.657 -0.2744 -0.3988  0.0432
   56CHL1  H11A 4105   0.382   3.115   7.648  1.6214 -1.4760  0.8045
   56CHL1  H11B 4106   0.358   3.289   7.622 -0.3727 -0.7169 -0.4437
   56CHL1    C9 4107   0.547   3.227   7.562  0.0728  0.3044  0.0521
   56CHL1    H9 4108   0.572   3.335   7.559  1.5151 -0.0258 -0.2114
   56CHL1   C10 4109   0.506   3.208   7.412 -0.1240  0.3921  0.7794
   56CHL1   C19 4110   0.421   3.083   7.391 -0.0536  0.0852 -0.0396
   56CHL1  H19A 4111   0.452   2.998   7.456  2.0104  1.2586  0.5922
   56CHL1  H19B 4112   0.313   3.101   7.409 -0.3059 -1.8611  0.6156
   56CHL1  H19C 4113   0.418   3.037   7.290 -1.4757 -1.2415  0.5594
   56CHL1    C1 4114   0.434   3.340   7.360 -0.6127 -0.3720  0.2544
   56CHL1   H1A 4115   0.350   3.357   7.431  0.7380  1.4736  1.4988
   56CHL1   H1B 4116   0.502   3.426   7.379  1.0626 -1.4607 -0.5441
   56CHL1    C2 4117   0.388   3.332   7.219 -0.1432  0.6536  0.6541
   56CHL1   H2A 4118   0.339   3.421   7.174 -0.0073  0.0838 -0.6585
   56CHL1   H2B 4119   0.313   3.250   7.212  0.4941  0.0158  1.1903
   56CHL1   C20 4120   0.585   3.089   8.107  0.2522  0.0887  0.2864
   56CHL1   H20 4121   0.571   2.982   8.080  0.4929  0.0065  0.4824
   56CHL1   C21 4122   0.446   3.147   8.144  0.1624  0.1141 -0.6708
   56CHL1  H21A 4123   0.445   3.256   8.166 -1.0927 -0.3088  1.6586
   56CHL1  H21B 4124   0.409   3.100   8.238  1.1229 -0.7187 -0.6873
   56CHL1  H21C 4125   0.378   3.127   8.059  0.9531 -0.4915 -1.1796
   56CHL1   C22 4126   0.673   3.089   8.235 -0.4340 -0.0980 -0.9977
   56CHL1  H22A 4127   0.755   3.019   8.210 -0.8331 -0.1009 -2.3764
   56CHL1  H22B 4128   0.710   3.189   8.266 -0.5202 -0.9197  2.1320
   56CHL1   C23 4129   0.614   3.050   8.370  0.8015 -0.3655  0.1242
   56CHL1  H23A 4130   0.553   3.132   8.414 -0.6400 -0.7404 -1.0690
   56CHL1  H23B 4131   0.549   2.962   8.351  0.7706 -0.3595  0.2010
   56CHL1   C24 4132   0.713   2.997   8.468 -0.0900  0.4242  0.6191
   56CHL1  H24A 4133   0.770   2.913   8.422  0.1675  1.9081 -1.9934
   56CHL1  H24B 4134   0.791   3.071   8.494  1.8638 -1.8533  1.6511
   56CHL1   C25 4135   0.650   2.936   8.599  0.1479 -0.0042 -0.0526
   56CHL1   H25 4136   0.564   2.874   8.566  0.5032 -0.3716 -0.2932
   56CHL1   C26 4137   0.746   2.845   8.680 -0.1108 -0.6773 -0.2962
   56CHL1  H26A 4138   0.696   2.786   8.760 -1.8814 -1.7741 -2.1219
   56CHL1  H26B 4139   0.820   2.903   8.739  1.2698 -2.4607 -0.2035
   56CHL1  H26C 4140   0.795   2.778   8.607  1.6329  1.7786 -1.5081
   56CHL1   C27 4141   0.598   3.050   8.691  0.3322  0.5535  0.1878
   56CHL1  H27A 4142   0.572   3.011   8.792  2.5589 -2.3521 -0.2112
   56CHL1  H27B 4143   0.676   3.124   8.719  0.0138  1.2551 -0.7261
   56CHL1  H27C 4144   0.510   3.104   8.650 -1.6810 -2.3415  0.4026
   57SAPC     N 4145   6.157   6.293  11.051 -0.0953  0.1639  0.3573
   57SAPC   C12 4146   6.302   6.261  11.092  0.6360 -0.3529 -0.3796
   57SAPC  H12A 4147   6.360   6.244  11.002  2.0573  2.2688 -0.0641
   57SAPC  H12B 4148   6.305   6.168  11.148  0.3894 -0.1001  0.0542
   57SAPC   C13 4149   6.103   6.185  10.977  0.6288  0.1673  0.0452
   57SAPC  H13A 4150   6.000   6.208  10.955  0.4506 -1.4954 -0.9794
   57SAPC  H13B 4151   6.145   6.169  10.879 -2.8265 -2.0137 -1.2410
   57SAPC  H13C 4152   6.095   6.098  11.040  1.7336  0.3687  0.4878
   57SAPC   C14 4153   6.077   6.306  11.183  0.3242 -0.5588  0.1909
   57SAPC  H14A 4154   6.064   6.210  11.232 -1.8916 -2.8935 -4.2886
   57SAPC  H14B 4155   6.124   6.376  11.249 -0.9926 -0.7580  1.3846
   57SAPC  H14C 4156   5.978   6.343  11.159  0.6746 -0.3155 -0.9477
   57SAPC   C15 4157   6.145   6.417  10.969  0.0213 -0.3033 -0.8002
   57SAPC  H15A 4158   6.185   6.497  11.030 -2.8601  0.7229 -0.1089
   57SAPC  H15B 4159   6.198   6.392  10.878 -2.0672 -2.0618 -1.6229
   57SAPC  H15C 4160   6.042   6.445  10.952 -0.3029 -0.7136  0.4344
   57SAPC   C11 4161   6.369   6.377  11.170 -0.0962  0.1656 -1.1211
   57SAPC  H11A 4162   6.454   6.342  11.232 -1.6206 -0.4580  0.7343
   57SAPC  H11B 4163   6.300   6.432  11.238 -0.8465  1.0843 -2.5660
   57SAPC     P 4164   6.538   6.473  10.982 -0.1007 -0.4444 -0.2873
   57SAPC   O13 4165   6.555   6.603  10.909 -0.5841  0.1733  0.1944
   57SAPC   O14 4166   6.655   6.421  11.057  0.1045 -0.7901  0.0240
   57SAPC   O12 4167   6.416   6.482  11.083  0.4938  0.0653  0.1401
   57SAPC   O11 4168   6.494   6.369  10.872  0.1179  0.1514 -0.2214
   57SAPC    C1 4169   6.599   6.290  10.818  0.0982  0.3056 -0.0043
   57SAPC    HA 4170   6.690   6.346  10.792  0.6020  0.1117  1.2766
   57SAPC    HB 4171   6.629   6.218  10.898 -2.4605  0.8505  1.5886
   57SAPC    C2 4172   6.548   6.225  10.693 -0.5388 -0.4219  0.2067
   57SAPC    HS 4173   6.629   6.153  10.665  0.5225  0.7589  0.1751
   57SAPC   O21 4174   6.527   6.321  10.589  0.0688  0.4222 -0.1632
   57SAPC   C21 4175   6.561   6.280  10.466 -0.0624  0.6905 -0.2212
   57SAPC   O22 4176   6.607   6.170  10.442  0.0660 -0.4133  0.6292
   57SAPC   C22 4177   6.544   6.394  10.368  0.0547  0.2822  0.1634
   57SAPC   H2R 4178   6.440   6.389  10.330 -0.1245 -0.9145  0.7748
   57SAPC   H2S 4179   6.546   6.488  10.428  0.1489 -1.3718  2.9668
   57SAPC    C3 4180   6.413   6.149  10.713 -0.1183 -0.1180  0.2112
   57SAPC    HX 4181   6.330   6.222  10.719  1.4432  2.0397 -2.0620
   57SAPC    HY 4182   6.407   6.096  10.810 -2.5360  0.7862  0.6097
   57SAPC   O31 4183   6.383   6.068  10.600  0.2350 -0.3137 -0.6125
   57SAPC   C31 4184   6.425   5.943  10.611  0.0941 -0.9333  0.6843
   57SAPC   O32 4185   6.501   5.903  10.696 -0.1885  0.4155 -0.4130
   57SAPC   C32 4186   6.383   5.848  10.502 -0.5739 -0.1550 -0.6875
   57SAPC   H2X 4187   6.279   5.815  10.524  0.4734 -3.0307  0.4582
   57SAPC   H2Y 4188   6.446   5.758  10.515 -1.0725 -1.0213 -3.5036
   57SAPC   C23 4189   6.641   6.379  10.248 -0.1378 -0.6884 -0.3044
   57SAPC   H3R 4190   6.642   6.278  10.203  0.9644  0.2310 -2.4718
   57SAPC   H3S 4191   6.740   6.399  10.294 -0.4517 -0.4106  0.2613
   57SAPC   C24 4192   6.625   6.494  10.145 -0.8317 -0.5818 -0.4743
   57SAPC   H4R 4193   6.717   6.497  10.082 -1.8373 -0.8721 -2.0079
   57SAPC   H4S 4194   6.619   6.586  10.207  1.0008 -1.0468  0.4673
   57SAPC   C25 4195   6.504   6.475  10.055 -0.7094  0.3359 -1.3995
   57SAPC   H5R 4196   6.410   6.466  10.113  0.7651  2.8231  1.7331
   57SAPC   C26 4197   6.506   6.453   9.923  0.3239 -0.5549 -1.1668
   57SAPC   H6R 4198   6.412   6.430   9.871 -0.8576  1.5388 -0.1158
   57SAPC   C27 4199   6.627   6.438   9.839  0.1401 -0.4529  0.1405
   57SAPC   H7R 4200   6.602   6.364   9.760  0.6033 -0.3822 -0.0756
   57SAPC   H7S 4201   6.711   6.383   9.887  0.5372 -0.8678 -0.9795
   57SAPC   C28 4202   6.669   6.574   9.795  0.0275  1.0098 -0.1497
   57SAPC   H8R 4203   6.686   6.642   9.880 -2.8736  2.5012 -0.6420
   57SAPC   C29 4204   6.668   6.611   9.664  0.1108 -0.2506  0.4586
   57SAPC   H9R 4205   6.701   6.713   9.642  0.1060  0.1716  2.2657
   57SAPC  C210 4206   6.627   6.538   9.536 -0.6313 -0.2786  0.0411
   57SAPC  H10R 4207   6.637   6.428   9.540  0.5435 -0.2832 -1.6956
   57SAPC  H10S 4208   6.698   6.570   9.456 -0.1409  0.4464  0.7563
   57SAPC  C211 4209   6.492   6.566   9.481 -0.3691 -0.0254 -0.5291
   57SAPC  H11R 4210   6.421   6.613   9.551  0.6127  3.2052 -1.5293
   57SAPC  C212 4211   6.465   6.548   9.350 -0.6658  0.3924 -0.1338
   57SAPC  H12R 4212   6.367   6.568   9.305 -0.1810  0.0331 -1.3842
   57SAPC  C213 4213   6.564   6.497   9.245  0.4398 -0.2135  0.0509
   57SAPC  H13R 4214   6.664   6.545   9.255  0.7963 -1.2419  1.7778
   57SAPC  H13S 4215   6.520   6.520   9.145 -0.2862 -0.5199  0.2911
   57SAPC  C214 4216   6.584   6.349   9.248  0.4801 -0.7962 -0.3546
   57SAPC  H14R 4217   6.541   6.290   9.331 -2.9054 -0.5800 -1.7984
   57SAPC  C215 4218   6.656   6.287   9.153  0.3447 -0.1160  0.2819
   57SAPC  H15R 4219   6.688   6.182   9.163  1.1118  0.0880 -0.0418
   57SAPC  C216 4220   6.719   6.353   9.031  0.0858  0.1329  0.1400
   57SAPC  H16R 4221   6.762   6.453   9.052 -0.1564  0.6336 -1.5763
   57SAPC  H16S 4222   6.640   6.357   8.953 -1.1785  0.2099  1.3826
   57SAPC  C217 4223   6.835   6.261   8.978 -0.2605 -0.0995 -0.6051
   57SAPC  H17R 4224   6.856   6.279   8.870  3.0505 -2.7776 -0.5711
   57SAPC  H17S 4225   6.790   6.159   8.981 -1.7291  0.5016  2.5927
   57SAPC  C218 4226   6.970   6.281   9.054 -0.7385  0.5081 -0.0544
   57SAPC  H18R 4227   6.948   6.286   9.163  0.0653 -0.2852  0.1452
   57SAPC  H18S 4228   7.023   6.375   9.029  0.4902  0.5789  2.4496
   57SAPC  C219 4229   7.067   6.166   9.008 -0.0674  0.3264  0.7597
   57SAPC  H19R 4230   7.094   6.179   8.901  2.2509 -3.5109  0.7227
   57SAPC  H19S 4231   7.013   6.070   9.017 -0.1953  0.4188  1.0067
   57SAPC  C220 4232   7.198   6.163   9.085  0.9053 -0.0732  0.2327
   57SAPC  H20R 4233   7.278   6.115   9.024  0.7476 -0.8853  0.6520
   57SAPC  H20S 4234   7.180   6.104   9.177 -0.0225 -0.6437 -0.3001
   57SAPC  H20T 4235   7.233   6.266   9.107 -0.6063  0.6207 -0.4452
   57SAPC   C33 4236   6.399   5.905  10.358 -0.3860 -0.2751 -0.3829
   57SAPC   H3X 4237   6.418   5.817  10.293  0.9180  0.1918 -0.6560
   57SAPC   H3Y 4238   6.495   5.960  10.362  1.7992 -3.7921  0.1033
   57SAPC   C34 4239   6.279   5.991  10.324  0.2709  0.3472  0.1351
   57SAPC   H4X 4240   6.268   6.076  10.394 -0.3972 -1.4819  2.3610
   57SAPC   H4Y 4241   6.185   5.933  10.338  1.1380 -1.5441 -1.3026
   57SAPC   C35 4242   6.291   6.035  10.178  0.1180 -0.8173  0.5366
   57SAPC   H5X 4243   6.311   5.947  10.113  0.7982  0.4133 -0.9984
   57SAPC   H5Y 4244   6.390   6.086  10.168 -0.2863  0.0876  0.9949
   57SAPC   C36 4245   6.175   6.127  10.133  1.0918  0.2657  1.1184
   57SAPC   H6X 4246   6.172   6.226  10.181  1.5573 -0.2184  2.1674
   57SAPC   H6Y 4247   6.080   6.070  10.141  0.7189  0.8476  0.8368
   57SAPC   C37 4248   6.183   6.142   9.981  0.1923 -1.4728 -0.6756
   57SAPC   H7X 4249   6.280   6.184   9.948 -2.3744  3.1275 -3.4462
   57SAPC   H7Y 4250   6.103   6.216   9.957  1.1337  0.1851  1.0464
   57SAPC   C38 4251   6.161   6.018   9.901  0.2323  0.5138 -0.5362
   57SAPC   H8X 4252   6.082   5.953   9.943 -1.2501  2.4146 -0.2763
   57SAPC   H8Y 4253   6.255   5.958   9.895  0.4714  0.8976 -0.6411
   57SAPC   C39 4254   6.127   6.041   9.757 -0.5352 -0.0058  0.0613
   57SAPC   H9X 4255   6.040   6.110   9.757 -0.9394 -0.4864 -1.1680
   57SAPC   H9Y 4256   6.090   5.945   9.714 -1.7825  0.6015 -0.2637
   57SAPC  C310 4257   6.251   6.085   9.678  0.0037 -0.0385 -0.4465
   57SAPC  H10X 4258   6.335   6.012   9.679  0.0592 -0.0095 -1.6080
   57SAPC  H10Y 4259   6.285   6.179   9.727 -0.2064 -0.3046  0.2316
   57SAPC  C311 4260   6.212   6.109   9.530 -0.0791 -0.4210  0.2779
   57SAPC  H11X 4261   6.157   6.206   9.529  1.5002  0.5343  1.4352
   57SAPC  H11Y 4262   6.146   6.030   9.488 -2.1935  0.7644  1.1885
   57SAPC  C312 4263   6.330   6.109   9.437 -0.0027 -0.0304 -0.3477
   57SAPC  H12X 4264   6.385   6.014   9.427 -0.9795 -0.5250 -1.1820
   57SAPC  H12Y 4265   6.395   6.183   9.489 -0.2705 -1.0421  1.5005
   57SAPC  C313 4266   6.293   6.150   9.297  0.5989  0.2412 -0.4124
   57SAPC  H13X 4267   6.390   6.149   9.243  0.6229 -0.8974 -0.3710
   57SAPC  H13Y 4268   6.243   6.250   9.302  1.8995  0.8948 -0.0830
   57SAPC  C314 4269   6.207   6.054   9.203  0.2092  0.0834 -0.6835
   57SAPC  H14X 4270   6.120   6.018   9.262  0.9611 -0.7865 -0.0799
   57SAPC  H14Y 4271   6.269   5.966   9.172  2.3119  1.2627  0.0007
   57SAPC  C315 4272   6.151   6.126   9.070  0.2513 -0.2100  0.0697
   57SAPC  H15X 4273   6.076   6.204   9.094  1.5455  1.3923 -0.8868
   57SAPC  H15Y 4274   6.104   6.047   9.007  0.1427  2.0230 -2.8934
   57SAPC  C316 4275   6.265   6.178   8.991 -0.1632 -0.2889  0.2663
   57SAPC  H16X 4276   6.347   6.220   9.053  0.3725  0.4357 -0.8834
   57SAPC  H16Y 4277   6.230   6.274   8.947  1.0128 -0.0020 -0.0929
   57SAPC  C317 4278   6.315   6.098   8.871 -0.0973  0.8644  0.0322
   57SAPC  H17X 4279   6.394   6.155   8.817  2.0979 -1.3821  0.7342
   57SAPC  H17Y 4280   6.225   6.081   8.808 -0.1280 -0.7517  0.4801
   57SAPC  C318 4281   6.382   5.962   8.907  0.1519 -0.8416 -0.3389
   57SAPC  H18X 4282   6.418   5.926   8.808  0.8169 -2.2807  0.4069
   57SAPC  H18Y 4283   6.299   5.899   8.947 -1.1660  1.5014  0.8263
   57SAPC  H18Z 4284   6.457   5.976   8.987 -2.2258 -0.1102  1.9222
   58SAPC     N 4285   1.975   4.846  11.524 -0.0710 -0.2919  0.2867
   58SAPC   C12 4286   2.117   4.811  11.483 -0.6487 -0.2028 -0.1868
   58SAPC  H12A 4287   2.184   4.810  11.567 -2.0832 -0.8675  0.9752
   58SAPC  H12B 4288   2.153   4.889  11.417  1.6726  0.1197  1.3305
   58SAPC   C13 4289   1.977   4.961  11.625  0.3449  0.2456 -0.2080
   58SAPC  H13A 4290   1.875   4.982  11.651 -0.2180 -0.9011 -1.3997
   58SAPC  H13B 4291   2.021   4.932  11.720  1.5746 -0.2118 -0.8873
   58SAPC  H13C 4292   2.020   5.054  11.591 -1.1404  0.7706 -0.7048
   58SAPC   C14 4293   1.897   4.895  11.406 -0.3292 -0.0138  1.0535
   58SAPC  H14A 4294   1.802   4.943  11.425 -0.5433  1.3672 -2.6033
   58SAPC  H14B 4295   1.966   4.956  11.349 -1.3145 -0.5438 -0.7902
   58SAPC  H14C 4296   1.883   4.821  11.328 -2.7121 -0.6003  1.9513
   58SAPC   C15 4297   1.904   4.731  11.594  0.1583  0.2757 -0.4730
   58SAPC  H15A 4298   1.930   4.729  11.699  0.0225  0.2622 -0.4395
   58SAPC  H15B 4299   1.797   4.739  11.602  0.0020 -1.7088 -0.0452
   58SAPC  H15C 4300   1.920   4.635  11.548 -1.5218 -0.9676  1.3556
   58SAPC   C11 4301   2.142   4.682  11.395  0.4918  0.2032 -0.1188
   58SAPC  H11A 4302   2.144   4.598  11.467  2.0088 -2.4543 -3.0268
   58SAPC  H11B 4303   2.246   4.689  11.356  0.7035  2.2682  0.6897
   58SAPC     P 4304   2.034   4.536  11.190 -0.0186  0.1424 -0.2502
   58SAPC   O13 4305   2.168   4.516  11.133 -0.5262  0.1756 -0.2900
   58SAPC   O14 4306   1.977   4.419  11.266  0.1906 -0.2963  0.3209
   58SAPC   O12 4307   2.048   4.660  11.286 -0.3028 -0.2906 -0.2686
   58SAPC   O11 4308   1.936   4.574  11.071  0.5225  0.3120  0.0361
   58SAPC    C1 4309   1.923   4.704  11.011  0.4467 -0.9541 -0.1950
   58SAPC    HA 4310   1.817   4.738  11.009  0.6623  0.0321  2.2715
   58SAPC    HB 4311   1.976   4.782  11.068 -0.7267 -0.1385 -0.1735
   58SAPC    C2 4312   1.980   4.702  10.866  0.5336 -0.6892  0.5463
   58SAPC    HS 4313   2.090   4.688  10.875  0.4263 -2.6017 -0.7365
   58SAPC   O21 4314   1.952   4.823  10.789 -0.1501  1.0274 -0.2837
   58SAPC   C21 4315   2.040   4.928  10.792  0.5940  0.1682  0.4518
   58SAPC   O22 4316   2.134   4.933  10.871  0.5634 -0.3905  0.3929
   58SAPC   C22 4317   2.002   5.024  10.683 -0.1395 -0.3090 -0.1877
   58SAPC   H2R 4318   1.925   4.978  10.618  0.6321 -3.0030  0.6543
   58SAPC   H2S 4319   1.974   5.124  10.723  1.8375 -0.0789  0.7982
   58SAPC    C3 4320   1.916   4.580  10.787 -0.4668  0.0357 -0.2468
   58SAPC    HX 4321   1.807   4.596  10.778 -0.6668 -1.7033 -1.4975
   58SAPC    HY 4322   1.926   4.487  10.847 -0.7505  0.2766  0.1765
   58SAPC   O31 4323   1.980   4.559  10.658  0.3768 -0.3281  0.3060
   58SAPC   C31 4324   1.924   4.598  10.549  0.3780 -0.4771  0.4806
   58SAPC   O32 4325   1.816   4.662  10.548 -0.1308 -0.5101  0.0538
   58SAPC   C32 4326   1.999   4.544  10.422  0.0634 -0.8293  0.6199
   58SAPC   H2X 4327   2.045   4.444  10.441  1.7906 -0.4407 -1.2759
   58SAPC   H2Y 4328   2.086   4.611  10.419 -1.0922  0.6973 -0.2012
   58SAPC   C23 4329   2.125   5.045  10.585  0.1356 -0.3647  0.2185
   58SAPC   H3R 4330   2.152   4.952  10.530  3.2280  2.6286 -3.9821
   58SAPC   H3S 4331   2.213   5.070  10.647  2.3163 -2.6191 -1.7478
   58SAPC   C24 4332   2.112   5.154  10.469 -0.3244 -0.9291 -0.5132
   58SAPC   H4R 4333   2.199   5.138  10.401  0.7410 -0.5416  0.7318
   58SAPC   H4S 4334   2.124   5.256  10.511 -1.0914 -1.5077  1.1845
   58SAPC   C25 4335   1.980   5.158  10.397  0.3832  0.4070 -0.2848
   58SAPC   H5R 4336   1.895   5.189  10.460 -0.7651 -2.9909  0.0420
   58SAPC   C26 4337   1.960   5.125  10.275 -0.4952  0.2637 -0.4430
   58SAPC   H6R 4338   1.856   5.136  10.240 -1.3866 -1.7064  1.3652
   58SAPC   C27 4339   2.048   5.075  10.157 -0.2146  0.4423 -0.3661
   58SAPC   H7R 4340   2.024   4.981  10.104  0.2406 -0.6681  1.3190
   58SAPC   H7S 4341   2.141   5.047  10.211 -1.3876 -0.0067  1.5217
   58SAPC   C28 4342   2.069   5.200  10.074  0.2901 -0.3213  0.0626
   58SAPC   H8R 4343   2.121   5.283  10.125  0.1910 -0.9424  1.2082
   58SAPC   C29 4344   2.015   5.227   9.954  0.0982 -1.0339 -0.2024
   58SAPC   H9R 4345   2.045   5.326   9.917 -0.9753 -0.6838 -0.1716
   58SAPC  C210 4346   1.920   5.147   9.872 -0.3694 -0.0392  0.4193
   58SAPC  H10R 4347   1.831   5.203   9.836 -1.8216 -1.3263  1.8527
   58SAPC  H10S 4348   1.864   5.066   9.923 -1.2067  1.3756  1.8643
   58SAPC  C211 4349   2.008   5.088   9.768  0.2820  0.2693  0.1940
   58SAPC  H11R 4350   2.076   5.007   9.799  2.0416  1.6553  0.1309
   58SAPC  C212 4351   2.035   5.141   9.642 -0.0978 -0.0813 -0.4830
   58SAPC  H12R 4352   2.101   5.082   9.576 -0.9228 -0.9368 -0.5719
   58SAPC  C213 4353   1.985   5.264   9.571  0.5696  0.5700  0.9009
   58SAPC  H13R 4354   2.069   5.314   9.519 -0.2742 -0.1821 -1.2968
   58SAPC  H13S 4355   1.943   5.329   9.651  1.9950 -0.1110  2.2611
   58SAPC  C214 4356   1.881   5.226   9.467  0.1718 -0.0491  0.6516
   58SAPC  H14R 4357   1.804   5.162   9.514 -1.9257  1.1863 -0.9579
   58SAPC  C215 4358   1.870   5.266   9.336  0.5948  0.3688 -0.4609
   58SAPC  H15R 4359   1.781   5.224   9.287  0.5095 -1.6534  1.3109
   58SAPC  C216 4360   1.952   5.357   9.256 -0.8684  0.2039  0.8774
   58SAPC  H16R 4361   2.051   5.381   9.300 -1.0102  1.5287  0.5164
   58SAPC  H16S 4362   1.908   5.459   9.250 -0.1016  0.5061  0.3492
   58SAPC  C217 4363   1.991   5.306   9.114  0.3668  0.5335  0.5166
   58SAPC  H17R 4364   2.026   5.202   9.135 -0.5509  0.4811  1.9341
   58SAPC  H17S 4365   2.078   5.358   9.070  0.7146 -0.4223  0.0422
   58SAPC  C218 4366   1.882   5.303   9.015  0.6682 -0.7314 -0.0158
   58SAPC  H18R 4367   1.852   5.407   8.988  0.1605 -1.3455 -2.0173
   58SAPC  H18S 4368   1.799   5.240   9.054  0.5462 -0.1979  0.5980
   58SAPC  C219 4369   1.926   5.245   8.876  0.2737  0.5735  0.0814
   58SAPC  H19R 4370   1.832   5.194   8.845 -1.3582  1.3801  3.3080
   58SAPC  H19S 4371   1.999   5.164   8.899  1.5873  1.6740 -0.0728
   58SAPC  C220 4372   1.986   5.347   8.778  0.2019  0.5577 -0.1420
   58SAPC  H20R 4373   1.968   5.324   8.671  0.0478 -3.7483  0.6337
   58SAPC  H20S 4374   2.097   5.345   8.786  0.1101  0.3136  1.4615
   58SAPC  H20T 4375   1.954   5.452   8.793  0.0848  0.7546 -1.6256
   58SAPC   C33 4376   1.935   4.550  10.282 -0.1926  0.4151 -1.0011
   58SAPC   H3X 4377   1.878   4.646  10.276 -2.4086 -0.8576 -1.5068
   58SAPC   H3Y 4378   1.859   4.469  10.279  1.4041 -1.5792  3.5724
   58SAPC   C34 4379   2.046   4.527  10.175  0.1033  1.0371 -0.9559
   58SAPC   H4X 4380   2.087   4.428  10.205 -1.0420  0.5511 -0.9600
   58SAPC   H4Y 4381   2.129   4.601  10.183  0.9002 -0.0324  1.5515
   58SAPC   C35 4382   1.990   4.544  10.027 -0.1737  0.1896 -0.3994
   58SAPC   H5X 4383   1.889   4.500  10.014  0.1114 -0.3012 -0.9849
   58SAPC   H5Y 4384   2.053   4.499   9.947 -0.6251  1.9950 -1.8719
   58SAPC   C36 4385   1.991   4.691   9.989  0.2896 -0.4530 -0.5117
   58SAPC   H6X 4386   2.097   4.723   9.984  0.5995 -1.5649 -1.3566
   58SAPC   H6Y 4387   1.938   4.738  10.075 -0.5214  0.1565 -1.3229
   58SAPC   C37 4388   1.910   4.714   9.860  0.0258  0.2369 -0.2189
   58SAPC   H7X 4389   1.881   4.821   9.856  3.0030  1.1367 -0.8701
   58SAPC   H7Y 4390   1.812   4.663   9.866  0.3767 -0.7053 -1.7582
   58SAPC   C38 4391   1.997   4.672   9.740  0.3224 -0.4180  0.6133
   58SAPC   H8X 4392   2.009   4.562   9.733 -2.8575 -0.8661  0.9234
   58SAPC   H8Y 4393   2.101   4.710   9.740  0.9057 -1.5868 -3.3248
   58SAPC   C39 4394   1.932   4.739   9.611  0.3550 -0.4260  0.7856
   58SAPC   H9X 4395   1.934   4.850   9.615 -1.0339 -0.2657 -1.3780
   58SAPC   H9Y 4396   1.828   4.700   9.606  0.7712 -1.8030  2.0513
   58SAPC  C310 4397   2.010   4.707   9.478  0.2690  0.3668 -0.6983
   58SAPC  H10X 4398   1.970   4.605   9.458  0.6455  0.1812 -0.5167
   58SAPC  H10Y 4399   2.121   4.702   9.490  0.3615 -0.5317 -1.7279
   58SAPC  C311 4400   1.987   4.804   9.357  0.7203 -0.0805  0.3585
   58SAPC  H11X 4401   2.013   4.907   9.390  4.0603 -1.1523  1.4793
   58SAPC  H11Y 4402   1.879   4.800   9.334  0.1261  1.5644  2.5026
   58SAPC  C312 4403   2.072   4.755   9.236  0.0525 -0.0119 -0.0419
   58SAPC  H12X 4404   2.072   4.644   9.237 -1.8412 -0.0649  2.2190
   58SAPC  H12Y 4405   2.173   4.800   9.251 -0.7224  1.4210  1.1809
   58SAPC  C313 4406   2.017   4.811   9.104 -0.1384  0.1702  0.2760
   58SAPC  H13X 4407   1.980   4.914   9.126 -1.5532 -0.5604  1.5338
   58SAPC  H13Y 4408   1.929   4.748   9.077  0.8922 -0.8128 -0.8689
   58SAPC  C314 4409   2.106   4.806   8.982 -0.1825  0.1595 -0.4394
   58SAPC  H14X 4410   2.121   4.697   8.968 -2.5985 -0.0798 -1.7129
   58SAPC  H14Y 4411   2.198   4.866   9.002  0.0429 -1.2728  3.7340
   58SAPC  C315 4412   2.029   4.852   8.859  0.9968  0.0244 -0.8206
   58SAPC  H15X 4413   2.029   4.962   8.872  0.0141  0.2920 -2.7008
   58SAPC  H15Y 4414   1.925   4.813   8.867  0.4776  1.5967  0.7437
   58SAPC  C316 4415   2.095   4.797   8.736 -0.3025 -0.4113 -0.4740
   58SAPC  H16X 4416   2.106   4.687   8.748 -0.1411 -0.2163  1.3226
   58SAPC  H16Y 4417   2.193   4.848   8.726 -0.6249  0.1405 -0.8356
   58SAPC  C317 4418   2.015   4.825   8.606 -0.0489  0.2466 -0.0899
   58SAPC  H17X 4419   1.984   4.931   8.598 -1.7216 -0.1170  1.0878
   58SAPC  H17Y 4420   1.919   4.769   8.604 -1.0898  1.9908 -1.8137
   58SAPC  C318 4421   2.080   4.766   8.479  0.4368 -0.1676  0.2350
   58SAPC  H18X 4422   2.027   4.805   8.389 -0.4678 -0.5480  0.5835
   58SAPC  H18Y 4423   2.077   4.656   8.465 -1.2722  0.0441 -1.5511
   58SAPC  H18Z 4424   2.183   4.805   8.468  0.3418  0.4223  1.2569
   59SAPC     N 4425   2.519   0.546  11.491  0.5617 -0.0534  0.4149
   59SAPC   C12 4426   2.526   0.440  11.373 -0.2930 -0.4605  0.3819
   59SAPC  H12A 4427   2.620   0.387  11.379 -0.3025 -0.4299  0.8758
   59SAPC  H12B 4428   2.526   0.494  11.280  0.7629  0.0196  0.6344
   59SAPC   C13 4429   2.390   0.608  11.489  0.0229 -0.5907  0.1967
   59SAPC  H13A 4430   2.364   0.674  11.571 -1.3627 -0.5187 -0.2771
   59SAPC  H13B 4431   2.366   0.661  11.398 -0.6278  0.9555  1.2274
   59SAPC  H13C 4432   2.321   0.524  11.489 -0.3894 -0.2970  2.0034
   59SAPC   C14 4433   2.557   0.468  11.612 -0.4741 -0.1847  1.0379
   59SAPC  H14A 4434   2.486   0.387  11.615 -0.1512 -0.6530 -1.4722
   59SAPC  H14B 4435   2.658   0.432  11.609 -1.1173 -2.0793  0.5062
   59SAPC  H14C 4436   2.538   0.524  11.702 -1.0984 -2.0897  2.1415
   59SAPC   C15 4437   2.634   0.640  11.458  0.1841 -0.2945  0.0972
   59SAPC  H15A 4438   2.632   0.691  11.363 -1.1061  0.5613  0.5456
   59SAPC  H15B 4439   2.642   0.720  11.530  0.3479 -1.9912  2.0747
   59SAPC  H15C 4440   2.722   0.579  11.466  0.5090  0.4091  2.8191
   59SAPC   C11 4441   2.430   0.317  11.361  0.2898 -0.2141  0.1247
   59SAPC  H11A 4442   2.450   0.256  11.452 -1.2466 -3.0893 -1.2979
   59SAPC  H11B 4443   2.461   0.249  11.279  0.1331  0.7089 -0.7212
   59SAPC     P 4444   2.241   0.421  11.219 -0.1078 -0.2581 -0.0069
   59SAPC   O13 4445   2.097   0.454  11.238 -0.0195 -0.1166  0.3541
   59SAPC   O14 4446   2.330   0.528  11.168  0.1373 -0.3587 -0.4183
   59SAPC   O12 4447   2.293   0.357  11.356  0.0925  0.1759 -0.1590
   59SAPC   O11 4448   2.255   0.303  11.118  0.3433  0.1391 -0.1584
   59SAPC    C1 4449   2.367   0.246  11.046 -0.7958  0.3544  0.4091
   59SAPC    HA 4450   2.459   0.308  11.046 -0.5160  0.0712  3.4237
   59SAPC    HB 4451   2.389   0.139  11.070  2.6635 -0.5187 -4.7208
   59SAPC    C2 4452   2.343   0.245  10.891 -0.0486 -0.0642 -0.2116
   59SAPC    HS 4453   2.233   0.245  10.877 -0.3000 -0.8491  1.5684
   59SAPC   O21 4454   2.404   0.144  10.824  0.0890  0.6719 -0.4996
   59SAPC   C21 4455   2.350   0.023  10.846 -0.2629  0.4861 -0.0614
   59SAPC   O22 4456   2.249  -0.002  10.917 -0.1092  0.3484  0.1477
   59SAPC   C22 4457   2.415  -0.080  10.758 -0.1990 -0.1242  0.2666
   59SAPC   H2R 4458   2.521  -0.049  10.748  0.0933  0.0230  3.0375
   59SAPC   H2S 4459   2.412  -0.177  10.812 -1.9375 -2.3468 -3.3956
   59SAPC    C3 4460   2.395   0.373  10.825  0.5414  0.4226 -0.0818
   59SAPC    HX 4461   2.506   0.378  10.818  0.5251 -1.2713 -3.1099
   59SAPC    HY 4462   2.364   0.464  10.880  0.8512  1.2764 -1.2643
   59SAPC   O31 4463   2.344   0.363  10.689  0.4291  0.2844  0.3211
   59SAPC   C31 4464   2.410   0.439  10.602  0.9874 -0.7544  0.4253
   59SAPC   O32 4465   2.495   0.524  10.625  0.4367  0.1269 -0.5695
   59SAPC   C32 4466   2.353   0.417  10.465  0.2108  1.0412  0.0169
   59SAPC   H2X 4467   2.246   0.444  10.475  0.3373  1.9634 -0.9285
   59SAPC   H2Y 4468   2.382   0.316  10.429  1.1695  0.7163  1.5911
   59SAPC   C23 4469   2.346  -0.107  10.624  0.3049 -0.2853  0.6531
   59SAPC   H3R 4470   2.237  -0.125  10.629  0.3100 -1.5393 -1.9695
   59SAPC   H3S 4471   2.387  -0.197  10.575 -2.4895 -0.3639 -1.8574
   59SAPC   C24 4472   2.359   0.016  10.525 -0.7789  0.4410  0.4973
   59SAPC   H4R 4473   2.342   0.109  10.582  0.5697  1.5120 -0.7587
   59SAPC   H4S 4474   2.287   0.004  10.441  0.7231  1.1557 -0.9526
   59SAPC   C25 4475   2.504   0.014  10.468  0.0302  0.6621 -0.3523
   59SAPC   H5R 4476   2.582   0.029  10.545  0.6425 -1.8580 -0.3959
   59SAPC   C26 4477   2.543   0.017  10.340 -0.0775 -0.1170  0.5998
   59SAPC   H6R 4478   2.649   0.023  10.313 -0.0794  0.2449  0.6678
   59SAPC   C27 4479   2.455   0.001  10.216  0.1237  0.5396 -0.0506
   59SAPC   H7R 4480   2.437   0.096  10.162 -1.5043 -0.9392 -2.3291
   59SAPC   H7S 4481   2.354  -0.045  10.231 -0.1857  1.1219 -0.3056
   59SAPC   C28 4482   2.520  -0.093  10.118  0.4864  0.2693 -0.0026
   59SAPC   H8R 4483   2.554  -0.186  10.166  1.8494  0.7695  0.0348
   59SAPC   C29 4484   2.534  -0.093   9.986 -0.4754 -0.0228 -0.6498
   59SAPC   H9R 4485   2.580  -0.178   9.932 -0.9523  0.0069 -1.1095
   59SAPC  C210 4486   2.475   0.015   9.894 -0.5328 -0.3577  0.2229
   59SAPC  H10R 4487   2.563   0.076   9.864 -0.1884 -0.3970  1.1282
   59SAPC  H10S 4488   2.412   0.085   9.953 -0.7453 -0.3108 -0.0582
   59SAPC  C211 4489   2.397  -0.032   9.775 -0.2931 -0.5652  0.3464
   59SAPC  H11R 4490   2.292  -0.054   9.797 -1.1621  2.2245 -0.5758
   59SAPC  C212 4491   2.433  -0.062   9.648  0.0006 -0.3371  0.5514
   59SAPC  H12R 4492   2.364  -0.090   9.567  1.5411 -0.8455 -0.6405
   59SAPC  C213 4493   2.567  -0.049   9.590 -0.0642  0.1077 -0.2546
   59SAPC  H13R 4494   2.629   0.003   9.666  0.8926  1.4943 -1.9241
   59SAPC  H13S 4495   2.568   0.016   9.500 -1.2906 -1.6394 -1.5956
   59SAPC  C214 4496   2.627  -0.183   9.568  0.1403 -0.1637  0.1598
   59SAPC  H14R 4497   2.639  -0.254   9.651  0.3115 -0.1606  0.1378
   59SAPC  C215 4498   2.671  -0.224   9.451 -0.4894  0.5316 -0.7820
   59SAPC  H15R 4499   2.699  -0.331   9.455 -0.4824  0.5354  3.1878
   59SAPC  C216 4500   2.672  -0.150   9.318  0.0153  0.3371 -0.1246
   59SAPC  H16R 4501   2.770  -0.100   9.299  2.0311 -3.4670 -0.9491
   59SAPC  H16S 4502   2.596  -0.070   9.314 -0.7820 -0.3912  0.2904
   59SAPC  C217 4503   2.654  -0.241   9.193  0.1006 -0.5170 -0.1981
   59SAPC  H17R 4504   2.560  -0.300   9.198  0.8943 -1.7874  0.2777
   59SAPC  H17S 4505   2.734  -0.319   9.190 -1.3689 -2.0341 -1.8954
   59SAPC  C218 4506   2.660  -0.155   9.065  0.8232 -0.5265 -0.3553
   59SAPC  H18R 4507   2.692  -0.224   8.984 -1.4619 -0.0536 -1.7442
   59SAPC  H18S 4508   2.731  -0.072   9.084 -0.6273  0.2323  2.4267
   59SAPC  C219 4509   2.529  -0.086   9.026 -0.7095  0.2003 -0.5623
   59SAPC  H19R 4510   2.487  -0.030   9.113  0.9876  0.8231 -0.0969
   59SAPC  H19S 4511   2.459  -0.163   8.988  0.7050 -0.8148 -1.1792
   59SAPC  C220 4512   2.550   0.013   8.913  0.1673  0.7313  0.4323
   59SAPC  H20R 4513   2.452   0.056   8.885  0.5179  0.5109 -1.2433
   59SAPC  H20S 4514   2.595  -0.047   8.831 -1.2101  0.6228 -0.2769
   59SAPC  H20T 4515   2.618   0.096   8.940  1.1596  0.4383 -1.0443
   59SAPC   C33 4516   2.397   0.524  10.355  0.0564 -0.9053 -0.5731
   59SAPC   H3X 4517   2.507   0.536  10.343  0.0681  2.4550  1.4348
   59SAPC   H3Y 4518   2.361   0.626  10.381 -1.4903 -1.9755  1.8116
   59SAPC   C34 4519   2.336   0.492  10.218  0.5509 -0.2803 -1.1493
   59SAPC   H4X 4520   2.229   0.466  10.232  0.6603  0.6055  1.9370
   59SAPC   H4Y 4521   2.378   0.400  10.173 -1.2263 -1.3884 -0.6388
   59SAPC   C35 4522   2.367   0.604  10.118  0.0310 -0.0008  0.9970
   59SAPC   H5X 4523   2.475   0.629  10.119  0.1563 -0.0697 -1.7616
   59SAPC   H5Y 4524   2.322   0.699  10.154  0.9493  0.2072  1.6453
   59SAPC   C36 4525   2.323   0.577   9.966 -0.0907 -0.0705  0.6659
   59SAPC   H6X 4526   2.222   0.613   9.937 -0.2216  0.1400  1.3472
   59SAPC   H6Y 4527   2.308   0.471   9.938 -0.2374  0.4322 -1.2533
   59SAPC   C37 4528   2.432   0.628   9.867  0.1096 -0.2944  0.7703
   59SAPC   H7X 4529   2.531   0.579   9.877  1.2922  1.9542  0.5930
   59SAPC   H7Y 4530   2.452   0.737   9.871  0.3760 -0.2917 -0.3234
   59SAPC   C38 4531   2.376   0.605   9.721  0.2141 -0.6978 -0.1161
   59SAPC   H8X 4532   2.268   0.630   9.721  0.4660  0.5310 -1.2041
   59SAPC   H8Y 4533   2.398   0.498   9.703  0.4663 -0.7559  0.4955
   59SAPC   C39 4534   2.453   0.683   9.607 -0.1363 -0.7177 -0.0044
   59SAPC   H9X 4535   2.470   0.785   9.646  0.5837 -1.5192  1.9286
   59SAPC   H9Y 4536   2.387   0.680   9.518 -0.3485  2.5447 -0.0542
   59SAPC  C310 4537   2.590   0.626   9.586 -0.6029 -0.2137  0.3885
   59SAPC  H10X 4538   2.578   0.531   9.531 -0.0523 -0.2221  0.2774
   59SAPC  H10Y 4539   2.631   0.608   9.687 -0.7456  1.4731  0.7859
   59SAPC  C311 4540   2.700   0.707   9.507 -0.2998 -0.4712 -0.2360
   59SAPC  H11X 4541   2.791   0.643   9.506 -0.7143 -1.1284  1.0769
   59SAPC  H11Y 4542   2.714   0.807   9.553  0.2021 -0.9548  0.7077
   59SAPC  C312 4543   2.652   0.733   9.363  0.1400 -0.4829  0.6178
   59SAPC  H12X 4544   2.574   0.812   9.363 -1.8258 -2.3359  0.8677
   59SAPC  H12Y 4545   2.608   0.640   9.323  1.6220 -0.7839 -0.3712
   59SAPC  C313 4546   2.772   0.788   9.277 -0.2445  0.7199  0.1319
   59SAPC  H13X 4547   2.856   0.716   9.268 -0.0281  1.0314 -0.3595
   59SAPC  H13Y 4548   2.810   0.878   9.330  2.1078 -0.0918 -0.0836
   59SAPC  C314 4549   2.721   0.844   9.144  0.1153  0.6107  0.1947
   59SAPC  H14X 4550   2.821   0.875   9.108 -0.2323  1.1089 -0.3626
   59SAPC  H14Y 4551   2.662   0.936   9.167 -2.4619 -1.1256  0.9715
   59SAPC  C315 4552   2.655   0.742   9.050  0.0583  0.7719 -0.0515
   59SAPC  H15X 4553   2.638   0.798   8.955 -1.9544 -1.2326 -0.9749
   59SAPC  H15Y 4554   2.557   0.715   9.095  0.5318  1.3516  1.3876
   59SAPC  C316 4555   2.734   0.613   9.024 -0.0023 -0.1175 -0.0805
   59SAPC  H16X 4556   2.729   0.539   9.106 -1.0829 -0.7492 -0.7050
   59SAPC  H16Y 4557   2.840   0.644   9.009  0.9212 -1.7368  2.5072
   59SAPC  C317 4558   2.679   0.544   8.903 -0.0628  0.2862  0.0044
   59SAPC  H17X 4559   2.742   0.457   8.873 -0.2675 -0.7849  2.3665
   59SAPC  H17Y 4560   2.676   0.616   8.819  0.7241 -1.2838 -1.4352
   59SAPC  C318 4561   2.527   0.501   8.913  0.8273 -0.2024 -0.2256
   59SAPC  H18X 4562   2.465   0.583   8.954 -0.2189 -1.4841  0.8311
   59SAPC  H18Y 4563   2.515   0.422   8.990  2.0946 -0.5175 -0.3228
   59SAPC  H18Z 4564   2.478   0.475   8.816  0.8188 -0.1651 -0.2317
   60SAPC     N 4565   4.707   5.122  11.223  0.0492  0.7305 -0.2242
   60SAPC   C12 4566   4.663   5.107  11.077 -0.5257  0.6724  0.0206
   60SAPC  H12A 4567   4.671   5.206  11.033  1.0848 -0.2353 -1.9253
   60SAPC  H12B 4568   4.557   5.087  11.074 -0.2938 -0.5889 -0.6179
   60SAPC   C13 4569   4.651   5.247  11.289 -0.6069  0.5789  0.0576
   60SAPC  H13A 4570   4.671   5.248  11.396  0.5785 -0.8724 -0.1246
   60SAPC  H13B 4571   4.699   5.337  11.254 -0.9321  0.5837 -0.3770
   60SAPC  H13C 4572   4.548   5.270  11.267 -0.4324  3.3574  1.5642
   60SAPC   C14 4573   4.661   5.012  11.312  0.5072 -0.2062 -0.0798
   60SAPC  H14A 4574   4.686   4.915  11.271 -2.7254 -1.1525 -0.1289
   60SAPC  H14B 4575   4.706   5.018  11.410  1.5184 -0.9680 -0.4831
   60SAPC  H14C 4576   4.553   5.008  11.311  0.4950 -1.0887  1.5601
   60SAPC   C15 4577   4.858   5.126  11.229  0.1590  0.0822 -0.0383
   60SAPC  H15A 4578   4.901   5.214  11.183  0.2550 -0.5805 -1.2536
   60SAPC  H15B 4579   4.897   5.127  11.329 -0.4850 -1.5208  0.2579
   60SAPC  H15C 4580   4.898   5.032  11.192 -1.0727 -0.0534 -1.0743
   60SAPC   C11 4581   4.730   5.006  10.975 -0.4691 -0.0757 -0.2645
   60SAPC  H11A 4582   4.840   5.025  10.974 -0.4924  0.3136  1.1812
   60SAPC  H11B 4583   4.706   5.015  10.867  0.0626 -0.5976 -0.4337
   60SAPC     P 4584   4.573   4.805  10.984  0.0563  0.3214 -0.2888
   60SAPC   O13 4585   4.607   4.665  10.962 -0.0883  0.0153  0.2093
   60SAPC   O14 4586   4.472   4.831  11.084  0.0372 -0.4405  0.1900
   60SAPC   O12 4587   4.714   4.880  11.028  0.3118 -0.1596  0.8943
   60SAPC   O11 4588   4.529   4.857  10.846  0.3141 -0.3321 -0.1831
   60SAPC    C1 4589   4.392   4.841  10.800 -0.2141  0.7329 -0.5213
   60SAPC    HA 4590   4.362   4.738  10.772 -1.9692  1.2326 -0.6313
   60SAPC    HB 4591   4.326   4.897  10.870  0.8406 -0.2293  1.3185
   60SAPC    C2 4592   4.375   4.924  10.668 -0.5147  0.2724  0.3643
   60SAPC    HS 4593   4.265   4.938  10.662 -0.4260  0.1363 -2.5787
   60SAPC   O21 4594   4.431   4.853  10.556 -0.5410 -0.0773 -0.1754
   60SAPC   C21 4595   4.356   4.749  10.510 -0.3688  0.0429  0.0614
   60SAPC   O22 4596   4.251   4.716  10.562 -0.4234  0.6191  0.1653
   60SAPC   C22 4597   4.427   4.668  10.410  0.5798 -0.3016  1.2031
   60SAPC   H2R 4598   4.528   4.710  10.393  0.4217  1.3774  3.7699
   60SAPC   H2S 4599   4.439   4.563  10.445 -2.2113 -1.0899  0.0335
   60SAPC    C3 4600   4.436   5.064  10.676  0.6492  0.3887 -0.1912
   60SAPC    HX 4601   4.546   5.054  10.667  0.6099  0.6650 -1.0956
   60SAPC    HY 4602   4.405   5.108  10.774  0.1303  1.1318 -0.6820
   60SAPC   O31 4603   4.380   5.142  10.566 -0.2063  0.2706 -0.3313
   60SAPC   C31 4604   4.432   5.264  10.576  0.5660 -0.0400 -0.3578
   60SAPC   O32 4605   4.511   5.301  10.661  0.7541  0.3215  0.3814
   60SAPC   C32 4606   4.370   5.355  10.470 -0.2819  0.1484 -0.1581
   60SAPC   H2X 4607   4.389   5.460  10.500  1.3473 -0.1065 -0.2387
   60SAPC   H2Y 4608   4.261   5.331  10.474  0.1331 -1.7088  2.0144
   60SAPC   C23 4609   4.346   4.656  10.278 -0.3872  0.6481  0.3292
   60SAPC   H3R 4610   4.249   4.608  10.304  0.4750 -0.8925  0.7684
   60SAPC   H3S 4611   4.393   4.582  10.210  0.3535  0.2369  1.2675
   60SAPC   C24 4612   4.317   4.784  10.194  0.3760 -0.9456 -0.6847
   60SAPC   H4R 4613   4.261   4.861  10.252  1.3436 -2.3815  2.3786
   60SAPC   H4S 4614   4.251   4.747  10.112 -0.6843 -0.3154 -0.1392
   60SAPC   C25 4615   4.438   4.853  10.148  0.2022  0.6312  0.0707
   60SAPC   H5R 4616   4.505   4.889  10.228 -0.9622  3.7785 -0.2130
   60SAPC   C26 4617   4.471   4.875  10.025  0.3155 -0.3997 -0.5805
   60SAPC   H6R 4618   4.568   4.925  10.025 -0.0818  0.6250  2.5028
   60SAPC   C27 4619   4.399   4.839   9.894  0.0089 -0.7586 -0.2918
   60SAPC   H7R 4620   4.333   4.753   9.914 -0.4162 -0.0174  1.7027
   60SAPC   H7S 4621   4.473   4.801   9.820  1.9236  0.4480  0.9036
   60SAPC   C28 4622   4.312   4.946   9.853  0.3228 -0.4736  0.2442
   60SAPC   H8R 4623   4.250   4.984   9.936  2.8224  1.7440  1.2499
   60SAPC   C29 4624   4.313   5.006   9.732  0.2991 -0.6883 -0.0957
   60SAPC   H9R 4625   4.237   5.084   9.717 -0.8747 -1.4233  1.7909
   60SAPC  C210 4626   4.402   4.973   9.616  0.7805  0.3370  0.3640
   60SAPC  H10R 4627   4.495   4.921   9.648 -0.6213 -1.9539  0.9981
   60SAPC  H10S 4628   4.436   5.064   9.562  0.1698 -0.7329 -1.9678
   60SAPC  C211 4629   4.334   4.879   9.519 -0.1734 -0.5685  0.1681
   60SAPC  H11R 4630   4.288   4.794   9.571  0.8307 -0.6071  1.0066
   60SAPC  C212 4631   4.330   4.876   9.379 -0.3438 -0.1340  0.1197
   60SAPC  H12R 4632   4.295   4.780   9.338 -0.0708  0.3808 -1.3512
   60SAPC  C213 4633   4.385   4.976   9.278 -0.2915 -0.4653 -0.5473
   60SAPC  H13R 4634   4.397   5.075   9.327  3.4322 -0.1285 -1.8424
   60SAPC  H13S 4635   4.319   5.002   9.193  0.4697  1.0698 -0.6987
   60SAPC  C214 4636   4.517   4.927   9.231  0.0362 -0.2897  0.6456
   60SAPC  H14R 4637   4.602   4.959   9.294  0.2657 -0.4608  0.4245
   60SAPC  C215 4638   4.534   4.841   9.126 -0.0822 -0.0101 -0.0755
   60SAPC  H15R 4639   4.635   4.816   9.091  0.9211  2.4897  0.7432
   60SAPC  C216 4640   4.429   4.795   9.036 -0.1844  0.0829 -0.4183
   60SAPC  H16R 4641   4.402   4.872   8.961 -1.0949  0.9770  0.7859
   60SAPC  H16S 4642   4.334   4.786   9.093 -1.5877 -1.0743 -2.7493
   60SAPC  C217 4643   4.455   4.657   8.975  0.3018 -0.3623  0.1978
   60SAPC  H17R 4644   4.354   4.611   8.970  1.2069 -2.3476 -2.3265
   60SAPC  H17S 4645   4.518   4.605   9.050  1.1817 -1.0442 -0.9696
   60SAPC  C218 4646   4.523   4.666   8.838  0.6969  0.9775  0.0661
   60SAPC  H18R 4647   4.606   4.739   8.849 -0.3870  2.6276 -1.9334
   60SAPC  H18S 4648   4.452   4.711   8.765 -0.6618 -0.2213  0.5814
   60SAPC  C219 4649   4.573   4.532   8.778 -0.3474 -0.6575  0.2923
   60SAPC  H19R 4650   4.592   4.467   8.865 -2.3868 -0.1311  1.1926
   60SAPC  H19S 4651   4.668   4.559   8.728 -0.8454  0.4384 -0.1084
   60SAPC  C220 4652   4.476   4.466   8.679 -0.2233 -0.1277  0.7409
   60SAPC  H20R 4653   4.391   4.418   8.733 -0.0211 -0.1084  1.0772
   60SAPC  H20S 4654   4.530   4.386   8.625  0.4873  0.8238  0.0200
   60SAPC  H20T 4655   4.437   4.545   8.612  1.8465  0.5675  0.3203
   60SAPC   C33 4656   4.425   5.324  10.329 -0.4128  0.1548  0.3144
   60SAPC   H3X 4657   4.454   5.216  10.329 -0.3885  0.1612 -0.2858
   60SAPC   H3Y 4658   4.509   5.385  10.292 -0.7825  0.6271  0.2451
   60SAPC   C34 4659   4.303   5.341  10.226 -0.7177 -0.1134  1.3827
   60SAPC   H4X 4660   4.278   5.449  10.227 -0.4085  0.0596 -1.6593
   60SAPC   H4Y 4661   4.216   5.284  10.264 -0.3362 -0.5749  1.5751
   60SAPC   C35 4662   4.347   5.316  10.083 -0.0684 -0.3700  0.1214
   60SAPC   H5X 4663   4.355   5.206  10.068  0.8213 -0.5685  1.8503
   60SAPC   H5Y 4664   4.443   5.370  10.069 -0.0694 -0.8952 -2.5060
   60SAPC   C36 4665   4.252   5.378   9.985 -0.1199  0.0364  0.3015
   60SAPC   H6X 4666   4.241   5.484  10.018 -0.8119  0.2423 -0.5720
   60SAPC   H6Y 4667   4.157   5.321   9.986 -0.7311  0.8525 -2.7493
   60SAPC   C37 4668   4.314   5.386   9.848  0.2506  0.9278  0.1407
   60SAPC   H7X 4669   4.326   5.282   9.810 -1.7355  0.2165  1.3329
   60SAPC   H7Y 4670   4.415   5.433   9.843  0.9619 -0.4262  1.0798
   60SAPC   C38 4671   4.228   5.475   9.754 -0.0670  0.5037 -0.3830
   60SAPC   H8X 4672   4.228   5.574   9.805 -0.5477  0.4192 -0.2103
   60SAPC   H8Y 4673   4.126   5.431   9.750 -0.0376  0.4438 -0.4663
   60SAPC   C39 4674   4.277   5.486   9.607  0.5295 -0.0438  0.5893
   60SAPC   H9X 4675   4.387   5.491   9.598  0.6015  1.1250  1.8048
   60SAPC   H9Y 4676   4.222   5.573   9.566 -0.8954 -0.9055  0.5902
   60SAPC  C310 4677   4.237   5.368   9.507  0.1571  0.8720 -0.3808
   60SAPC  H10X 4678   4.126   5.377   9.500  0.0391  0.5795  0.8901
   60SAPC  H10Y 4679   4.247   5.273   9.563  1.5950  1.2542  0.0611
   60SAPC  C311 4680   4.293   5.369   9.369  0.5749  0.3287 -0.1034
   60SAPC  H11X 4681   4.292   5.265   9.329  1.4299  0.4886 -0.5666
   60SAPC  H11Y 4682   4.398   5.405   9.376  1.0371 -0.6239 -1.6481
   60SAPC  C312 4683   4.196   5.453   9.281 -0.2540  0.3276  0.1713
   60SAPC  H12X 4684   4.152   5.541   9.331 -2.1482 -0.9594  0.8812
   60SAPC  H12Y 4685   4.108   5.393   9.249  0.3697  0.2970 -1.5611
   60SAPC  C313 4686   4.255   5.498   9.155 -0.0503 -0.0301 -0.2711
   60SAPC  H13X 4687   4.282   5.405   9.100  0.1566 -1.7033  2.4936
   60SAPC  H13Y 4688   4.344   5.563   9.171 -0.8500  0.7522  1.2220
   60SAPC  C314 4689   4.143   5.585   9.084 -0.2739  0.1482  0.1986
   60SAPC  H14X 4690   4.107   5.669   9.146  0.3075 -0.3918  1.2922
   60SAPC  H14Y 4691   4.049   5.527   9.073 -0.4263 -0.3969  3.4107
   60SAPC  C315 4692   4.181   5.636   8.948  0.8525 -0.7191  0.1556
   60SAPC  H15X 4693   4.233   5.554   8.895  1.2582  0.2850 -1.0584
   60SAPC  H15Y 4694   4.259   5.714   8.956  0.0106  0.3364 -1.3868
   60SAPC  C316 4695   4.060   5.683   8.861  0.1646  0.1611 -0.4243
   60SAPC  H16X 4696   4.034   5.790   8.875 -1.0883 -0.3047  1.1426
   60SAPC  H16Y 4697   3.971   5.626   8.896  0.2175  1.1477  1.4748
   60SAPC  C317 4698   4.073   5.657   8.710  1.0180  0.1281 -0.2196
   60SAPC  H17X 4699   4.108   5.553   8.691 -1.3795 -0.3677 -2.6831
   60SAPC  H17Y 4700   4.140   5.737   8.672 -0.3193  0.4277 -2.0921
   60SAPC  C318 4701   3.936   5.672   8.638 -0.2746  0.1991 -0.7240
   60SAPC  H18X 4702   3.893   5.773   8.653  0.6665  0.2084  2.8568
   60SAPC  H18Y 4703   3.869   5.593   8.678 -0.6324 -0.6151 -2.8351
   60SAPC  H18Z 4704   3.948   5.658   8.529 -0.7677 -3.4350 -0.4401
   61SAPC     N 4705   5.854   3.575  11.553 -0.3552  0.2081  0.1843
   61SAPC   C12 4706   5.765   3.516  11.439 -0.6949 -0.2136 -0.3823
   61SAPC  H12A 4707   5.711   3.595  11.388 -4.3828 -1.6062  1.0285
   61SAPC  H12B 4708   5.685   3.458  11.484  0.3120 -2.3147 -1.1900
   61SAPC   C13 4709   5.974   3.662  11.503 -0.4880  0.6420  0.0512
   61SAPC  H13A 4710   6.035   3.608  11.432  1.6988  1.5946  1.1259
   61SAPC  H13B 4711   5.930   3.746  11.452  1.2274  0.7553 -1.3556
   61SAPC  H13C 4712   6.038   3.699  11.582 -0.0013  1.8739 -0.8820
   61SAPC   C14 4713   5.778   3.660  11.644 -0.1227 -0.8999 -0.4551
   61SAPC  H14A 4714   5.730   3.744  11.597 -0.9646 -1.0437  0.1127
   61SAPC  H14B 4715   5.698   3.597  11.683  0.3939 -1.4814 -0.3188
   61SAPC  H14C 4716   5.841   3.694  11.725 -0.7297  2.6483 -1.3098
   61SAPC   C15 4717   5.908   3.457  11.627 -0.0929 -0.3778  0.0340
   61SAPC  H15A 4718   5.963   3.498  11.711 -1.0905  0.4411  0.3071
   61SAPC  H15B 4719   5.836   3.384  11.661 -1.9674  0.9143 -1.0068
   61SAPC  H15C 4720   5.977   3.405  11.562  1.4169  0.6399  0.7601
   61SAPC   C11 4721   5.839   3.431  11.333  0.6115 -0.2351  0.4329
   61SAPC  H11A 4722   5.764   3.370  11.279  1.1092 -1.5609  1.1901
   61SAPC  H11B 4723   5.912   3.370  11.390  2.6548  0.6927 -1.0775
   61SAPC     P 4724   5.852   3.633  11.152 -0.0265  0.4011 -0.4670
   61SAPC   O13 4725   5.746   3.699  11.229  0.1966 -0.1319 -0.2699
   61SAPC   O14 4726   5.957   3.722  11.106  0.0447  0.0324  0.0640
   61SAPC   O12 4727   5.919   3.513  11.246 -0.3032 -0.2964 -0.5314
   61SAPC   O11 4728   5.788   3.565  11.026 -0.1830  0.1819  0.4548
   61SAPC    C1 4729   5.877   3.481  10.939 -0.0822  0.0165 -0.2251
   61SAPC    HA 4730   5.977   3.462  10.984  0.3984  0.4822 -1.0723
   61SAPC    HB 4731   5.821   3.387  10.921 -0.3124 -0.4525  2.5129
   61SAPC    C2 4732   5.902   3.553  10.808  0.0803  0.1498  0.2378
   61SAPC    HS 4733   5.961   3.645  10.827 -0.7974  0.8388 -0.2955
   61SAPC   O21 4734   5.770   3.596  10.755 -0.4585 -0.3561 -0.2123
   61SAPC   C21 4735   5.769   3.713  10.699  0.0513  0.3586  0.7731
   61SAPC   O22 4736   5.872   3.783  10.685  0.2453 -0.5418 -0.1964
   61SAPC   C22 4737   5.631   3.754  10.653 -0.1885  0.3038  0.0209
   61SAPC   H2R 4738   5.596   3.663  10.599  1.8698  0.7056 -2.1815
   61SAPC   H2S 4739   5.568   3.785  10.739 -2.4013 -2.6578 -0.3641
   61SAPC    C3 4740   5.971   3.451  10.712 -0.3014 -0.1978  0.5022
   61SAPC    HX 4741   5.909   3.359  10.700 -1.1737  0.4451 -0.0807
   61SAPC    HY 4742   6.060   3.401  10.756 -0.9565 -2.0608 -0.1871
   61SAPC   O31 4743   6.012   3.513  10.589 -0.3092  0.0021 -0.2446
   61SAPC   C31 4744   5.943   3.471  10.482 -0.4085  0.0830  0.1810
   61SAPC   O32 4745   5.861   3.375  10.479 -0.6151  0.0073 -0.2290
   61SAPC   C32 4746   5.975   3.559  10.359 -0.1706  0.0404 -0.1392
   61SAPC   H2X 4747   6.054   3.501  10.308 -2.0296 -2.8634  0.0100
   61SAPC   H2Y 4748   6.001   3.661  10.396 -0.0727 -0.3082  0.7788
   61SAPC   C23 4749   5.635   3.867  10.555  0.7159  0.1696  0.1859
   61SAPC   H3R 4750   5.726   3.863  10.492 -0.0978 -2.8080 -0.9738
   61SAPC   H3S 4751   5.626   3.965  10.607  0.2847  0.6422 -0.7443
   61SAPC   C24 4752   5.521   3.855  10.455 -0.5297 -0.5224 -0.1281
   61SAPC   H4R 4753   5.426   3.826  10.505 -1.9942  0.4250 -2.2064
   61SAPC   H4S 4754   5.568   3.771  10.398  0.2614  1.9348 -3.3735
   61SAPC   C25 4755   5.507   3.985  10.382  0.0476  0.2894 -0.0205
   61SAPC   H5R 4756   5.475   4.069  10.446  1.7151  0.0867  1.1149
   61SAPC   C26 4757   5.512   3.996  10.248  0.7651  0.3754  0.2890
   61SAPC   H6R 4758   5.508   4.096  10.203  0.8024  0.6786  0.9555
   61SAPC   C27 4759   5.534   3.884  10.151  0.9652 -0.2573  0.0076
   61SAPC   H7R 4760   5.632   3.839  10.177  0.8322 -0.5078  0.0726
   61SAPC   H7S 4761   5.555   3.920  10.048  3.0827 -1.0428  0.1314
   61SAPC   C28 4762   5.428   3.773  10.161 -0.1214  0.2476 -0.4196
   61SAPC   H8R 4763   5.390   3.749  10.262 -2.3820 -0.2444 -1.3449
   61SAPC   C29 4764   5.377   3.705  10.052 -1.1931  0.1044 -0.2466
   61SAPC   H9R 4765   5.307   3.622  10.068  1.8785 -2.8169 -0.9272
   61SAPC  C210 4766   5.411   3.721   9.909  0.3585 -0.2251 -1.1367
   61SAPC  H10R 4767   5.381   3.628   9.857  0.2778 -0.2902 -0.9751
   61SAPC  H10S 4768   5.518   3.735   9.886  0.6059  0.8698  0.4735
   61SAPC  C211 4769   5.332   3.833   9.841 -0.1462  0.1290  0.6246
   61SAPC  H11R 4770   5.224   3.837   9.863 -0.1191 -1.1579  1.1329
   61SAPC  C212 4771   5.383   3.914   9.748  0.1092  0.0514 -0.1325
   61SAPC  H12R 4772   5.308   3.972   9.692 -0.9170 -0.6663  0.4737
   61SAPC  C213 4773   5.526   3.917   9.686 -0.1744  0.1418 -0.0755
   61SAPC  H13R 4774   5.592   3.837   9.727  0.3740 -0.4781 -2.0414
   61SAPC  H13S 4775   5.579   4.010   9.716 -1.5785  1.2874 -1.0133
   61SAPC  C214 4776   5.526   3.908   9.539  0.1832  0.3917  0.7960
   61SAPC  H14R 4777   5.467   3.826   9.496 -0.4938  0.7239  1.0784
   61SAPC  C215 4778   5.589   3.993   9.451  0.6101  0.0053  0.1946
   61SAPC  H15R 4779   5.575   3.975   9.343 -0.3094 -0.4412  0.3740
   61SAPC  C216 4780   5.669   4.113   9.477 -0.5411 -0.1032  0.5829
   61SAPC  H16R 4781   5.719   4.123   9.576  1.7688  0.5538 -0.5507
   61SAPC  H16S 4782   5.609   4.204   9.454 -0.0320 -0.1615 -1.1286
   61SAPC  C217 4783   5.788   4.091   9.377 -0.3509  0.1222 -0.0503
   61SAPC  H17R 4784   5.765   4.080   9.269 -0.3534  0.3092 -0.0705
   61SAPC  H17S 4785   5.838   3.996   9.402  1.4779  0.7403 -1.1779
   61SAPC  C218 4786   5.882   4.214   9.378 -0.3018  0.5619  0.3135
   61SAPC  H18R 4787   5.936   4.209   9.475  1.5126  0.1958 -0.6705
   61SAPC  H18S 4788   5.820   4.306   9.367  1.6892  1.6899 -3.3846
   61SAPC  C219 4789   5.984   4.208   9.263  0.0858  0.7856 -0.2170
   61SAPC  H19R 4790   5.933   4.180   9.169 -0.4983 -2.9773  1.0735
   61SAPC  H19S 4791   6.056   4.125   9.279 -0.6039  0.0406 -0.8965
   61SAPC  C220 4792   6.056   4.337   9.239  0.2534  0.2741  0.9828
   61SAPC  H20R 4793   5.999   4.425   9.204  0.2930 -0.3770 -0.8261
   61SAPC  H20S 4794   6.132   4.316   9.161  1.1060 -1.1379  2.1238
   61SAPC  H20T 4795   6.095   4.370   9.338 -0.6210 -0.5543  1.6344
   61SAPC   C33 4796   5.863   3.560  10.256 -0.6838  0.5492 -0.5565
   61SAPC   H3X 4797   5.769   3.582  10.312  0.6633  0.2558  1.9359
   61SAPC   H3Y 4798   5.855   3.465  10.199 -0.7756 -0.0818  0.4783
   61SAPC   C34 4799   5.899   3.665  10.147  0.2050  0.4971 -0.5460
   61SAPC   H4X 4800   6.004   3.650  10.112  0.9701  0.2521  1.6802
   61SAPC   H4Y 4801   5.882   3.761  10.199  0.3242  0.2417 -0.0247
   61SAPC   C35 4802   5.805   3.653  10.025  0.3264 -0.6145  0.0701
   61SAPC   H5X 4803   5.697   3.650  10.050  0.8991 -0.9669  2.7628
   61SAPC   H5Y 4804   5.828   3.560   9.969  2.1022  0.0180 -0.3080
   61SAPC   C36 4805   5.824   3.765   9.921  0.2274 -0.2478  0.6794
   61SAPC   H6X 4806   5.848   3.864   9.967  2.7437  0.8790 -2.6201
   61SAPC   H6Y 4807   5.738   3.772   9.851  0.8400 -3.0529 -0.4693
   61SAPC   C37 4808   5.943   3.741   9.829 -0.5026 -0.1901  0.1713
   61SAPC   H7X 4809   5.945   3.635   9.796  0.5007  0.0488 -0.6036
   61SAPC   H7Y 4810   6.038   3.772   9.877 -1.6068  0.4520  2.0289
   61SAPC   C38 4811   5.937   3.820   9.699  0.0854 -0.7230  0.0131
   61SAPC   H8X 4812   5.980   3.922   9.710 -1.1424 -0.0638 -1.0030
   61SAPC   H8Y 4813   5.829   3.821   9.671  0.1920 -1.3989 -0.4772
   61SAPC   C39 4814   6.016   3.753   9.588  0.4220 -0.2431  0.5541
   61SAPC   H9X 4815   5.980   3.648   9.588 -1.2516  0.3047  0.9744
   61SAPC   H9Y 4816   6.126   3.748   9.604  0.6770 -1.1356 -1.2419
   61SAPC  C310 4817   5.999   3.818   9.445 -0.1089 -0.4794  0.1203
   61SAPC  H10X 4818   6.033   3.923   9.440 -3.0587  0.6791  1.7107
   61SAPC  H10Y 4819   5.889   3.811   9.428 -0.6367  3.4762  0.9900
   61SAPC  C311 4820   6.069   3.742   9.339  0.1194  0.3482 -0.1575
   61SAPC  H11X 4821   6.045   3.635   9.359 -2.8359  1.1097  0.9022
   61SAPC  H11Y 4822   6.180   3.750   9.347  0.0833 -0.1471  1.0472
   61SAPC  C312 4823   6.024   3.782   9.195  0.4099  0.0128 -0.1770
   61SAPC  H12X 4824   6.094   3.737   9.122 -1.5160 -2.1906 -0.8087
   61SAPC  H12Y 4825   6.036   3.892   9.184  1.2221 -0.1641 -1.1837
   61SAPC  C313 4826   5.881   3.734   9.160  0.9094  0.2649 -0.1521
   61SAPC  H13X 4827   5.810   3.812   9.193  0.5876 -0.7832  1.7755
   61SAPC  H13Y 4828   5.856   3.648   9.226 -1.3520 -0.0116 -1.2661
   61SAPC  C314 4829   5.860   3.696   9.010  0.8071  0.3298 -0.4098
   61SAPC  H14X 4830   5.929   3.611   8.991 -0.2227 -0.0943 -2.4816
   61SAPC  H14Y 4831   5.888   3.786   8.951  2.5877  0.0844 -0.0018
   61SAPC  C315 4832   5.714   3.651   8.997 -0.0438 -0.4770 -0.1729
   61SAPC  H15X 4833   5.646   3.738   9.012 -1.1791 -1.5703  1.4977
   61SAPC  H15Y 4834   5.678   3.587   9.081 -2.5817  0.8658 -0.1401
   61SAPC  C316 4835   5.674   3.594   8.864  1.3367  0.4840  0.2915
   61SAPC  H16X 4836   5.743   3.513   8.835  0.3508 -0.1982 -0.1855
   61SAPC  H16Y 4837   5.674   3.665   8.779 -1.2917  3.3193  2.4198
   61SAPC  C317 4838   5.535   3.526   8.863  0.5747  0.0321  0.1974
   61SAPC  H17X 4839   5.539   3.450   8.943  0.8257  0.3196  0.4571
   61SAPC  H17Y 4840   5.530   3.480   8.761  1.2667  0.5606 -0.0803
   61SAPC  C318 4841   5.405   3.612   8.881  0.6841 -0.9179  0.2826
   61SAPC  H18X 4842   5.316   3.550   8.904  0.1832 -0.2568  0.1612
   61SAPC  H18Y 4843   5.379   3.659   8.784  3.3553 -0.5285 -0.3319
   61SAPC  H18Z 4844   5.410   3.695   8.955 -1.5318 -1.1479  0.7405
   62SAPC     N 4845   5.293   2.123  11.064  0.3858 -0.1856  0.2839
   62SAPC   C12 4846   5.311   2.089  10.914  0.9136 -0.4148  0.9906
   62SAPC  H12A 4847   5.329   1.984  10.901 -3.0340 -1.2536  1.2304
   62SAPC  H12B 4848   5.402   2.135  10.878  0.0167  0.4102 -0.3394
   62SAPC   C13 4849   5.279   2.269  11.072  0.1419 -0.0009 -0.1650
   62SAPC  H13A 4850   5.294   2.309  11.171 -2.2260 -1.5083  0.8884
   62SAPC  H13B 4851   5.354   2.311  11.006 -1.0897 -0.1859 -1.7525
   62SAPC  H13C 4852   5.186   2.303  11.028 -0.0611  0.9091  0.9434
   62SAPC   C14 4853   5.172   2.055  11.132  0.3366 -0.3701 -0.2770
   62SAPC  H14A 4854   5.175   1.948  11.119  0.7987 -0.7362  2.3665
   62SAPC  H14B 4855   5.164   2.078  11.237 -2.7380  1.6887 -0.8207
   62SAPC  H14C 4856   5.080   2.096  11.091  0.7710  1.1154  0.1836
   62SAPC   C15 4857   5.416   2.084  11.137  0.8014  0.8342 -0.6278
   62SAPC  H15A 4858   5.397   2.081  11.243 -1.8898  0.9511 -1.0396
   62SAPC  H15B 4859   5.464   1.997  11.094 -0.2836  0.9791 -2.2085
   62SAPC  H15C 4860   5.495   2.158  11.135  2.5966 -0.9406  0.5144
   62SAPC   C11 4861   5.200   2.126  10.813  0.3173 -0.4678 -0.1368
   62SAPC  H11A 4862   5.232   2.101  10.710  0.3174 -1.6610  0.1402
   62SAPC  H11B 4863   5.196   2.237  10.805  1.1062 -0.3061  1.4600
   62SAPC     P 4864   4.936   2.147  10.830 -0.4323  0.3604  0.1308
   62SAPC   O13 4865   4.825   2.058  10.880 -0.4032 -0.0587 -0.1361
   62SAPC   O14 4866   4.949   2.272  10.909 -0.0436  0.0948 -0.2776
   62SAPC   O12 4867   5.074   2.073  10.841 -0.3356  0.1211  0.0125
   62SAPC   O11 4868   4.930   2.172  10.666 -0.0858  0.0717 -0.4681
   62SAPC    C1 4869   4.980   2.288  10.610 -0.1890 -0.0853 -0.0100
   62SAPC    HA 4870   4.885   2.336  10.579  0.1031 -0.1357 -1.0517
   62SAPC    HB 4871   5.047   2.355  10.668 -1.9350  2.4201 -0.7180
   62SAPC    C2 4872   5.055   2.247  10.474  0.0614  0.4409 -0.6086
   62SAPC    HS 4873   4.977   2.192  10.417  0.0970 -2.0814  1.5648
   62SAPC   O21 4874   5.174   2.170  10.507  0.2731  0.1749  0.0910
   62SAPC   C21 4875   5.200   2.084  10.410 -0.1063  0.7228  0.1508
   62SAPC   O22 4876   5.121   2.055  10.319  0.8532 -0.8803  0.4048
   62SAPC   C22 4877   5.334   2.022  10.424 -0.3049  0.2967  0.0934
   62SAPC   H2R 4878   5.321   1.950  10.508  0.7334 -1.3642 -1.1004
   62SAPC   H2S 4879   5.375   1.967  10.337  2.7729 -0.9457  2.1641
   62SAPC    C3 4880   5.100   2.371  10.388 -0.0998 -0.3208 -0.6188
   62SAPC    HX 4881   5.183   2.413  10.449 -0.2026 -0.9943  0.0055
   62SAPC    HY 4882   5.022   2.448  10.370 -1.2444 -1.0965  0.7573
   62SAPC   O31 4883   5.150   2.329  10.261  0.3694 -0.1514 -0.0154
   62SAPC   C31 4884   5.058   2.308  10.167  0.9624  0.3667  0.7565
   62SAPC   O32 4885   4.940   2.329  10.175  0.4732 -0.2874 -0.0626
   62SAPC   C32 4886   5.115   2.251  10.040  0.4965  0.1483 -0.4873
   62SAPC   H2X 4887   5.128   2.143  10.065 -0.8703  0.3139  1.1051
   62SAPC   H2Y 4888   5.214   2.301  10.033  0.4320  0.1740 -1.2685
   62SAPC   C23 4889   5.439   2.125  10.465  0.7034  0.3750 -0.0236
   62SAPC   H3R 4890   5.529   2.074  10.506 -0.9557 -0.0378  3.4116
   62SAPC   H3S 4891   5.406   2.180  10.556 -0.8461 -0.6661  0.0703
   62SAPC   C24 4892   5.474   2.230  10.354 -0.6433 -0.3770  0.0172
   62SAPC   H4R 4893   5.523   2.317  10.402 -0.1027 -0.2372 -0.7599
   62SAPC   H4S 4894   5.386   2.257  10.293 -1.6652 -2.5989  0.3890
   62SAPC   C25 4895   5.582   2.179  10.270  0.4684  0.6122  0.2888
   62SAPC   H5R 4896   5.680   2.173  10.321 -0.2937  1.5531  1.9455
   62SAPC   C26 4897   5.572   2.140  10.142  0.1258  0.4679  1.0692
   62SAPC   H6R 4898   5.653   2.095  10.083 -1.1692 -0.3384 -0.1668
   62SAPC   C27 4899   5.450   2.143  10.059  0.0114  0.2643 -0.3733
   62SAPC   H7R 4900   5.406   2.245  10.049 -2.6934 -0.9140 -1.3780
   62SAPC   H7S 4901   5.367   2.084  10.104 -1.3686  1.7246 -0.9146
   62SAPC   C28 4902   5.453   2.101   9.918 -0.7131 -0.7737 -0.7375
   62SAPC   H8R 4903   5.431   1.993   9.908  0.6359 -1.1121 -0.2129
   62SAPC   C29 4904   5.507   2.161   9.817 -0.0056  0.7209  0.3034
   62SAPC   H9R 4905   5.507   2.105   9.722  0.6586  1.0088  0.1273
   62SAPC  C210 4906   5.591   2.286   9.811 -0.6031 -0.2873  0.0986
   62SAPC  H10R 4907   5.576   2.341   9.906  1.2439 -0.4065  0.4952
   62SAPC  H10S 4908   5.561   2.362   9.736 -0.2849  0.4857  0.7383
   62SAPC  C211 4909   5.739   2.258   9.797  0.4637 -0.4708 -0.6428
   62SAPC  H11R 4910   5.792   2.236   9.890  0.8531  1.1620 -0.4565
   62SAPC  C212 4911   5.815   2.283   9.692 -0.0749 -1.3001 -0.3058
   62SAPC  H12R 4912   5.921   2.255   9.699  0.2347 -0.1490 -0.1575
   62SAPC  C213 4913   5.772   2.321   9.557 -0.1068 -0.3360  0.0574
   62SAPC  H13R 4914   5.846   2.381   9.500 -2.9322  1.6297 -1.8518
   62SAPC  H13S 4915   5.690   2.396   9.557  1.4525  1.4660  1.3527
   62SAPC  C214 4916   5.729   2.207   9.467 -0.8896 -1.0735 -0.3035
   62SAPC  H14R 4917   5.771   2.111   9.499  0.4215 -0.4952 -0.1911
   62SAPC  C215 4918   5.668   2.226   9.347  0.4493 -0.3682 -0.4965
   62SAPC  H15R 4919   5.649   2.138   9.283  1.8464 -1.2202  0.2163
   62SAPC  C216 4920   5.609   2.347   9.283  0.7738 -0.5277 -0.1523
   62SAPC  H16R 4921   5.587   2.413   9.370 -2.8058 -0.6796 -0.7990
   62SAPC  H16S 4922   5.510   2.331   9.237 -0.5004  1.1028  1.8206
   62SAPC  C217 4923   5.709   2.421   9.193 -0.2645  0.8981  0.7283
   62SAPC  H17R 4924   5.720   2.358   9.103  1.8630  1.8155  0.2934
   62SAPC  H17S 4925   5.799   2.442   9.255  0.6595 -2.0742  0.5509
   62SAPC  C218 4926   5.662   2.556   9.145  0.0630  0.0686  0.3123
   62SAPC  H18R 4927   5.555   2.556   9.113  0.6071  0.7850 -1.6792
   62SAPC  H18S 4928   5.711   2.598   9.054 -1.7613  2.0776  0.1654
   62SAPC  C219 4929   5.664   2.665   9.255  0.0563 -0.3206  0.0956
   62SAPC  H19R 4930   5.771   2.689   9.272  0.9464 -1.6887 -2.9190
   62SAPC  H19S 4931   5.610   2.632   9.347  0.5120 -0.1391  0.4295
   62SAPC  C220 4932   5.615   2.799   9.207 -0.1675 -0.4381 -0.2791
   62SAPC  H20R 4933   5.671   2.842   9.121  0.7175 -0.7509  0.1261
   62SAPC  H20S 4934   5.634   2.869   9.291  1.7017 -1.8893  0.5742
   62SAPC  H20T 4935   5.506   2.799   9.188 -0.2019  0.1402 -0.0958
   62SAPC   C33 4936   5.029   2.275   9.918  0.0759 -0.1632  0.0621
   62SAPC   H3X 4937   5.086   2.225   9.837  0.9894  1.3891 -0.2940
   62SAPC   H3Y 4938   5.016   2.382   9.890 -3.5311 -0.3122  0.6907
   62SAPC   C34 4939   4.890   2.206   9.913 -0.1800 -0.2231 -0.0340
   62SAPC   H4X 4940   4.830   2.250   9.995 -1.7098 -0.9428 -0.7386
   62SAPC   H4Y 4941   4.902   2.096   9.923 -1.4902 -0.3189  0.6030
   62SAPC   C35 4942   4.818   2.232   9.782  0.1464 -0.5019  0.0436
   62SAPC   H5X 4943   4.757   2.141   9.760 -0.9680  0.2862 -0.2140
   62SAPC   H5Y 4944   4.892   2.235   9.699 -0.4338 -1.0098 -0.5072
   62SAPC   C36 4945   4.709   2.344   9.780  0.9825 -0.3743  0.3232
   62SAPC   H6X 4946   4.759   2.443   9.774 -2.4723  1.4648 -1.6994
   62SAPC   H6Y 4947   4.641   2.351   9.867 -1.3582  2.4043 -1.5632
   62SAPC   C37 4948   4.620   2.339   9.653 -0.9020 -0.1668  0.4189
   62SAPC   H7X 4949   4.561   2.245   9.659 -3.1732  1.2235  1.0017
   62SAPC   H7Y 4950   4.694   2.338   9.570 -0.6161  2.4639  0.5641
   62SAPC   C38 4951   4.528   2.462   9.647  0.0087  0.0179 -0.7723
   62SAPC   H8X 4952   4.586   2.555   9.662  0.1479 -0.3553  1.3968
   62SAPC   H8Y 4953   4.464   2.452   9.738 -0.5416  4.2540 -0.4964
   62SAPC   C39 4954   4.450   2.463   9.518  0.5610 -0.5777  0.0439
   62SAPC   H9X 4955   4.381   2.376   9.521 -1.1993  0.7167 -1.0191
   62SAPC   H9Y 4956   4.519   2.443   9.433  2.1873  1.4958  0.7884
   62SAPC  C310 4957   4.378   2.594   9.487  0.4497  0.2765  0.6269
   62SAPC  H10X 4958   4.445   2.680   9.509  0.7284  0.2978 -0.2505
   62SAPC  H10Y 4959   4.294   2.615   9.557 -0.6787  0.4284 -0.7377
   62SAPC  C311 4960   4.328   2.613   9.344  0.1947  0.1760  0.8006
   62SAPC  H11X 4961   4.413   2.585   9.278 -1.7210 -0.8783 -1.3950
   62SAPC  H11Y 4962   4.307   2.719   9.316 -0.1164 -0.4215 -1.4899
   62SAPC  C312 4963   4.207   2.522   9.312  0.1445  0.1567  0.5066
   62SAPC  H12X 4964   4.142   2.503   9.400  1.3896  3.4614  2.3168
   62SAPC  H12Y 4965   4.261   2.428   9.287  1.2867  0.8068  0.4226
   62SAPC  C313 4966   4.125   2.568   9.197  0.2884 -0.2032  0.0741
   62SAPC  H13X 4967   4.176   2.615   9.110 -0.4740 -0.2005 -0.3826
   62SAPC  H13Y 4968   4.042   2.633   9.231  0.5560  0.2545 -0.1347
   62SAPC  C314 4969   4.062   2.442   9.139  0.4932  0.1591 -0.0334
   62SAPC  H14X 4970   3.978   2.482   9.078  0.2778 -0.1904  0.0319
   62SAPC  H14Y 4971   4.018   2.370   9.211 -0.9751 -0.0597 -1.0938
   62SAPC  C315 4972   4.161   2.357   9.055 -0.6733  0.1396 -0.1669
   62SAPC  H15X 4973   4.263   2.349   9.099 -0.7411 -0.3397 -0.0918
   62SAPC  H15Y 4974   4.177   2.414   8.961  0.2721  1.6355  0.8527
   62SAPC  C316 4975   4.116   2.215   9.024 -0.2444 -0.4805  0.3346
   62SAPC  H16X 4976   4.064   2.221   8.926  0.2820  0.9559  0.1293
   62SAPC  H16Y 4977   4.050   2.178   9.106  0.9216 -2.4731  0.4245
   62SAPC  C317 4978   4.232   2.113   9.015  0.7851  0.0686 -0.4417
   62SAPC  H17X 4979   4.290   2.122   9.110 -0.4422 -2.5868  0.6767
   62SAPC  H17Y 4980   4.303   2.148   8.937 -0.0279  2.3497 -0.2170
   62SAPC  C318 4981   4.189   1.966   8.991  0.3048 -0.1032 -1.1980
   62SAPC  H18X 4982   4.287   1.916   8.975  1.9662  2.5903 -0.0499
   62SAPC  H18Y 4983   4.119   1.961   8.904 -2.2569  2.6333  0.5199
   62SAPC  H18Z 4984   4.120   1.931   9.071 -1.0207  0.7923 -1.8970
   63SAPC     N 4985   2.957   2.544   6.341  0.5865  0.0820 -0.6073
   63SAPC   C12 4986   2.897   2.592   6.472  0.0129 -0.0653 -0.7459
   63SAPC  H12A 4987   2.790   2.582   6.470 -0.1272  1.0525  0.5154
   63SAPC  H12B 4988   2.924   2.694   6.495  2.9259 -1.1358  1.1905
   63SAPC   C13 4989   2.902   2.629   6.230 -0.4820  0.3827  0.1582
   63SAPC  H13A 4990   2.919   2.577   6.137  2.8056  1.1325  0.2282
   63SAPC  H13B 4991   2.798   2.656   6.242 -0.5139 -0.0430  0.8458
   63SAPC  H13C 4992   2.949   2.726   6.226 -1.7156  1.0112  0.4668
   63SAPC   C14 4993   3.098   2.566   6.336 -0.8011  1.0464  0.2046
   63SAPC  H14A 4994   3.129   2.669   6.338  1.4388  0.4947  3.8610
   63SAPC  H14B 4995   3.145   2.513   6.418  0.2277  0.5969 -0.6511
   63SAPC  H14C 4996   3.134   2.528   6.241 -0.6981 -0.6795  0.9069
   63SAPC   C15 4997   2.923   2.397   6.314 -0.7285  0.1719  0.4465
   63SAPC  H15A 4998   2.822   2.382   6.281 -0.5828 -1.6860  0.7203
   63SAPC  H15B 4999   2.996   2.349   6.250 -1.0415  0.8562 -0.4441
   63SAPC  H15C 5000   2.947   2.348   6.408  2.2204  0.0033 -0.2724
   63SAPC   C11 5001   2.941   2.510   6.606 -0.0351 -0.3634 -0.2286
   63SAPC  H11A 5002   2.924   2.402   6.586 -0.3085  0.1330 -3.1125
   63SAPC  H11B 5003   2.875   2.540   6.690  0.5946  1.5808 -0.3760
   63SAPC     P 5004   3.125   2.655   6.708  0.3737  0.0000 -0.1120
   63SAPC   O13 5005   3.271   2.648   6.719 -0.2428  0.4651  0.0979
   63SAPC   O14 5006   3.057   2.776   6.652  0.4009  0.1228  0.0393
   63SAPC   O12 5007   3.074   2.528   6.623 -0.1818 -0.2174 -0.1096
   63SAPC   O11 5008   3.064   2.626   6.855 -0.2040 -0.6523 -0.7603
   63SAPC    C1 5009   3.113   2.504   6.919  0.0327  0.3521  0.0298
   63SAPC    HA 5010   3.078   2.415   6.862 -0.4936  1.9746 -2.3424
   63SAPC    HB 5011   3.222   2.517   6.933 -0.0644  1.1570  0.0603
   63SAPC    C2 5012   3.061   2.497   7.062 -0.1065 -0.2558  0.2454
   63SAPC    HS 5013   3.086   2.394   7.096 -1.8269 -0.6932  0.2597
   63SAPC   O21 5014   2.919   2.519   7.079 -0.5569 -0.2188 -0.4527
   63SAPC   C21 5015   2.839   2.445   7.020  0.0163  0.5646 -0.0957
   63SAPC   O22 5016   2.866   2.347   6.947 -0.2731  0.3803 -0.0633
   63SAPC   C22 5017   2.696   2.479   7.058 -0.1203 -0.4702  0.1617
   63SAPC   H2R 5018   2.684   2.565   7.127  1.4822  0.0434 -0.1569
   63SAPC   H2S 5019   2.639   2.514   6.970 -1.2732  1.0796  1.4575
   63SAPC    C3 5020   3.127   2.601   7.153 -0.2820 -0.3970 -0.3832
   63SAPC    HX 5021   3.146   2.698   7.102 -0.5862  0.0399  0.3359
   63SAPC    HY 5022   3.229   2.558   7.167 -0.0811  0.2553  0.2268
   63SAPC   O31 5023   3.062   2.617   7.285  0.4419  0.5738  0.5158
   63SAPC   C31 5024   2.992   2.720   7.299 -0.0537 -0.4219 -0.4974
   63SAPC   O32 5025   2.968   2.806   7.218 -0.1255 -0.4878  0.0133
   63SAPC   C32 5026   2.922   2.722   7.440  0.3245 -0.2184  0.2913
   63SAPC   H2X 5027   2.895   2.827   7.463 -2.0231 -0.9364  1.0436
   63SAPC   H2Y 5028   3.000   2.706   7.518 -0.1152 -0.2375  0.7257
   63SAPC   C23 5029   2.630   2.358   7.126 -0.5761 -0.9173 -0.4234
   63SAPC   H3R 5030   2.675   2.324   7.221  1.5758  2.5478 -0.0536
   63SAPC   H3S 5031   2.635   2.281   7.046  2.0883 -1.8094  0.5203
   63SAPC   C24 5032   2.484   2.395   7.153  0.6376 -0.2780  0.3534
   63SAPC   H4R 5033   2.449   2.439   7.058  0.5803 -1.7008 -0.3177
   63SAPC   H4S 5034   2.487   2.474   7.231  1.1099 -0.8200  0.8989
   63SAPC   C25 5035   2.413   2.268   7.199 -0.2499 -0.1264  0.2059
   63SAPC   H5R 5036   2.410   2.188   7.125 -1.7945  0.4160 -0.3577
   63SAPC   C26 5037   2.343   2.246   7.312 -0.4579  0.3205  0.0088
   63SAPC   H6R 5038   2.294   2.147   7.319  1.7932 -0.9605 -1.2806
   63SAPC   C27 5039   2.323   2.335   7.428 -0.4283 -0.3441 -0.7791
   63SAPC   H7R 5040   2.241   2.284   7.482  0.6652 -1.3284  0.0015
   63SAPC   H7S 5041   2.275   2.427   7.389  1.8399  1.1409 -0.2923
   63SAPC   C28 5042   2.437   2.368   7.523 -0.4286  0.2897  0.5007
   63SAPC   H8R 5043   2.525   2.391   7.462 -2.4380 -0.3397 -2.8580
   63SAPC   C29 5044   2.442   2.349   7.658  0.4688 -0.2931 -0.0730
   63SAPC   H9R 5045   2.536   2.373   7.710 -0.5161  0.4597  1.4307
   63SAPC  C210 5046   2.333   2.292   7.751 -0.0108 -0.2093  0.1656
   63SAPC  H10R 5047   2.238   2.267   7.699  0.0018 -1.9338  0.8813
   63SAPC  H10S 5048   2.313   2.380   7.815  2.0023  1.0282 -0.7989
   63SAPC  C211 5049   2.377   2.172   7.837  0.6063  0.6331  0.3781
   63SAPC  H11R 5050   2.386   2.072   7.792 -2.1947  0.1032  0.8451
   63SAPC  C212 5051   2.438   2.188   7.958  0.1345  1.0566  0.7781
   63SAPC  H12R 5052   2.471   2.097   8.009 -1.6196 -0.3343 -0.4228
   63SAPC  C213 5053   2.454   2.316   8.032 -0.0983  0.6140  0.0005
   63SAPC  H13R 5054   2.353   2.353   8.058 -1.0495 -1.2596 -0.8615
   63SAPC  H13S 5055   2.503   2.402   7.981 -1.4763  1.7860  0.5752
   63SAPC  C214 5056   2.531   2.292   8.159  0.2880 -0.4651 -0.1940
   63SAPC  H14R 5057   2.640   2.296   8.145  0.0802 -0.6771 -2.0855
   63SAPC  C215 5058   2.480   2.259   8.273 -0.0796 -0.0624  0.2104
   63SAPC  H15R 5059   2.557   2.224   8.343 -1.6691  1.0556  2.6610
   63SAPC  C216 5060   2.337   2.240   8.307  0.1667 -0.1845  0.1901
   63SAPC  H16R 5061   2.301   2.141   8.272  0.9089 -0.3229 -0.2011
   63SAPC  H16S 5062   2.284   2.317   8.248  0.7914 -0.6610 -1.0153
   63SAPC  C217 5063   2.308   2.260   8.458 -0.1301 -0.1567 -0.4467
   63SAPC  H17R 5064   2.226   2.330   8.481 -1.0359 -1.5670  0.8676
   63SAPC  H17S 5065   2.387   2.304   8.523 -1.0297 -0.5794  1.0075
   63SAPC  C218 5066   2.266   2.124   8.530  0.6867  0.4735 -0.2183
   63SAPC  H18R 5067   2.346   2.053   8.500  0.6968 -0.2429  1.3912
   63SAPC  H18S 5068   2.170   2.082   8.494  0.3944 -1.7598  2.7983
   63SAPC  C219 5069   2.275   2.141   8.682 -0.0192  0.0605  0.0689
   63SAPC  H19R 5070   2.364   2.202   8.711 -0.3142  1.6322 -2.1067
   63SAPC  H19S 5071   2.287   2.046   8.738  1.1182  0.4099  0.4597
   63SAPC  C220 5072   2.161   2.222   8.752 -0.5738  0.5808 -0.2254
   63SAPC  H20R 5073   2.179   2.330   8.733 -0.8612  0.5064 -0.9775
   63SAPC  H20S 5074   2.164   2.204   8.861 -2.7594 -0.6539 -0.3028
   63SAPC  H20T 5075   2.069   2.176   8.710  0.8137 -1.7660 -0.8900
   63SAPC   C33 5076   2.800   2.635   7.448  0.4428 -0.0625 -0.1560
   63SAPC   H3X 5077   2.819   2.527   7.430  0.7881 -0.0969  0.3950
   63SAPC   H3Y 5078   2.732   2.664   7.366 -0.9940 -0.0646  0.9906
   63SAPC   C34 5079   2.719   2.654   7.578  0.4212  0.6506 -0.6790
   63SAPC   H4X 5080   2.614   2.622   7.561  0.3448  1.3482 -1.6131
   63SAPC   H4Y 5081   2.704   2.763   7.591  0.4984  0.7667 -1.5033
   63SAPC   C35 5082   2.785   2.590   7.709 -0.3270 -0.2897 -0.0507
   63SAPC   H5X 5083   2.891   2.622   7.724 -0.2519 -0.0788 -1.0246
   63SAPC   H5Y 5084   2.778   2.479   7.706  0.3801 -0.3212 -1.4918
   63SAPC   C36 5085   2.715   2.631   7.843  0.1323 -0.4604  0.1951
   63SAPC   H6X 5086   2.604   2.623   7.839 -0.0086  1.4014 -0.8799
   63SAPC   H6Y 5087   2.734   2.740   7.846 -1.1745 -0.2323  2.6842
   63SAPC   C37 5088   2.767   2.549   7.959  0.1519 -0.1556  0.4588
   63SAPC   H7X 5089   2.875   2.573   7.966  0.2196 -0.2768 -0.1064
   63SAPC   H7Y 5090   2.753   2.441   7.934 -1.5216  0.0259  0.5073
   63SAPC   C38 5091   2.696   2.592   8.092  0.1786 -0.3883 -0.3962
   63SAPC   H8X 5092   2.590   2.558   8.099  0.3786 -1.1268 -0.8102
   63SAPC   H8Y 5093   2.710   2.701   8.100  3.6387 -0.8396  2.1788
   63SAPC   C39 5094   2.765   2.536   8.220 -0.6383  0.0006  0.8046
   63SAPC   H9X 5095   2.862   2.587   8.233 -1.1949  2.8017 -3.7768
   63SAPC   H9Y 5096   2.778   2.426   8.205  1.4395  0.6418 -3.5983
   63SAPC  C310 5097   2.678   2.572   8.343 -0.1960 -0.2860 -0.2856
   63SAPC  H10X 5098   2.577   2.528   8.329 -0.6491  0.2774  1.0241
   63SAPC  H10Y 5099   2.669   2.683   8.339 -0.2622 -0.3265 -1.4708
   63SAPC  C311 5100   2.747   2.529   8.475 -0.1104 -0.2522  0.0850
   63SAPC  H11X 5101   2.854   2.560   8.477  0.3935 -1.8946  0.3573
   63SAPC  H11Y 5102   2.742   2.418   8.469 -0.1158 -0.2832  0.5938
   63SAPC  C312 5103   2.679   2.592   8.599  0.1765 -0.3927 -0.3042
   63SAPC  H12X 5104   2.571   2.566   8.612 -0.6565  2.6421 -0.5468
   63SAPC  H12Y 5105   2.679   2.702   8.587  1.8734 -0.3575 -0.1489
   63SAPC  C313 5106   2.757   2.562   8.733 -0.7453 -0.3973  0.1684
   63SAPC  H13X 5107   2.865   2.587   8.718 -1.1629  1.8739  0.4649
   63SAPC  H13Y 5108   2.760   2.456   8.764  0.4529  0.2810  2.7010
   63SAPC  C314 5109   2.724   2.661   8.848 -0.3934 -0.2992  0.6844
   63SAPC  H14X 5110   2.737   2.764   8.807  0.1327  0.2518  2.1369
   63SAPC  H14Y 5111   2.802   2.652   8.928 -0.4887 -0.3471  0.7718
   63SAPC  C315 5112   2.585   2.654   8.906  0.0998 -0.4488  0.2640
   63SAPC  H15X 5113   2.515   2.673   8.821  1.1100 -3.3937 -1.3587
   63SAPC  H15Y 5114   2.582   2.734   8.983  2.5284  0.0624 -0.0690
   63SAPC  C316 5115   2.559   2.516   8.967 -0.2633  0.1420  0.7653
   63SAPC  H16X 5116   2.626   2.485   9.050 -0.3781  0.4988  0.9973
   63SAPC  H16Y 5117   2.585   2.437   8.894 -1.1731 -0.2895  0.8950
   63SAPC  C317 5118   2.411   2.488   8.998  0.1465  0.6016  0.6106
   63SAPC  H17X 5119   2.346   2.525   8.916 -1.0124  0.8538  1.6171
   63SAPC  H17Y 5120   2.385   2.539   9.093  1.9052  1.5092  0.6572
   63SAPC  C318 5121   2.378   2.341   9.020  0.2839  0.5578  0.2414
   63SAPC  H18X 5122   2.381   2.283   8.925  0.5905  0.0402  0.5587
   63SAPC  H18Y 5123   2.272   2.328   9.051 -0.0379  0.8538 -0.7169
   63SAPC  H18Z 5124   2.452   2.289   9.084  0.8320 -0.3050 -1.0503
   64SAPC     N 5125   3.926   4.229   5.978  0.6921 -0.3780 -0.2606
   64SAPC   C12 5126   4.041   4.134   6.003 -0.9239  0.0432 -0.7834
   64SAPC  H12A 5127   4.132   4.184   5.975 -0.4180 -1.2902 -1.6086
   64SAPC  H12B 5128   4.027   4.048   5.940 -3.3962  0.1261 -0.4632
   64SAPC   C13 5129   3.914   4.346   6.071 -0.2789 -0.5084 -0.3428
   64SAPC  H13A 5130   4.007   4.401   6.076  0.6388 -2.0996  1.7864
   64SAPC  H13B 5131   3.828   4.404   6.043 -0.6738 -1.1068 -0.3818
   64SAPC  H13C 5132   3.905   4.321   6.176  0.0387  1.3566  0.1722
   64SAPC   C14 5133   3.936   4.298   5.847 -0.4270 -0.2263  0.0435
   64SAPC  H14A 5134   3.855   4.369   5.833 -0.9264 -0.7352  0.2968
   64SAPC  H14B 5135   4.027   4.356   5.847 -1.6521  1.8339 -0.6899
   64SAPC  H14C 5136   3.947   4.223   5.770 -0.2339  0.5248 -0.6753
   64SAPC   C15 5137   3.802   4.149   5.979  0.7242  0.5206 -0.3765
   64SAPC  H15A 5138   3.715   4.210   6.000  0.4985 -0.0931  0.5760
   64SAPC  H15B 5139   3.792   4.095   5.886 -2.0071 -2.4715  1.4500
   64SAPC  H15C 5140   3.790   4.086   6.066 -1.1151 -0.3426 -1.1902
   64SAPC   C11 5141   4.051   4.085   6.150  0.9121  0.9228 -0.1092
   64SAPC  H11A 5142   4.067   4.176   6.212  0.8483 -0.4367  2.0122
   64SAPC  H11B 5143   4.149   4.038   6.171 -1.5174 -4.3012  1.3571
   64SAPC     P 5144   3.958   3.847   6.170  0.3011 -0.0284 -0.0747
   64SAPC   O13 5145   3.856   3.774   6.248  0.3826 -0.4073  0.3131
   64SAPC   O14 5146   3.968   3.817   6.024 -0.4784 -0.5602 -0.1618
   64SAPC   O12 5147   3.944   4.007   6.202  0.3308  0.5933 -0.0855
   64SAPC   O11 5148   4.099   3.813   6.241  0.4133  0.1867  0.0200
   64SAPC    C1 5149   4.121   3.835   6.379 -0.1750 -0.4159 -0.0086
   64SAPC    HA 5150   4.223   3.876   6.392 -0.5259 -0.2840  3.1936
   64SAPC    HB 5151   4.045   3.897   6.432 -0.4297 -1.3798  0.7903
   64SAPC    C2 5152   4.109   3.698   6.454 -0.1901 -0.6057  0.1941
   64SAPC    HS 5153   4.018   3.660   6.403  0.4360  0.2892 -1.7006
   64SAPC   O21 5154   4.105   3.734   6.591  0.0087  0.5738 -0.8684
   64SAPC   C21 5155   4.052   3.636   6.668 -1.0538 -0.4706 -0.5493
   64SAPC   O22 5156   4.011   3.528   6.622 -0.4562 -0.1867 -0.7134
   64SAPC   C22 5157   4.063   3.670   6.816  0.0820  0.0343  0.0990
   64SAPC   H2R 5158   4.170   3.698   6.834  0.2326 -0.5869  0.1929
   64SAPC   H2S 5159   3.989   3.752   6.828  0.3066  0.3120 -0.3638
   64SAPC    C3 5160   4.236   3.610   6.425 -0.1437  0.6713  0.7928
   64SAPC    HX 5161   4.238   3.586   6.317  1.7482 -1.3854  1.2085
   64SAPC    HY 5162   4.230   3.518   6.487  0.9826  2.0833  3.1291
   64SAPC   O31 5163   4.362   3.672   6.458 -0.3639  0.7663  0.0019
   64SAPC   C31 5164   4.421   3.632   6.572 -0.2191 -0.4903  0.3280
   64SAPC   O32 5165   4.369   3.562   6.662  0.1709  0.3114  0.2538
   64SAPC   C32 5166   4.557   3.698   6.588  0.4318  0.1852 -0.2754
   64SAPC   H2X 5167   4.580   3.768   6.505  0.2451  0.8156  0.2038
   64SAPC   H2Y 5168   4.637   3.621   6.578  1.7013  1.5321 -1.0163
   64SAPC   C23 5169   4.032   3.545   6.899 -0.3415  0.2628 -0.6755
   64SAPC   H3R 5170   4.090   3.461   6.856 -0.4039 -0.3536  0.3954
   64SAPC   H3S 5171   3.928   3.509   6.882 -0.5745  0.9796 -0.8258
   64SAPC   C24 5172   4.074   3.548   7.050  0.2096  1.0720 -0.3250
   64SAPC   H4R 5173   4.053   3.447   7.090  0.0985  0.0290 -2.8168
   64SAPC   H4S 5174   4.008   3.617   7.107 -0.0436 -1.4068  2.6229
   64SAPC   C25 5175   4.223   3.594   7.077  0.7332  0.3927 -0.2053
   64SAPC   H5R 5176   4.286   3.594   6.987  0.2938 -3.3136 -0.6615
   64SAPC   C26 5177   4.276   3.626   7.196 -0.2193  0.0863 -0.0759
   64SAPC   H6R 5178   4.383   3.652   7.197 -0.2546  0.2396  0.8581
   64SAPC   C27 5179   4.213   3.630   7.334  0.0609 -0.2532 -0.4011
   64SAPC   H7R 5180   4.172   3.733   7.344  1.8193  0.3383  1.3135
   64SAPC   H7S 5181   4.298   3.618   7.404 -0.2204  2.7001  0.5765
   64SAPC   C28 5182   4.109   3.532   7.378 -0.0648  0.2279  0.5077
   64SAPC   H8R 5183   4.070   3.457   7.306 -0.2183 -1.4454  2.2540
   64SAPC   C29 5184   4.077   3.520   7.506  0.4115 -1.1793 -0.7926
   64SAPC   H9R 5185   3.999   3.444   7.526 -1.2682  0.9119  1.2796
   64SAPC  C210 5186   4.137   3.605   7.626 -0.7359  0.5866  0.1606
   64SAPC  H10R 5187   4.172   3.703   7.587 -3.2118  1.8009  0.8177
   64SAPC  H10S 5188   4.231   3.556   7.660 -1.4603 -1.3497 -0.4696
   64SAPC  C211 5189   4.039   3.626   7.738 -0.1864  0.9443  0.3492
   64SAPC  H11R 5190   3.970   3.709   7.717 -0.8371  0.2214 -0.4226
   64SAPC  C212 5191   4.020   3.558   7.853 -0.3193  0.1857  0.1759
   64SAPC  H12R 5192   3.944   3.589   7.926  2.0981  2.6841  1.8455
   64SAPC  C213 5193   4.097   3.432   7.890  0.5493  1.0781  0.7790
   64SAPC  H13R 5194   4.137   3.423   7.993 -1.3373  0.0323  1.4756
   64SAPC  H13S 5195   4.180   3.409   7.820  0.1888  3.3903 -0.4970
   64SAPC  C214 5196   3.993   3.324   7.868 -0.0365 -0.7533 -0.1000
   64SAPC  H14R 5197   3.956   3.314   7.765  0.8731 -1.2647 -0.3880
   64SAPC  C215 5198   3.950   3.222   7.948  0.2988  0.1427 -0.3515
   64SAPC  H15R 5199   3.867   3.165   7.903 -0.4437  0.3936  0.6700
   64SAPC  C216 5200   4.004   3.186   8.087  0.5150 -0.5443  0.2795
   64SAPC  H16R 5201   4.091   3.247   8.118 -0.6213  0.6259  1.2822
   64SAPC  H16S 5202   4.044   3.083   8.095  2.6508  0.0876 -1.5408
   64SAPC  C217 5203   3.886   3.209   8.189 -0.0554 -0.2842 -0.1832
   64SAPC  H17R 5204   3.799   3.139   8.188  0.2062 -0.6120 -1.4769
   64SAPC  H17S 5205   3.859   3.314   8.168  1.8869 -0.0249 -1.7404
   64SAPC  C218 5206   3.932   3.185   8.338 -0.0478 -0.3678 -0.1728
   64SAPC  H18R 5207   4.034   3.225   8.352  0.0005 -0.9751  1.5362
   64SAPC  H18S 5208   3.931   3.076   8.362 -0.2311 -0.3524 -0.1052
   64SAPC  C219 5209   3.829   3.250   8.436  0.0684 -0.3168  0.2018
   64SAPC  H19R 5210   3.727   3.208   8.426  0.3502 -0.6420 -1.5991
   64SAPC  H19S 5211   3.819   3.356   8.405 -0.8738  0.1605  1.9863
   64SAPC  C220 5212   3.872   3.236   8.586  0.2700 -0.6331 -0.5662
   64SAPC  H20R 5213   3.792   3.292   8.639  0.2254  1.4580 -2.6998
   64SAPC  H20S 5214   3.972   3.282   8.601 -0.6563  1.8342 -1.5262
   64SAPC  H20T 5215   3.873   3.131   8.623 -3.1197  0.5777  3.8286
   64SAPC   C33 5216   4.584   3.770   6.720 -0.0944  0.3170  0.1683
   64SAPC   H3X 5217   4.683   3.821   6.713 -0.3178  1.0688  2.0315
   64SAPC   H3Y 5218   4.595   3.690   6.795  1.4149 -0.5366 -0.9050
   64SAPC   C34 5219   4.492   3.889   6.763  0.0214  0.3569 -0.2115
   64SAPC   H4X 5220   4.387   3.855   6.767 -0.5758  2.1567  0.0116
   64SAPC   H4Y 5221   4.505   3.973   6.692 -1.1483  1.3786  0.7354
   64SAPC   C35 5222   4.535   3.947   6.903 -0.1293  0.5629  1.1955
   64SAPC   H5X 5223   4.487   4.046   6.910 -0.6166  0.3695  0.6510
   64SAPC   H5Y 5224   4.645   3.963   6.894  0.2624 -2.2186 -0.1797
   64SAPC   C36 5225   4.498   3.865   7.024  0.3575 -0.4735 -0.1087
   64SAPC   H6X 5226   4.555   3.769   7.026 -0.9728 -1.2773  0.4500
   64SAPC   H6Y 5227   4.388   3.851   7.028  0.0229  1.3548 -1.4597
   64SAPC   C37 5228   4.543   3.944   7.158 -0.2186  0.1107  0.2120
   64SAPC   H7X 5229   4.508   4.049   7.157 -0.7307 -0.0554  0.2924
   64SAPC   H7Y 5230   4.653   3.954   7.170 -0.4780  2.5360  1.1684
   64SAPC   C38 5231   4.484   3.891   7.292  0.3576 -0.9721 -0.0661
   64SAPC   H8X 5232   4.524   3.788   7.303  1.3899 -0.6376 -0.5060
   64SAPC   H8Y 5233   4.374   3.900   7.287  0.4569  1.2378  0.5657
   64SAPC   C39 5234   4.534   3.957   7.419 -0.0888  0.3684  0.8675
   64SAPC   H9X 5235   4.507   4.064   7.416  0.0228  0.4171  1.5741
   64SAPC   H9Y 5236   4.645   3.947   7.420  0.0180  0.8927 -0.9755
   64SAPC  C310 5237   4.474   3.893   7.542  0.1536 -0.0665  0.0110
   64SAPC  H10X 5238   4.507   3.787   7.546  0.7596  0.0811 -0.8891
   64SAPC  H10Y 5239   4.368   3.872   7.518  0.5175 -3.0666  0.6377
   64SAPC  C311 5240   4.491   3.969   7.673  0.3952  0.3717  0.9493
   64SAPC  H11X 5241   4.446   4.070   7.661  2.4036  1.0757 -1.5729
   64SAPC  H11Y 5242   4.598   3.989   7.697  0.5868  0.4381  0.0804
   64SAPC  C312 5243   4.440   3.891   7.797 -0.0235 -0.0015  0.9683
   64SAPC  H12X 5244   4.505   3.802   7.812 -0.8367 -1.2028 -1.9510
   64SAPC  H12Y 5245   4.333   3.862   7.792  0.2752 -1.2949  1.5770
   64SAPC  C313 5246   4.460   3.964   7.929  0.1783 -0.3156 -0.4056
   64SAPC  H13X 5247   4.369   4.002   7.979  0.2780 -0.9781  0.3011
   64SAPC  H13Y 5248   4.528   4.049   7.905  1.5712 -0.9202  1.2201
   64SAPC  C314 5249   4.528   3.871   8.037 -0.1924 -0.2305  0.5303
   64SAPC  H14X 5250   4.578   3.923   8.121  1.2354  1.0230 -1.0112
   64SAPC  H14Y 5251   4.608   3.818   7.980 -1.3048  1.6208 -3.1202
   64SAPC  C315 5252   4.421   3.782   8.093  0.3140  0.4345  0.5661
   64SAPC  H15X 5253   4.363   3.741   8.008  0.7874  1.4129 -0.2468
   64SAPC  H15Y 5254   4.342   3.834   8.151 -0.7753 -0.3291 -0.1942
   64SAPC  C316 5255   4.476   3.676   8.188 -0.0087 -0.3790 -0.2561
   64SAPC  H16X 5256   4.579   3.648   8.155  0.6949  0.6610  0.9578
   64SAPC  H16Y 5257   4.408   3.589   8.176 -0.9135  0.4759 -1.5613
   64SAPC  C317 5258   4.480   3.726   8.335  0.3828  0.3747  0.4102
   64SAPC  H17X 5259   4.375   3.738   8.367  0.9197 -0.3885  2.6091
   64SAPC  H17Y 5260   4.531   3.824   8.336  0.7120  0.2104  0.2529
   64SAPC  C318 5261   4.544   3.630   8.441  0.4825 -0.7739  0.9417
   64SAPC  H18X 5262   4.511   3.524   8.433 -1.0398 -0.3065  0.6387
   64SAPC  H18Y 5263   4.514   3.674   8.538 -0.7115  1.0008 -0.1707
   64SAPC  H18Z 5264   4.655   3.633   8.431  0.3142 -1.0525 -1.5383
   65SAPC     N 5265   4.693   5.785   6.401  0.0892  0.5223  0.1546
   65SAPC   C12 5266   4.541   5.787   6.406  0.2119 -0.1528  0.1744
   65SAPC  H12A 5267   4.513   5.838   6.315  0.9211  0.1462  0.1104
   65SAPC  H12B 5268   4.508   5.850   6.487 -0.0937 -1.6465  1.2553
   65SAPC   C13 5269   4.742   5.701   6.526  0.2945  0.0629  0.2948
   65SAPC  H13A 5270   4.695   5.605   6.513  0.5459  0.1139 -1.2504
   65SAPC  H13B 5271   4.847   5.677   6.523  0.3446  0.2604  0.4420
   65SAPC  H13C 5272   4.727   5.747   6.622 -0.9557 -0.8403  0.5463
   65SAPC   C14 5273   4.736   5.725   6.272 -0.0355  0.2725  0.2362
   65SAPC  H14A 5274   4.843   5.720   6.259 -0.1669  0.7930 -1.1473
   65SAPC  H14B 5275   4.694   5.626   6.260  1.4574 -0.3050 -0.3560
   65SAPC  H14C 5276   4.683   5.784   6.198 -0.0835 -0.1217 -0.0472
   65SAPC   C15 5277   4.751   5.921   6.405  1.0639 -0.0409 -0.2840
   65SAPC  H15A 5278   4.850   5.930   6.365  0.7712 -0.3791 -1.1146
   65SAPC  H15B 5279   4.684   5.983   6.347  1.0207 -0.5163 -0.7502
   65SAPC  H15C 5280   4.741   5.973   6.499  1.4293  0.1854 -0.3681
   65SAPC   C11 5281   4.454   5.659   6.425  0.4966 -0.1591  0.3927
   65SAPC  H11A 5282   4.346   5.684   6.435  0.5179  1.6412 -2.7293
   65SAPC  H11B 5283   4.486   5.618   6.524  1.7876  0.2059  0.1415
   65SAPC     P 5284   4.514   5.420   6.326 -0.4780 -0.3051 -0.4456
   65SAPC   O13 5285   4.406   5.340   6.380 -0.3516  0.5640  0.1100
   65SAPC   O14 5286   4.567   5.378   6.194 -0.3145 -0.2495  0.0663
   65SAPC   O12 5287   4.462   5.564   6.319  0.8737  0.5585 -0.1059
   65SAPC   O11 5288   4.627   5.434   6.430 -0.0475  0.7355 -0.0049
   65SAPC    C1 5289   4.703   5.327   6.489 -0.0581  0.9566 -0.3562
   65SAPC    HA 5290   4.716   5.243   6.417  2.4596  0.6252  0.3994
   65SAPC    HB 5291   4.810   5.353   6.503  0.2684  0.0662 -1.0944
   65SAPC    C2 5292   4.640   5.272   6.618  0.3562  0.3816  0.1502
   65SAPC    HS 5293   4.537   5.243   6.586  0.6580 -0.3752 -0.1537
   65SAPC   O21 5294   4.653   5.372   6.713 -0.2857 -0.0848  0.4522
   65SAPC   C21 5295   4.554   5.371   6.801  0.1356 -0.1664 -0.2103
   65SAPC   O22 5296   4.452   5.306   6.792  0.3166 -0.2075 -0.0095
   65SAPC   C22 5297   4.597   5.454   6.925 -0.0467 -0.4143 -0.4992
   65SAPC   H2R 5298   4.699   5.434   6.962  0.5811  0.7249 -1.5211
   65SAPC   H2S 5299   4.606   5.552   6.872 -1.0477 -0.7808 -1.3926
   65SAPC    C3 5300   4.726   5.148   6.660  0.1409  0.1662  0.2625
   65SAPC    HX 5301   4.832   5.175   6.675  0.2970 -1.3984  2.3491
   65SAPC    HY 5302   4.709   5.076   6.578 -0.7105  0.6844 -0.0338
   65SAPC   O31 5303   4.681   5.086   6.781  0.0384  0.5297 -0.5561
   65SAPC   C31 5304   4.573   5.004   6.775 -0.4733  0.6525  0.1280
   65SAPC   O32 5305   4.495   4.989   6.683 -0.1606  0.7691  0.0684
   65SAPC   C32 5306   4.565   4.925   6.903 -1.1632  0.5189  0.1725
   65SAPC   H2X 5307   4.665   4.888   6.934 -1.8679 -1.4555  0.1983
   65SAPC   H2Y 5308   4.505   4.834   6.881  1.6692 -1.1466 -1.2962
   65SAPC   C23 5309   4.496   5.458   7.035 -0.2477 -0.1415 -0.0857
   65SAPC   H3R 5310   4.514   5.373   7.104 -0.9702 -2.4335 -2.5567
   65SAPC   H3S 5311   4.394   5.453   6.991 -0.1084  2.5331 -0.8872
   65SAPC   C24 5312   4.510   5.593   7.101 -0.0447 -0.5022  0.0620
   65SAPC   H4R 5313   4.502   5.676   7.027  3.2521 -0.9067 -0.8914
   65SAPC   H4S 5314   4.608   5.605   7.151  0.5003 -0.8800 -0.9039
   65SAPC   C25 5315   4.403   5.595   7.210 -0.0358 -0.7084 -0.2462
   65SAPC   H5R 5316   4.301   5.605   7.169 -0.4280  1.5405  1.0667
   65SAPC   C26 5317   4.425   5.594   7.344  0.1144  0.0872 -0.2747
   65SAPC   H6R 5318   4.336   5.620   7.403  0.5017 -0.5370  0.6262
   65SAPC   C27 5319   4.550   5.591   7.431 -0.2702 -0.2931 -0.0911
   65SAPC   H7R 5320   4.637   5.548   7.376  0.3212  1.9368 -0.9948
   65SAPC   H7S 5321   4.524   5.530   7.520 -1.4216 -0.8055 -0.7537
   65SAPC   C28 5322   4.600   5.725   7.472  0.5033 -0.1006 -0.0751
   65SAPC   H8R 5323   4.605   5.803   7.395  0.2700  0.5367  0.5336
   65SAPC   C29 5324   4.643   5.780   7.592  0.2986 -0.0339  0.0726
   65SAPC   H9R 5325   4.684   5.882   7.592  1.6961 -0.5745 -0.2094
   65SAPC  C210 5326   4.637   5.717   7.728 -0.1135  0.0660 -0.1299
   65SAPC  H10R 5327   4.535   5.677   7.745 -0.3857  1.5674  2.2102
   65SAPC  H10S 5328   4.646   5.797   7.805 -0.4651  0.3544 -0.3877
   65SAPC  C211 5329   4.733   5.603   7.765  0.9850  0.0973 -0.0379
   65SAPC  H11R 5330   4.819   5.603   7.696  0.9779 -0.9496 -0.0703
   65SAPC  C212 5331   4.712   5.501   7.847 -0.0104  0.2866 -0.1791
   65SAPC  H12R 5332   4.790   5.425   7.860  0.2445  0.4141 -0.9213
   65SAPC  C213 5333   4.589   5.492   7.935 -0.3731 -0.7927  0.6320
   65SAPC  H13R 5334   4.568   5.595   7.972 -0.4537 -0.8984  0.8794
   65SAPC  H13S 5335   4.607   5.427   8.023 -0.1946  0.1401  1.2961
   65SAPC  C214 5336   4.473   5.444   7.857 -0.1022  0.2742  0.2315
   65SAPC  H14R 5337   4.481   5.446   7.747 -1.0073  1.2564  0.1747
   65SAPC  C215 5338   4.360   5.409   7.917  0.2717  0.2579  0.2985
   65SAPC  H15R 5339   4.277   5.382   7.848 -0.2041 -0.3981  1.1129
   65SAPC  C216 5340   4.333   5.400   8.065 -0.8455 -0.3644 -0.1891
   65SAPC  H16R 5341   4.290   5.496   8.101 -1.4111 -0.8929  0.5938
   65SAPC  H16S 5342   4.426   5.391   8.126 -0.9663  1.3101  0.2995
   65SAPC  C217 5343   4.246   5.287   8.113  0.1331 -0.1272  1.5609
   65SAPC  H17R 5344   4.306   5.194   8.117  1.9455  0.8383 -0.6886
   65SAPC  H17S 5345   4.164   5.260   8.044  0.5079  2.1723  0.0813
   65SAPC  C218 5346   4.192   5.321   8.251  0.4884 -0.0584 -0.1207
   65SAPC  H18R 5347   4.121   5.406   8.239  2.1454  1.4834  0.4109
   65SAPC  H18S 5348   4.273   5.347   8.323  0.5244 -0.8662  0.1401
   65SAPC  C219 5349   4.127   5.202   8.318 -0.7865 -0.0644  0.2673
   65SAPC  H19R 5350   4.200   5.119   8.325 -2.4585 -1.5869  0.2353
   65SAPC  H19S 5351   4.041   5.170   8.255 -0.0355 -0.0442 -0.7814
   65SAPC  C220 5352   4.070   5.221   8.461  0.2046 -0.4003  0.5515
   65SAPC  H20R 5353   4.067   5.126   8.519  1.3695 -0.2298  0.9292
   65SAPC  H20S 5354   3.968   5.263   8.451  0.9232  1.0157 -1.4198
   65SAPC  H20T 5355   4.141   5.279   8.525 -0.0183  0.2795  0.1860
   65SAPC   C33 5356   4.501   5.017   7.010 -0.2170  0.2629 -0.8645
   65SAPC   H3X 5357   4.391   5.018   6.994 -1.2208  0.0622  4.1639
   65SAPC   H3Y 5358   4.530   5.123   6.995 -2.8747  0.9242 -2.0272
   65SAPC   C34 5359   4.533   4.970   7.154  0.3900  0.1535 -0.2534
   65SAPC   H4X 5360   4.643   4.981   7.156  0.2844  1.1314  0.9364
   65SAPC   H4Y 5361   4.508   4.864   7.177 -2.0818  0.1065 -2.6223
   65SAPC   C35 5362   4.452   5.053   7.264 -0.6572 -0.3533  0.8081
   65SAPC   H5X 5363   4.347   5.035   7.232 -0.6976  1.4942 -0.2679
   65SAPC   H5Y 5364   4.482   5.160   7.258  0.5655 -0.7364 -0.4020
   65SAPC   C36 5365   4.475   4.986   7.400 -0.4467 -0.0825  0.2272
   65SAPC   H6X 5366   4.572   5.019   7.441 -0.1781 -2.3245  1.5723
   65SAPC   H6Y 5367   4.481   4.876   7.387  1.1048  0.0864 -0.6851
   65SAPC   C37 5368   4.374   4.999   7.517 -0.0094  0.4181  0.2828
   65SAPC   H7X 5369   4.278   4.946   7.496  0.4787  0.3636 -2.1020
   65SAPC   H7Y 5370   4.348   5.101   7.553 -1.8843 -0.9304  3.1657
   65SAPC   C38 5371   4.437   4.923   7.636  0.2196 -0.1949  0.6864
   65SAPC   H8X 5372   4.541   4.961   7.645 -0.3725  2.1271 -1.2393
   65SAPC   H8Y 5373   4.440   4.816   7.608 -0.5495 -0.4468  1.5304
   65SAPC   C39 5374   4.369   4.955   7.767 -0.4507  0.1651 -0.3858
   65SAPC   H9X 5375   4.258   4.952   7.760 -0.4245  0.6355 -1.1134
   65SAPC   H9Y 5376   4.395   5.062   7.779  1.9409 -0.3819 -0.1927
   65SAPC  C310 5377   4.417   4.861   7.872 -0.6175 -0.0267 -0.0183
   65SAPC  H10X 5378   4.527   4.875   7.884 -0.4838 -0.1953 -0.9602
   65SAPC  H10Y 5379   4.399   4.754   7.849  0.5309 -0.3788  0.6066
   65SAPC  C311 5380   4.341   4.888   7.997  0.5203  0.6796  0.0335
   65SAPC  H11X 5381   4.234   4.873   7.971  0.4626 -0.5334  0.8895
   65SAPC  H11Y 5382   4.359   4.990   8.036 -1.0186  0.5417  1.1999
   65SAPC  C312 5383   4.361   4.777   8.109 -0.4335 -0.5587  0.1421
   65SAPC  H12X 5384   4.469   4.765   8.132  0.4845  0.6572 -3.0041
   65SAPC  H12Y 5385   4.318   4.681   8.073  0.6297 -1.4372  1.1416
   65SAPC  C313 5386   4.284   4.823   8.235 -0.6059 -0.8402  0.1704
   65SAPC  H13X 5387   4.197   4.883   8.202  0.1678  0.6187  0.6919
   65SAPC  H13Y 5388   4.341   4.893   8.300 -0.0357 -0.5685 -0.5963
   65SAPC  C314 5389   4.224   4.711   8.319  0.2325  0.2736  0.2383
   65SAPC  H14X 5390   4.286   4.634   8.369  0.7178 -0.7816 -1.8675
   65SAPC  H14Y 5391   4.149   4.650   8.265 -0.1611  0.5633  0.4448
   65SAPC  C315 5392   4.135   4.777   8.426 -0.3847 -0.0606  0.4034
   65SAPC  H15X 5393   4.051   4.834   8.380  0.2939  1.3200  0.8268
   65SAPC  H15Y 5394   4.195   4.853   8.480 -0.7635  1.0844 -0.7321
   65SAPC  C316 5395   4.060   4.670   8.512 -0.4074  0.0874  0.4500
   65SAPC  H16X 5396   4.033   4.580   8.453  1.4366 -1.4654  1.8392
   65SAPC  H16Y 5397   3.977   4.731   8.555 -0.1478  0.7199  0.0694
   65SAPC  C317 5398   4.135   4.610   8.633  0.2933 -0.1196 -0.0772
   65SAPC  H17X 5399   4.243   4.593   8.614 -0.3567 -2.0082 -2.5221
   65SAPC  H17Y 5400   4.084   4.514   8.655 -0.0086 -0.6889 -2.9070
   65SAPC  C318 5401   4.126   4.701   8.761  0.4840 -0.0285 -0.4317
   65SAPC  H18X 5402   4.180   4.649   8.843  0.3694 -1.6567 -1.3454
   65SAPC  H18Y 5403   4.020   4.720   8.788 -0.5970  0.4837 -4.4557
   65SAPC  H18Z 5404   4.159   4.804   8.737 -1.4796  0.9079  0.6566
   66SAPC     N 5405   2.315   4.018   5.947 -0.7023 -0.6396  0.0486
   66SAPC   C12 5406   2.351   4.091   6.083  0.1085 -0.9411  0.1066
   66SAPC  H12A 5407   2.451   4.130   6.078  0.0588 -0.9378 -2.8733
   66SAPC  H12B 5408   2.350   4.019   6.163  1.1009 -1.7466 -0.5894
   66SAPC   C13 5409   2.304   4.118   5.838 -0.4769  0.2449 -1.1260
   66SAPC  H13A 5410   2.264   4.084   5.744  1.5181 -0.7046 -1.6800
   66SAPC  H13B 5411   2.235   4.193   5.872 -2.8150 -1.0630 -2.7079
   66SAPC  H13C 5412   2.399   4.167   5.823 -0.0377 -0.4756 -0.7828
   66SAPC   C14 5413   2.426   3.919   5.902  0.0190  1.1506  0.1607
   66SAPC  H14A 5414   2.475   3.880   5.990 -1.0602  0.0840  0.3215
   66SAPC  H14B 5415   2.383   3.838   5.846 -0.7302  1.6801 -0.0560
   66SAPC  H14C 5416   2.505   3.974   5.853  1.1784 -0.0777  0.5858
   66SAPC   C15 5417   2.187   3.946   5.972  0.2622 -0.5121  0.1539
   66SAPC  H15A 5418   2.179   3.877   5.889  0.0918 -0.8637  0.4634
   66SAPC  H15B 5419   2.184   3.898   6.068 -0.8699  0.4281  0.6147
   66SAPC  H15C 5420   2.103   4.014   5.970 -1.2437 -2.3230 -0.0809
   66SAPC   C11 5421   2.250   4.208   6.134  0.0960  0.6655 -0.2970
   66SAPC  H11A 5422   2.222   4.277   6.051  2.6040  1.5936 -0.4610
   66SAPC  H11B 5423   2.314   4.277   6.194  2.6277  0.5235 -2.6153
   66SAPC     P 5424   2.139   4.096   6.351  0.0077  0.2017  0.0121
   66SAPC   O13 5425   2.239   4.176   6.425 -0.4950 -0.1317  0.0198
   66SAPC   O14 5426   2.007   4.087   6.417 -0.1898 -0.0232 -0.5132
   66SAPC   O12 5427   2.127   4.160   6.203 -0.0274 -0.1817  0.0762
   66SAPC   O11 5428   2.183   3.953   6.315 -0.2350  0.0417  0.0469
   66SAPC    C1 5429   2.107   3.844   6.365  0.1031  0.3810  0.2945
   66SAPC    HA 5430   1.999   3.859   6.344  0.1900  0.7207  0.0897
   66SAPC    HB 5431   2.132   3.749   6.315 -0.4364 -1.6441  3.5627
   66SAPC    C2 5432   2.135   3.811   6.518 -0.0067 -0.3068  0.2061
   66SAPC    HS 5433   2.091   3.888   6.585  0.8644  0.0099  0.4283
   66SAPC   O21 5434   2.278   3.794   6.543  0.7651 -0.0727  0.0016
   66SAPC   C21 5435   2.326   3.876   6.633 -0.1432  0.6372 -0.6319
   66SAPC   O22 5436   2.270   3.962   6.699  0.0965 -0.1620  0.8935
   66SAPC   C22 5437   2.472   3.836   6.646  0.0744 -0.0258 -0.1487
   66SAPC   H2R 5438   2.466   3.726   6.660 -1.6622  0.0491  0.0141
   66SAPC   H2S 5439   2.528   3.875   6.558 -0.8574  1.3344 -0.1640
   66SAPC    C3 5440   2.064   3.674   6.544  0.5470 -0.4351 -0.0154
   66SAPC    HX 5441   2.051   3.618   6.450 -1.0761  1.2015 -0.8282
   66SAPC    HY 5442   1.963   3.712   6.573  0.3793  0.0731 -1.2084
   66SAPC   O31 5443   2.134   3.612   6.658  0.5757  0.1899 -0.0945
   66SAPC   C31 5444   2.218   3.516   6.617 -0.2271 -0.8358 -0.0167
   66SAPC   O32 5445   2.255   3.494   6.503  0.2394  0.6380  0.3454
   66SAPC   C32 5446   2.278   3.433   6.732  0.9733 -0.0717  0.3539
   66SAPC   H2X 5447   2.387   3.450   6.717  0.8345 -0.1530 -0.8726
   66SAPC   H2Y 5448   2.275   3.322   6.717  0.8825  0.1069 -1.1642
   66SAPC   C23 5449   2.544   3.904   6.765  0.2333  0.1924  0.7269
   66SAPC   H3R 5450   2.486   3.916   6.859  0.9016 -0.9945  1.3084
   66SAPC   H3S 5451   2.558   4.010   6.732  3.0322 -0.3424 -0.0848
   66SAPC   C24 5452   2.673   3.839   6.793 -0.5064 -0.1514  0.6782
   66SAPC   H4R 5453   2.733   3.911   6.853 -1.2537 -0.0490  1.3176
   66SAPC   H4S 5454   2.730   3.826   6.698 -1.8161  1.8801 -0.4709
   66SAPC   C25 5455   2.640   3.715   6.869 -0.4872 -0.2301 -0.2971
   66SAPC   H5R 5456   2.623   3.625   6.807  1.8734  0.5989 -2.3322
   66SAPC   C26 5457   2.638   3.712   7.006 -0.0043  0.8953 -0.0545
   66SAPC   H6R 5458   2.607   3.618   7.054  1.0077  0.8685  0.5673
   66SAPC   C27 5459   2.663   3.826   7.103  0.4952  0.2162  0.0955
   66SAPC   H7R 5460   2.660   3.930   7.064 -2.6873  0.7737  1.5057
   66SAPC   H7S 5461   2.767   3.807   7.138 -1.1814 -2.4775  4.4978
   66SAPC   C28 5462   2.581   3.834   7.230  1.1817  0.0324  0.3814
   66SAPC   H8R 5463   2.488   3.893   7.222  0.2592 -1.1911  1.5469
   66SAPC   C29 5464   2.607   3.768   7.343 -0.4013  0.5244 -0.2529
   66SAPC   H9R 5465   2.534   3.759   7.425  0.9742 -3.5037  0.7450
   66SAPC  C210 5466   2.713   3.663   7.374 -0.1074  0.5025  0.4619
   66SAPC  H10R 5467   2.758   3.624   7.280  0.2188 -0.7128  1.0941
   66SAPC  H10S 5468   2.663   3.578   7.426  0.4778  0.4120  0.8908
   66SAPC  C211 5469   2.816   3.710   7.465  0.2513  0.0638 -0.0916
   66SAPC  H11R 5470   2.916   3.699   7.420  0.7849 -1.9432  1.4005
   66SAPC  C212 5471   2.818   3.744   7.598  0.1690  0.5878 -0.2198
   66SAPC  H12R 5472   2.913   3.764   7.650  0.0266 -2.3237  1.4290
   66SAPC  C213 5473   2.696   3.745   7.685  0.2772 -0.1980  0.9295
   66SAPC  H13R 5474   2.597   3.735   7.638 -0.5959 -2.2108  3.0175
   66SAPC  H13S 5475   2.691   3.846   7.731  1.0672 -0.4385  1.5861
   66SAPC  C214 5476   2.685   3.633   7.786 -0.7349 -0.6563  0.1019
   66SAPC  H14R 5477   2.641   3.537   7.755 -1.2965 -0.9509  1.7368
   66SAPC  C215 5478   2.734   3.647   7.912 -0.1963  0.2259  0.2606
   66SAPC  H15R 5479   2.729   3.560   7.978 -1.3023  1.5597  2.0363
   66SAPC  C216 5480   2.817   3.757   7.974  0.3915 -0.2531 -0.2895
   66SAPC  H16R 5481   2.892   3.800   7.905  1.5318  0.8829  1.5890
   66SAPC  H16S 5482   2.860   3.719   8.068  1.2839  1.4138  0.0170
   66SAPC  C217 5483   2.740   3.878   8.025 -0.5055  0.4163  0.4581
   66SAPC  H17R 5484   2.691   3.937   7.945  2.3491 -0.1151 -1.8381
   66SAPC  H17S 5485   2.820   3.954   8.044  0.4393  0.5984 -3.4829
   66SAPC  C218 5486   2.653   3.846   8.154  0.2685  0.3779 -0.5783
   66SAPC  H18R 5487   2.720   3.824   8.239 -0.4495 -2.2979 -0.6120
   66SAPC  H18S 5488   2.597   3.751   8.136 -0.0061  0.8787 -2.6077
   66SAPC  C219 5489   2.542   3.943   8.190 -0.0326 -0.6482  0.6877
   66SAPC  H19R 5490   2.462   3.944   8.114  0.7592  1.0765 -0.1685
   66SAPC  H19S 5491   2.594   4.041   8.193 -0.2288 -0.4438 -1.5440
   66SAPC  C220 5492   2.483   3.928   8.325 -0.0856  0.3203 -0.0037
   66SAPC  H20R 5493   2.459   3.821   8.343 -1.2183  0.9683  2.7314
   66SAPC  H20S 5494   2.387   3.982   8.339 -1.6723 -2.6043  1.2486
   66SAPC  H20T 5495   2.561   3.954   8.399  0.0458  0.5014 -0.2059
   66SAPC   C33 5496   2.229   3.467   6.872 -0.7520 -0.3488  0.2138
   66SAPC   H3X 5497   2.123   3.440   6.886 -0.8675 -0.6343 -1.1223
   66SAPC   H3Y 5498   2.235   3.577   6.888  0.7251 -0.2221 -0.9404
   66SAPC   C34 5499   2.316   3.417   6.983  0.3389  0.2914  0.8625
   66SAPC   H4X 5500   2.423   3.445   6.985  0.3338  0.3827  0.0936
   66SAPC   H4Y 5501   2.308   3.306   6.990 -2.7936  0.3991  0.7667
   66SAPC   C35 5502   2.256   3.485   7.103  0.3092  0.0943 -0.3203
   66SAPC   H5X 5503   2.146   3.469   7.110  0.2458  0.8420  0.6280
   66SAPC   H5Y 5504   2.280   3.593   7.109  1.8655 -0.3019  1.5193
   66SAPC   C36 5505   2.312   3.430   7.233  0.1560  0.1434  0.8650
   66SAPC   H6X 5506   2.415   3.471   7.245  1.2404 -1.6349 -1.4397
   66SAPC   H6Y 5507   2.324   3.319   7.235 -0.9213 -0.0492 -1.2227
   66SAPC   C37 5508   2.226   3.473   7.349 -0.7712 -0.0963 -0.9197
   66SAPC   H7X 5509   2.128   3.424   7.337 -1.1310 -0.0445  1.2862
   66SAPC   H7Y 5510   2.214   3.584   7.342  1.9604  0.3104 -0.4223
   66SAPC   C38 5511   2.286   3.447   7.491  0.3881  0.9481  0.4254
   66SAPC   H8X 5512   2.225   3.502   7.565 -2.9489 -0.1657 -1.3320
   66SAPC   H8Y 5513   2.394   3.473   7.482 -0.3524  3.6620 -1.7801
   66SAPC   C39 5514   2.280   3.299   7.533 -0.1421  0.6034 -0.5610
   66SAPC   H9X 5515   2.379   3.259   7.563 -0.3690 -0.2691 -0.9499
   66SAPC   H9Y 5516   2.236   3.238   7.451  0.8119  0.6799 -1.1471
   66SAPC  C310 5517   2.187   3.266   7.656  0.0464  0.4254 -0.4339
   66SAPC  H10X 5518   2.150   3.161   7.652 -1.1530  0.8600 -1.4632
   66SAPC  H10Y 5519   2.100   3.333   7.638 -0.7211 -0.8739 -1.8429
   66SAPC  C311 5520   2.265   3.294   7.785  0.6299  1.0715  0.0816
   66SAPC  H11X 5521   2.330   3.383   7.794  2.7567 -0.4966  1.1263
   66SAPC  H11Y 5522   2.328   3.205   7.804  1.1127  1.5748  0.8719
   66SAPC  C312 5523   2.172   3.307   7.905 -0.0877  0.0654  0.0498
   66SAPC  H12X 5524   2.137   3.202   7.916  2.4589 -1.1095 -2.0177
   66SAPC  H12Y 5525   2.080   3.358   7.870 -2.1288 -2.3128  1.5121
   66SAPC  C313 5526   2.236   3.360   8.031 -0.3391  0.4861 -0.1572
   66SAPC  H13X 5527   2.322   3.292   8.049  0.1169  0.2147 -2.9013
   66SAPC  H13Y 5528   2.169   3.352   8.119  0.5276  1.1378  0.5861
   66SAPC  C314 5529   2.296   3.500   8.028  0.0150 -0.4367  0.4396
   66SAPC  H14X 5530   2.222   3.574   7.991 -1.5222 -2.7719 -1.4876
   66SAPC  H14Y 5531   2.382   3.505   7.958 -0.9714  2.7645 -0.6940
   66SAPC  C315 5532   2.339   3.551   8.170  0.3199 -0.1000  0.6285
   66SAPC  H15X 5533   2.248   3.576   8.227 -0.7271  1.4801 -1.5974
   66SAPC  H15Y 5534   2.387   3.649   8.149 -1.0035  0.7149  1.3237
   66SAPC  C316 5535   2.430   3.459   8.255  0.2582 -0.5992 -0.5220
   66SAPC  H16X 5536   2.522   3.434   8.199  0.4592 -3.6325  0.9349
   66SAPC  H16Y 5537   2.378   3.362   8.266  0.9051 -0.9736 -0.7135
   66SAPC  C317 5538   2.477   3.518   8.394 -0.2423  0.1362 -0.1519
   66SAPC  H17X 5539   2.385   3.556   8.444 -0.7580  0.1682 -1.0956
   66SAPC  H17Y 5540   2.543   3.596   8.351 -1.0304 -0.2850 -2.2490
   66SAPC  C318 5541   2.563   3.425   8.481 -0.2573 -0.5280 -0.7716
   66SAPC  H18X 5542   2.524   3.322   8.495  0.1344 -0.3608  2.2455
   66SAPC  H18Y 5543   2.568   3.469   8.583  0.4801  0.7139 -1.3190
   66SAPC  H18Z 5544   2.664   3.427   8.436 -0.1756  2.2255 -0.6701
   67SAPC     N 5545   4.424   0.108   6.257  0.3744 -0.1786  0.1181
   67SAPC   C12 5546   4.455   0.017   6.374 -0.2949 -1.1725 -0.6230
   67SAPC  H12A 5547   4.562   0.013   6.394 -0.1965 -1.3724 -1.1716
   67SAPC  H12B 5548   4.431  -0.085   6.347 -1.2680 -1.5475  1.4808
   67SAPC   C13 5549   4.506   0.063   6.140 -0.1741  0.3319 -0.0909
   67SAPC  H13A 5550   4.497  -0.044   6.122  3.5956 -0.3700  1.1118
   67SAPC  H13B 5551   4.482   0.117   6.050  0.2871 -0.2969 -0.6027
   67SAPC  H13C 5552   4.612   0.079   6.158 -0.1803 -1.4018  1.8852
   67SAPC   C14 5553   4.276   0.105   6.228 -1.3728 -0.8008 -0.0920
   67SAPC  H14A 5554   4.232   0.008   6.210 -2.4029 -0.1559 -1.2357
   67SAPC  H14B 5555   4.227   0.138   6.319  0.7486  2.3370  0.0488
   67SAPC  H14C 5556   4.258   0.182   6.155 -0.2420 -0.6508 -0.2283
   67SAPC   C15 5557   4.468   0.249   6.289  0.2211 -0.5227 -0.5739
   67SAPC  H15A 5558   4.417   0.320   6.225 -2.1473 -0.1874  1.4937
   67SAPC  H15B 5559   4.433   0.274   6.389  1.7862 -0.9549  0.1128
   67SAPC  H15C 5560   4.573   0.271   6.280 -0.1027  2.6133  1.5473
   67SAPC   C11 5561   4.382   0.062   6.505 -0.5885  0.1958 -0.1322
   67SAPC  H11A 5562   4.392  -0.020   6.579  0.2317  1.3206  1.0509
   67SAPC  H11B 5563   4.276   0.071   6.471 -0.4416  1.9886 -0.2380
   67SAPC     P 5564   4.568   0.170   6.649 -0.1285 -0.0493  0.3388
   67SAPC   O13 5565   4.678   0.138   6.553  0.5729  0.1389  0.3519
   67SAPC   O14 5566   4.584   0.296   6.719 -0.7040  0.0888  0.3130
   67SAPC   O12 5567   4.437   0.171   6.566  0.5109  0.1118 -0.5052
   67SAPC   O11 5568   4.535   0.055   6.754 -0.0209  0.1729  0.4676
   67SAPC    C1 5569   4.439   0.067   6.858 -0.2821 -0.1754 -0.0923
   67SAPC    HA 5570   4.380   0.162   6.862 -1.2308 -0.7784  2.1610
   67SAPC    HB 5571   4.353  -0.004   6.853  1.2510 -2.4672  2.8173
   67SAPC    C2 5572   4.503   0.061   6.998  0.0889 -0.6855 -0.5566
   67SAPC    HS 5573   4.582   0.139   7.003 -0.5460 -0.0959  1.9734
   67SAPC   O21 5574   4.534  -0.075   7.025  0.3433  0.0624  0.4031
   67SAPC   C21 5575   4.647  -0.111   6.994  0.1429 -0.2524 -0.6412
   67SAPC   O22 5576   4.739  -0.045   6.943 -0.4234  0.2355 -0.3317
   67SAPC   C22 5577   4.662  -0.266   7.022 -0.1296 -0.0415 -0.0130
   67SAPC   H2R 5578   4.561  -0.309   7.002 -0.7349  1.2004  0.3091
   67SAPC   H2S 5579   4.746  -0.293   6.956 -0.9669 -1.5397 -0.5254
   67SAPC    C3 5580   4.411   0.115   7.118 -0.3433 -0.0583 -0.3698
   67SAPC    HX 5581   4.397   0.224   7.101  1.4206  0.7157  2.5261
   67SAPC    HY 5582   4.470   0.108   7.211  1.3772 -0.9121 -1.4784
   67SAPC   O31 5583   4.290   0.040   7.129  0.0874 -0.5538 -0.1267
   67SAPC   C31 5584   4.172   0.107   7.114  0.5478 -0.1093 -0.4259
   67SAPC   O32 5585   4.160   0.224   7.083  0.1704  0.4923 -0.3181
   67SAPC   C32 5586   4.052   0.004   7.141 -0.7415  0.2316  0.2780
   67SAPC   H2X 5587   4.053  -0.074   7.062  0.2372  0.7323 -0.2168
   67SAPC   H2Y 5588   3.957   0.059   7.124 -1.0034  0.2442  1.6467
   67SAPC   C23 5589   4.694  -0.295   7.168  0.2314 -0.5391  0.2150
   67SAPC   H3R 5590   4.619  -0.257   7.240  0.1201  0.1331 -0.2422
   67SAPC   H3S 5591   4.784  -0.235   7.195  0.4224 -0.4425 -0.5839
   67SAPC   C24 5592   4.733  -0.444   7.175  0.5048 -0.1952 -0.9603
   67SAPC   H4R 5593   4.786  -0.465   7.270  1.7744 -1.3351 -1.8767
   67SAPC   H4S 5594   4.803  -0.466   7.091  0.9962  0.6172 -0.7734
   67SAPC   C25 5595   4.613  -0.534   7.174 -0.4801  0.8479  0.0927
   67SAPC   H5R 5596   4.567  -0.556   7.077 -1.6095 -0.3136  0.8417
   67SAPC   C26 5597   4.561  -0.608   7.274  0.4180  0.2383 -0.1760
   67SAPC   H6R 5598   4.477  -0.676   7.253  0.8544  0.3433 -2.5014
   67SAPC   C27 5599   4.598  -0.606   7.421 -0.2102  0.3117  0.0409
   67SAPC   H7R 5600   4.709  -0.605   7.424 -0.2271  0.4525  2.7147
   67SAPC   H7S 5601   4.559  -0.700   7.466  0.3812  0.5200  1.0225
   67SAPC   C28 5602   4.561  -0.488   7.504  0.1186 -0.6719 -0.0739
   67SAPC   H8R 5603   4.610  -0.391   7.489 -0.9052 -0.2956 -1.0900
   67SAPC   C29 5604   4.490  -0.497   7.617  0.4931 -0.5571  0.4196
   67SAPC   H9R 5605   4.462  -0.403   7.667  0.3628 -0.1438 -0.4233
   67SAPC  C210 5606   4.431  -0.616   7.687 -0.0704  0.2737 -0.3706
   67SAPC  H10R 5607   4.505  -0.638   7.767  1.6808  1.5419 -1.5640
   67SAPC  H10S 5608   4.433  -0.709   7.626  3.3274 -1.0307  1.4317
   67SAPC  C211 5609   4.288  -0.600   7.745 -1.1416  0.6582  0.1476
   67SAPC  H11R 5610   4.220  -0.532   7.690 -0.8483  0.5021 -0.4118
   67SAPC  C212 5611   4.237  -0.679   7.835  0.6040  0.1630  0.3619
   67SAPC  H12R 5612   4.139  -0.673   7.884  0.2655 -3.6276  0.4077
   67SAPC  C213 5613   4.317  -0.798   7.880  0.4426  0.0743  0.2755
   67SAPC  H13R 5614   4.371  -0.841   7.794 -1.1360  0.9654 -1.2257
   67SAPC  H13S 5615   4.236  -0.873   7.897 -0.3949  0.3434 -2.1880
   67SAPC  C214 5616   4.402  -0.755   8.002  0.3713  0.1649 -0.8520
   67SAPC  H14R 5617   4.462  -0.667   7.974 -0.5769  1.5820  1.3491
   67SAPC  C215 5618   4.405  -0.800   8.131 -0.5943  0.7427 -0.3786
   67SAPC  H15R 5619   4.473  -0.750   8.202  0.8584 -1.5187 -0.0971
   67SAPC  C216 5620   4.321  -0.920   8.171 -0.6748 -0.0632  0.1374
   67SAPC  H16R 5621   4.380  -0.978   8.244 -1.8528  0.9610  1.9927
   67SAPC  H16S 5622   4.310  -0.995   8.091  2.3446 -0.2852 -0.1853
   67SAPC  C217 5623   4.192  -0.884   8.251 -1.0490  0.3528  0.2155
   67SAPC  H17R 5624   4.137  -0.980   8.261 -0.8952 -0.0593 -2.1483
   67SAPC  H17S 5625   4.128  -0.816   8.191  0.1730 -0.4144 -2.1018
   67SAPC  C218 5626   4.221  -0.824   8.382  0.1266 -0.2154  0.1785
   67SAPC  H18R 5627   4.273  -0.729   8.357  1.4121 -1.2693 -1.4025
   67SAPC  H18S 5628   4.279  -0.889   8.451 -0.9740 -1.7885 -0.2986
   67SAPC  C219 5629   4.090  -0.767   8.445 -0.1912 -0.5814 -0.3747
   67SAPC  H19R 5630   4.020  -0.847   8.478 -0.8912  1.4090  3.5796
   67SAPC  H19S 5631   4.025  -0.706   8.379 -2.0707 -0.7235  1.2508
   67SAPC  C220 5632   4.111  -0.696   8.577  0.4201  0.1066  0.0039
   67SAPC  H20R 5633   4.193  -0.749   8.630  0.3504  1.4109  1.4555
   67SAPC  H20S 5634   4.021  -0.704   8.642 -0.3834  0.5672 -1.0049
   67SAPC  H20T 5635   4.136  -0.589   8.559  0.0270  0.2770  0.4467
   67SAPC   C33 5636   4.054  -0.059   7.284  0.0606 -0.3303 -0.0290
   67SAPC   H3X 5637   4.161  -0.075   7.312  2.2526  3.4781 -4.5878
   67SAPC   H3Y 5638   3.998  -0.154   7.288  0.8006 -0.7367  3.4309
   67SAPC   C34 5639   3.994   0.040   7.387 -0.4781 -0.5182 -0.1817
   67SAPC   H4X 5640   3.888   0.061   7.362  0.2812  1.0671 -2.3532
   67SAPC   H4Y 5641   4.057   0.129   7.366 -1.5996  0.1214 -0.9004
   67SAPC   C35 5642   4.019   0.003   7.534  0.2143 -0.5076  0.1819
   67SAPC   H5X 5643   3.972   0.084   7.594  0.1565 -0.8778  0.6348
   67SAPC   H5Y 5644   4.126   0.010   7.561  0.6508 -1.0132 -1.3126
   67SAPC   C36 5645   3.951  -0.127   7.581 -0.5042  0.9042 -0.3152
   67SAPC   H6X 5646   3.988  -0.223   7.539  0.6449  0.8178  0.8267
   67SAPC   H6Y 5647   3.843  -0.127   7.554 -0.5642 -0.4255 -0.1535
   67SAPC   C37 5648   3.967  -0.142   7.735 -0.5498  0.3101 -0.3597
   67SAPC   H7X 5649   3.892  -0.220   7.762  0.7895 -1.1298 -0.6462
   67SAPC   H7Y 5650   3.928  -0.059   7.797  0.8401  0.7349 -0.0232
   67SAPC   C38 5651   4.108  -0.197   7.772  1.0053  0.4292 -0.0013
   67SAPC   H8X 5652   4.177  -0.111   7.775  0.9727  0.5052 -1.0958
   67SAPC   H8Y 5653   4.138  -0.268   7.692 -1.1100 -1.4193  0.7134
   67SAPC   C39 5654   4.103  -0.267   7.909  0.4359 -0.2378  0.2417
   67SAPC   H9X 5655   4.047  -0.363   7.901 -1.2046  0.7964 -1.3836
   67SAPC   H9Y 5656   4.055  -0.193   7.976 -0.1443  0.7199 -1.1789
   67SAPC  C310 5657   4.243  -0.294   7.963 -0.0400 -0.6405  1.0279
   67SAPC  H10X 5658   4.296  -0.197   7.976  1.9948 -1.5505  0.0229
   67SAPC  H10Y 5659   4.312  -0.338   7.887 -0.3758  1.4477 -0.6166
   67SAPC  C311 5660   4.242  -0.376   8.089 -0.1022  0.4413  0.7254
   67SAPC  H11X 5661   4.339  -0.428   8.097 -1.4065 -2.1940  0.3012
   67SAPC  H11Y 5662   4.166  -0.456   8.093  2.6634 -2.3043  2.4284
   67SAPC  C312 5663   4.231  -0.289   8.219  0.0088 -0.2688 -0.1446
   67SAPC  H12X 5664   4.143  -0.224   8.202  1.1845  1.6586  0.8516
   67SAPC  H12Y 5665   4.325  -0.231   8.235  0.5855 -1.5238  1.2249
   67SAPC  C313 5666   4.199  -0.376   8.343 -0.2335  0.5752  0.0528
   67SAPC  H13X 5667   4.265  -0.465   8.353  0.0026  0.8109  0.6695
   67SAPC  H13Y 5668   4.099  -0.423   8.329  0.3924  0.1811 -4.3311
   67SAPC  C314 5669   4.213  -0.291   8.470 -0.4772 -0.1142 -0.1227
   67SAPC  H14X 5670   4.292  -0.214   8.459  0.0649 -0.6326  0.1298
   67SAPC  H14Y 5671   4.232  -0.343   8.566 -3.1947  0.6086  0.9142
   67SAPC  C315 5672   4.086  -0.204   8.493 -0.1074  0.4292 -0.1105
   67SAPC  H15X 5673   4.009  -0.281   8.513  2.8523 -2.4860  0.9822
   67SAPC  H15Y 5674   4.073  -0.137   8.405  0.4477  2.4694  1.2688
   67SAPC  C316 5675   4.083  -0.110   8.614 -0.7540  0.2152 -0.0965
   67SAPC  H16X 5676   4.166  -0.041   8.589 -0.6573 -0.3219 -1.3785
   67SAPC  H16Y 5677   4.109  -0.166   8.706  2.3997 -0.7979 -1.4641
   67SAPC  C317 5678   3.956  -0.039   8.624  0.4545  0.1611 -0.9213
   67SAPC  H17X 5679   3.937   0.027   8.537  0.9818  0.5516 -0.7462
   67SAPC  H17Y 5680   3.959   0.021   8.717 -2.5596 -0.8865 -0.0162
   67SAPC  C318 5681   3.832  -0.132   8.644 -0.3868  0.4394 -0.5566
   67SAPC  H18X 5682   3.739  -0.075   8.663  0.7101  3.1909 -2.8926
   67SAPC  H18Y 5683   3.846  -0.214   8.718  1.5904  0.4958 -0.8167
   67SAPC  H18Z 5684   3.818  -0.192   8.552  0.3124 -4.0055  1.9165
   68SAPC     N 5685   3.220   5.104   6.088  0.9096  0.0933 -1.0317
   68SAPC   C12 5686   3.180   5.170   6.218 -0.2525 -0.0551  0.1007
   68SAPC  H12A 5687   3.162   5.271   6.186 -1.0328 -0.4816 -0.8576
   68SAPC  H12B 5688   3.263   5.168   6.287  2.0505  2.4096 -2.3957
   68SAPC   C13 5689   3.349   5.143   6.042  0.2063 -0.4561  0.1448
   68SAPC  H13A 5690   3.359   5.250   6.034 -2.3879 -0.2468 -1.1970
   68SAPC  H13B 5691   3.433   5.118   6.105  1.7535  3.2909 -0.1439
   68SAPC  H13C 5692   3.371   5.104   5.944 -0.4477  1.0589 -0.6298
   68SAPC   C14 5693   3.235   4.961   6.108 -0.2016  0.7820 -0.0180
   68SAPC  H14A 5694   3.321   4.951   6.172  0.9181  1.5183 -1.3410
   68SAPC  H14B 5695   3.148   4.918   6.156 -0.6660  0.9195 -0.7248
   68SAPC  H14C 5696   3.256   4.902   6.020 -1.4338 -1.1749  0.9266
   68SAPC   C15 5697   3.107   5.127   5.984 -0.2619 -0.1428 -0.4693
   68SAPC  H15A 5698   3.013   5.096   6.026  0.6270  0.8801  2.5048
   68SAPC  H15B 5699   3.111   5.231   5.954  0.4401 -0.2868 -0.8971
   68SAPC  H15C 5700   3.131   5.060   5.903  1.4617 -1.2461  0.8874
   68SAPC   C11 5701   3.058   5.120   6.295  0.3899 -0.1570  0.2303
   68SAPC  H11A 5702   2.980   5.120   6.217  0.3636  2.4377  0.1659
   68SAPC  H11B 5703   3.035   5.196   6.373  4.5190  1.5258  0.0806
   68SAPC     P 5704   2.966   4.902   6.399 -0.1331  0.2888 -0.2754
   68SAPC   O13 5705   2.873   4.869   6.295  0.3881  0.2053 -0.4441
   68SAPC   O14 5706   3.033   4.789   6.471 -0.2310 -0.2313  0.1451
   68SAPC   O12 5707   3.085   4.996   6.356 -0.6156  0.6586  0.1543
   68SAPC   O11 5708   2.891   4.987   6.509 -0.5630 -0.3943 -0.2925
   68SAPC    C1 5709   2.954   5.055   6.617  0.5309  0.1853 -0.2774
   68SAPC    HA 5710   3.065   5.060   6.615  0.7831 -2.9737  0.8765
   68SAPC    HB 5711   2.915   5.159   6.609 -1.7607 -0.6279 -0.5617
   68SAPC    C2 5712   2.917   4.992   6.757  0.1683  0.1707 -0.0238
   68SAPC    HS 5713   2.810   4.965   6.762  0.3432 -0.3442  1.1438
   68SAPC   O21 5714   2.946   5.086   6.860  0.2121  0.1362 -0.7370
   68SAPC   C21 5715   2.844   5.103   6.941  0.2092  0.0187  0.5713
   68SAPC   O22 5716   2.726   5.088   6.913  0.0112 -0.5894  0.2575
   68SAPC   C22 5717   2.892   5.159   7.079  0.1674 -0.0120 -0.9726
   68SAPC   H2R 5718   2.944   5.073   7.127  2.2778  1.2284 -0.8782
   68SAPC   H2S 5719   2.969   5.238   7.067  0.3498  0.6848  3.2145
   68SAPC    C3 5720   2.992   4.861   6.786 -0.6423  0.1590 -0.5159
   68SAPC    HX 5721   3.093   4.892   6.754 -0.9601 -0.6902 -2.5069
   68SAPC    HY 5722   2.955   4.779   6.720  4.7557 -2.5551 -0.6969
   68SAPC   O31 5723   3.008   4.822   6.924 -0.6439 -0.7153 -0.3874
   68SAPC   C31 5724   2.913   4.746   6.971 -0.1329  0.4246  0.4331
   68SAPC   O32 5725   2.812   4.715   6.914  0.0756 -0.0124  0.3391
   68SAPC   C32 5726   2.958   4.678   7.102 -0.0369  0.1605 -0.0599
   68SAPC   H2X 5727   3.068   4.663   7.100  0.4114  2.9272 -0.0808
   68SAPC   H2Y 5728   2.918   4.574   7.101 -0.1107  0.1775  0.6157
   68SAPC   C23 5729   2.774   5.203   7.178  0.0261  0.5863  0.3376
   68SAPC   H3R 5730   2.697   5.260   7.122  0.4001  0.9178  0.1535
   68SAPC   H3S 5731   2.821   5.265   7.258  0.8694  1.8166 -1.0440
   68SAPC   C24 5732   2.703   5.086   7.256 -0.1345 -0.4179 -0.2414
   68SAPC   H4R 5733   2.772   5.032   7.324 -0.1353  0.5319  0.5387
   68SAPC   H4S 5734   2.665   5.015   7.180 -0.7329  1.1695 -1.4855
   68SAPC   C25 5735   2.587   5.143   7.345 -0.4370  0.5307  0.3707
   68SAPC   H5R 5736   2.491   5.151   7.292 -0.3343  4.0227  0.4707
   68SAPC   C26 5737   2.602   5.199   7.462 -0.1684 -0.0371  0.2608
   68SAPC   H6R 5738   2.517   5.238   7.520 -0.9013  0.2959 -1.0063
   68SAPC   C27 5739   2.726   5.223   7.539 -0.1418  0.0451 -0.8809
   68SAPC   H7R 5740   2.810   5.173   7.486  0.9626 -1.3832  2.0065
   68SAPC   H7S 5741   2.726   5.161   7.631 -0.2978 -0.3962 -1.1747
   68SAPC   C28 5742   2.746   5.376   7.554  0.3873  0.1714 -0.0029
   68SAPC   H8R 5743   2.784   5.422   7.462 -2.3546  0.6114 -1.0196
   68SAPC   C29 5744   2.715   5.455   7.661 -0.2180  0.0908  1.0542
   68SAPC   H9R 5745   2.730   5.563   7.647  0.9303 -0.1379  0.4250
   68SAPC  C210 5746   2.660   5.408   7.791  0.4083  0.1948 -0.5243
   68SAPC  H10R 5747   2.678   5.489   7.865 -0.8834 -0.0506  0.0880
   68SAPC  H10S 5748   2.714   5.319   7.831  0.5056  1.1555  1.6388
   68SAPC  C211 5749   2.515   5.377   7.777  0.4338 -0.4526  0.2301
   68SAPC  H11R 5750   2.471   5.378   7.676  0.1911 -0.0541  0.3404
   68SAPC  C212 5751   2.442   5.328   7.878  0.7932  0.1496 -0.0639
   68SAPC  H12R 5752   2.337   5.310   7.850  0.5997  0.8001  0.2085
   68SAPC  C213 5753   2.481   5.302   8.025 -0.0762  0.1250 -0.2196
   68SAPC  H13R 5754   2.562   5.227   8.018 -0.7198 -0.5413 -0.6539
   68SAPC  H13S 5755   2.393   5.263   8.082 -1.7459  0.2596 -2.5527
   68SAPC  C214 5756   2.516   5.427   8.102  0.4307 -0.3692 -0.0852
   68SAPC  H14R 5757   2.449   5.512   8.088  1.0011  0.0552 -0.2623
   68SAPC  C215 5758   2.621   5.427   8.188 -0.6913 -0.2258  0.1976
   68SAPC  H15R 5759   2.645   5.518   8.245  1.3869 -0.1287 -0.7376
   68SAPC  C216 5760   2.714   5.314   8.218  1.1072 -0.0331 -0.2527
   68SAPC  H16R 5761   2.810   5.331   8.164  0.7418  0.2098 -0.8392
   68SAPC  H16S 5762   2.671   5.215   8.190 -0.2292  0.8751 -1.5910
   68SAPC  C217 5763   2.749   5.300   8.370 -0.1548 -0.8301  0.6236
   68SAPC  H17R 5764   2.649   5.284   8.414 -0.2599 -3.5058 -0.4064
   68SAPC  H17S 5765   2.796   5.391   8.413 -1.2503  0.0870 -0.0487
   68SAPC  C218 5766   2.840   5.178   8.393 -0.2016  0.2134 -0.6285
   68SAPC  H18R 5767   2.929   5.176   8.325  1.1042 -5.7166  0.6358
   68SAPC  H18S 5768   2.788   5.080   8.380 -1.9927  0.9031  0.9266
   68SAPC  C219 5769   2.901   5.176   8.539 -0.2804 -0.5810 -0.1501
   68SAPC  H19R 5770   2.978   5.256   8.549  0.6196 -1.0890 -2.3835
   68SAPC  H19S 5771   2.949   5.076   8.545  0.1781 -0.4047 -0.7682
   68SAPC  C220 5772   2.795   5.167   8.651  0.6942 -0.3394  0.0505
   68SAPC  H20R 5773   2.722   5.251   8.639 -1.7606 -2.2919  0.4792
   68SAPC  H20S 5774   2.834   5.180   8.754 -1.8587  0.6465  0.9918
   68SAPC  H20T 5775   2.728   5.079   8.644 -0.9981  0.9883 -1.8161
   68SAPC   C33 5776   2.907   4.759   7.230 -0.2434 -0.0054 -0.5752
   68SAPC   H3X 5777   2.805   4.798   7.211 -0.9014 -1.6794 -0.6185
   68SAPC   H3Y 5778   2.976   4.844   7.251 -0.0606 -0.5418  1.1008
   68SAPC   C34 5779   2.900   4.672   7.355 -0.0761 -0.0496  0.5868
   68SAPC   H4X 5780   3.005   4.634   7.358  0.3947  1.0140 -1.0136
   68SAPC   H4Y 5781   2.846   4.575   7.344  1.1627 -0.8589  1.3563
   68SAPC   C35 5782   2.860   4.748   7.482  0.5115  0.1586 -0.0592
   68SAPC   H5X 5783   2.867   4.679   7.569 -0.5137 -1.1665 -0.9847
   68SAPC   H5Y 5784   2.752   4.773   7.473  0.7812  0.7383 -2.3085
   68SAPC   C36 5785   2.947   4.871   7.519  0.4178 -0.0192 -0.6402
   68SAPC   H6X 5786   2.930   4.957   7.452  0.3764  0.9528  0.5736
   68SAPC   H6Y 5787   3.051   4.840   7.496  0.6335 -0.5488  0.9306
   68SAPC   C37 5788   2.933   4.900   7.669 -0.2884 -0.5729  0.1638
   68SAPC   H7X 5789   2.955   4.808   7.728 -0.2193 -1.0095 -0.5293
   68SAPC   H7Y 5790   2.827   4.920   7.696 -0.4887 -1.6581  0.2552
   68SAPC   C38 5791   3.012   5.026   7.715 -0.5125  0.2047  0.4059
   68SAPC   H8X 5792   2.975   5.110   7.653 -1.8018 -1.4776 -1.2175
   68SAPC   H8Y 5793   3.119   5.005   7.695 -0.8395 -0.8615 -0.3677
   68SAPC   C39 5794   2.985   5.062   7.865 -0.2878  0.1293  0.4382
   68SAPC   H9X 5795   2.875   5.063   7.880  0.0093 -0.8896  3.2022
   68SAPC   H9Y 5796   3.035   5.161   7.874  1.4365 -0.5427 -1.1285
   68SAPC  C310 5797   3.052   4.961   7.957  0.4067  0.7690  0.5741
   68SAPC  H10X 5798   3.162   4.969   7.955  0.4301  0.5328  0.8561
   68SAPC  H10Y 5799   3.027   4.859   7.921 -0.6152  1.3620 -0.4814
   68SAPC  C311 5800   3.006   4.971   8.104  0.7275  0.4052  0.4129
   68SAPC  H11X 5801   2.897   4.949   8.113  0.6230  0.1280 -1.2432
   68SAPC  H11Y 5802   3.028   5.068   8.153 -0.8509  1.3296 -0.6173
   68SAPC  C312 5803   3.085   4.874   8.198  0.1314 -0.3009  0.0432
   68SAPC  H12X 5804   3.192   4.892   8.178  0.3510 -1.4109  0.1384
   68SAPC  H12Y 5805   3.062   4.772   8.160  0.6806  0.6561 -3.1153
   68SAPC  C313 5806   3.064   4.905   8.346 -0.3131 -0.5364  0.0181
   68SAPC  H13X 5807   2.955   4.917   8.367 -0.6582  1.2535 -2.3243
   68SAPC  H13Y 5808   3.109   5.003   8.371 -0.1627 -0.8391  0.9810
   68SAPC  C314 5809   3.130   4.806   8.430  0.3102 -0.8300  0.0811
   68SAPC  H14X 5810   3.227   4.768   8.389  0.3780 -0.9841  0.3813
   68SAPC  H14Y 5811   3.067   4.715   8.438  0.2108 -0.8928 -1.2025
   68SAPC  C315 5812   3.162   4.846   8.576 -0.0847 -0.4138 -0.2751
   68SAPC  H15X 5813   3.072   4.875   8.635  0.9825  1.7895  0.4064
   68SAPC  H15Y 5814   3.220   4.941   8.567  1.1087 -0.9212  1.5037
   68SAPC  C316 5815   3.242   4.736   8.648  0.6473 -1.2036  0.0540
   68SAPC  H16X 5816   3.270   4.777   8.748 -1.5209  1.0093 -0.1484
   68SAPC  H16Y 5817   3.337   4.715   8.595 -0.4769 -2.3208 -1.6303
   68SAPC  C317 5818   3.161   4.607   8.691  0.0163 -0.1793  0.6877
   68SAPC  H17X 5819   3.168   4.548   8.597  0.5758  1.1065 -0.1171
   68SAPC  H17Y 5820   3.055   4.630   8.714  0.7569  2.6099  1.6757
   68SAPC  C318 5821   3.228   4.506   8.788 -0.0540  0.1100 -0.0095
   68SAPC  H18X 5822   3.331   4.487   8.752  0.6000  2.0844  0.7242
   68SAPC  H18Y 5823   3.173   4.410   8.801  2.1410 -1.3887 -1.1476
   68SAPC  H18Z 5824   3.242   4.568   8.879 -0.7853  0.3785 -0.0765
   69SLPC     N 5825   6.465   0.650  11.371  0.1062 -0.0692 -0.1384
   69SLPC   C13 5826   6.574   0.545  11.333  0.4535 -0.1242  0.6717
   69SLPC  H13A 5827   6.603   0.483  11.417  0.2998 -1.9397 -0.5408
   69SLPC  H13B 5828   6.538   0.478  11.256 -1.5049 -1.1812  2.3878
   69SLPC  H13C 5829   6.664   0.600  11.311 -1.7878  3.3392 -0.7308
   69SLPC   C14 5830   6.509   0.744  11.475 -0.1171  0.0598  0.3277
   69SLPC  H14A 5831   6.555   0.691  11.557  0.6936  0.4343  0.1226
   69SLPC  H14B 5832   6.593   0.797  11.433  0.5225 -0.8276  0.4823
   69SLPC  H14C 5833   6.423   0.807  11.497 -0.5539 -1.0908  2.1080
   69SLPC   C15 5834   6.349   0.578  11.430  0.0178  0.4143  0.1463
   69SLPC  H15A 5835   6.313   0.507  11.357 -0.3706 -0.1025  0.8287
   69SLPC  H15B 5836   6.374   0.534  11.526 -2.2141  1.0310  1.0752
   69SLPC  H15C 5837   6.268   0.646  11.450 -0.4433 -0.1799  0.3342
   69SLPC   C12 5838   6.425   0.731  11.244  0.0629  0.2159  0.4351
   69SLPC  H12A 5839   6.355   0.806  11.277  0.2226  0.2900  0.6131
   69SLPC  H12B 5840   6.378   0.660  11.178  1.8922 -1.3691  0.7449
   69SLPC   C11 5841   6.547   0.803  11.168  0.0750 -0.4158 -0.1404
   69SLPC  H11A 5842   6.497   0.881  11.106 -0.3747  0.5710  1.3941
   69SLPC  H11B 5843   6.603   0.731  11.105  0.8750  0.0535  0.0310
   69SLPC     P 5844   6.786   0.862  11.262  0.1071 -0.1462 -0.0726
   69SLPC   O13 5845   6.835   0.840  11.399  0.1849 -0.2670 -0.0268
   69SLPC   O14 5846   6.825   0.766  11.157  0.4405 -0.1199  0.0309
   69SLPC   O12 5847   6.633   0.864  11.264  0.1649  0.4347  0.9847
   69SLPC   O11 5848   6.819   1.012  11.218 -0.1082  0.0950 -0.0692
   69SLPC    C1 5849   6.776   1.077  11.101 -1.0984  0.0046 -0.2880
   69SLPC    HA 5850   6.669   1.053  11.084 -0.9946 -2.3203  1.7229
   69SLPC    HB 5851   6.789   1.187  11.111  2.1019 -0.3459  0.5049
   69SLPC    C2 5852   6.845   1.032  10.965  0.3130  0.4508  0.2975
   69SLPC    HS 5853   6.824   0.924  10.948 -1.6385  0.4928  2.0589
   69SLPC   O21 5854   6.985   1.065  10.975  0.4786  0.1275 -0.3488
   69SLPC   C21 5855   7.065   0.984  10.910  0.7403 -0.4633 -0.0530
   69SLPC   O22 5856   7.027   0.892  10.833 -0.0521  0.0982  0.2441
   69SLPC   C22 5857   7.211   1.020  10.926  1.1175  0.5544  0.5800
   69SLPC   H2R 5858   7.224   1.130  10.924 -1.0383  0.8844 -2.2866
   69SLPC   H2S 5859   7.238   0.976  11.025  3.2283 -1.5682 -0.8248
   69SLPC    C3 5860   6.782   1.114  10.851  0.0738  0.1618 -0.0030
   69SLPC    HX 5861   6.783   1.218  10.888  2.1159 -0.4341  1.8269
   69SLPC    HY 5862   6.679   1.073  10.844  0.4533 -0.7933 -0.1332
   69SLPC   O31 5863   6.846   1.103  10.722 -0.5507 -0.4042 -0.3515
   69SLPC   C31 5864   6.794   1.019  10.634  0.0863  0.2667 -0.2347
   69SLPC   O32 5865   6.702   0.942  10.653  0.5893 -0.0072  0.2395
   69SLPC   C32 5866   6.879   1.034  10.511  0.3765  0.1979 -0.2808
   69SLPC   H2X 5867   6.977   1.074  10.543  0.3397  0.6819 -0.7691
   69SLPC   H2Y 5868   6.822   1.114  10.459  1.5226  1.5803  0.5193
   69SLPC   C23 5869   7.297   0.949  10.819  0.0680 -0.0741  0.4309
   69SLPC   H3R 5870   7.255   0.850  10.791 -1.0481  1.1124 -2.4996
   69SLPC   H3S 5871   7.403   0.937  10.848 -0.4905 -2.6971  1.6788
   69SLPC   C24 5872   7.285   1.036  10.696 -1.0805  0.6943  0.2996
   69SLPC   H4R 5873   7.340   1.132  10.707 -0.4205  0.1724  1.8600
   69SLPC   H4S 5874   7.180   1.065  10.675 -1.3322  0.6138  1.3606
   69SLPC   C25 5875   7.345   0.968  10.572  0.4114 -0.7541  0.7621
   69SLPC   H5R 5876   7.295   0.869  10.570 -2.5593  0.5920  2.2216
   69SLPC   H5S 5877   7.453   0.950  10.555  0.7175 -0.2569  2.0778
   69SLPC   C26 5878   7.296   1.054  10.441 -0.5198  0.0893 -0.2117
   69SLPC   H6R 5879   7.317   1.160  10.465  0.0784 -0.2276  0.7268
   69SLPC   H6S 5880   7.185   1.046  10.444 -0.5388  0.5611  0.4025
   69SLPC   C27 5881   7.371   1.015  10.321 -0.1620  1.0997  0.3927
   69SLPC   H7R 5882   7.320   0.930  10.269  1.6140  0.4682 -0.3935
   69SLPC   H7S 5883   7.473   0.985  10.353 -0.6262  0.2754  1.1761
   69SLPC   C28 5884   7.378   1.132  10.223  0.1443  0.6196  0.3323
   69SLPC   H8R 5885   7.436   1.223  10.249  1.2574 -0.4062  1.5956
   69SLPC   H8S 5886   7.275   1.167  10.206  0.0054  1.0420  1.8603
   69SLPC   C29 5887   7.433   1.070  10.093 -0.1501 -0.2929  0.1036
   69SLPC   H9R 5888   7.496   0.981  10.103  0.0144 -0.0214  1.7791
   69SLPC  C210 5889   7.419   1.117   9.963  0.7000 -0.1335 -0.4571
   69SLPC  H10R 5890   7.462   1.062   9.878  0.4058  1.0286 -1.3768
   69SLPC  C211 5891   7.325   1.238   9.927 -0.5550  0.3984 -0.3318
   69SLPC  H11R 5892   7.272   1.278  10.016 -0.6125 -2.8415  1.2203
   69SLPC  H11S 5893   7.247   1.206   9.855 -1.1750  1.0302  0.0484
   69SLPC  C212 5894   7.396   1.351   9.863 -0.4849 -0.7716  0.7417
   69SLPC  H12R 5895   7.416   1.436   9.929 -1.8602  0.1850 -0.0141
   69SLPC  C213 5896   7.437   1.353   9.732  0.7763 -0.3237  0.5904
   69SLPC  H13R 5897   7.478   1.450   9.701 -1.0326 -0.2780 -1.9662
   69SLPC  C214 5898   7.407   1.255   9.618 -0.1010  0.1896 -0.1842
   69SLPC  H14R 5899   7.368   1.301   9.524 -1.5656 -0.5049  0.0559
   69SLPC  H14S 5900   7.320   1.190   9.641 -1.2213  0.7823 -2.3843
   69SLPC  C215 5901   7.529   1.160   9.610 -0.4697  0.4437 -0.0778
   69SLPC  H15R 5902   7.582   1.164   9.708 -2.7954  1.9090  1.2171
   69SLPC  H15S 5903   7.604   1.192   9.535  0.3364 -0.4795  0.3155
   69SLPC  C216 5904   7.486   1.017   9.578 -0.1848  0.0993  0.7097
   69SLPC  H16R 5905   7.419   0.971   9.654 -1.8239 -2.6242 -2.1339
   69SLPC  H16S 5906   7.576   0.952   9.587 -0.4190 -0.1852  1.0366
   69SLPC  C217 5907   7.435   1.007   9.429  0.3156 -0.1267 -0.0457
   69SLPC  H17R 5908   7.353   1.079   9.406 -1.3418 -1.4249  1.4269
   69SLPC  H17S 5909   7.394   0.904   9.426  0.9244 -0.4029  0.6473
   69SLPC  C218 5910   7.553   1.009   9.324  0.5449 -0.1704 -0.2679
   69SLPC  H18R 5911   7.640   0.954   9.366  1.7062  1.7852 -0.0026
   69SLPC  H18S 5912   7.574   1.118   9.320  0.2929 -0.0898  0.5530
   69SLPC  H18T 5913   7.522   0.969   9.224 -1.8043  1.2510 -0.1934
   69SLPC   C33 5914   6.876   0.900  10.434  0.2621  0.2868  0.1336
   69SLPC   H3X 5915   6.771   0.887  10.399  0.5470 -0.6412 -0.3893
   69SLPC   H3Y 5916   6.885   0.815  10.505 -0.7450 -0.7138 -0.8971
   69SLPC   C34 5917   6.968   0.900  10.314 -0.7271 -0.1335  0.4979
   69SLPC   H4X 5918   6.995   0.794  10.296  1.2720  0.4658 -0.2857
   69SLPC   H4Y 5919   7.060   0.952  10.348 -0.6111 -0.5631  0.8530
   69SLPC   C35 5920   6.920   0.970  10.184  0.1316  0.0681  0.0006
   69SLPC   H5X 5921   6.920   1.078  10.210  2.7964 -0.4893  2.9602
   69SLPC   H5Y 5922   6.817   0.934  10.161  0.7022 -1.1938 -0.7101
   69SLPC   C36 5923   7.024   0.948  10.078 -0.1396  0.7563  1.0778
   69SLPC   H6X 5924   7.028   0.841  10.048  1.3111  1.3399 -1.0512
   69SLPC   H6Y 5925   7.118   0.988  10.122  0.0585 -0.4616  1.7982
   69SLPC   C37 5926   6.989   1.032   9.952  0.2810  0.3244  0.1572
   69SLPC   H7X 5927   7.009   1.141   9.965 -0.9775  0.3668  2.3107
   69SLPC   H7Y 5928   6.879   1.015   9.943  0.5169 -1.5588  0.4869
   69SLPC   C38 5929   7.053   0.988   9.813  0.9826  0.3606  0.1584
   69SLPC   H8X 5930   7.070   0.878   9.819  1.4008  0.4912  2.0158
   69SLPC   H8Y 5931   7.156   1.029   9.810  1.0885  0.0482 -0.8481
   69SLPC   C39 5932   6.961   1.033   9.693 -0.0080  0.0794 -0.3922
   69SLPC   H9X 5933   6.933   1.139   9.711 -0.6438  0.0349 -1.0950
   69SLPC   H9Y 5934   6.868   0.977   9.719  0.1609  0.1188  0.3337
   69SLPC  C310 5935   6.993   0.994   9.546  0.4299 -0.1192 -1.4767
   69SLPC  H10X 5936   7.039   1.085   9.503  0.7111  0.4038 -0.1400
   69SLPC  H10Y 5937   6.903   0.966   9.487 -0.2455  0.2925 -0.6735
   69SLPC  C311 5938   7.080   0.867   9.539  0.2749 -0.1233 -0.1726
   69SLPC  H11X 5939   7.047   0.794   9.617  0.3121 -1.8876 -1.7224
   69SLPC  H11Y 5940   7.185   0.895   9.561 -0.0463  1.7927 -0.8768
   69SLPC  C312 5941   7.061   0.819   9.398 -0.4115 -0.2357  0.6578
   69SLPC  H12X 5942   6.961   0.780   9.371  0.9259 -2.7963 -0.9798
   69SLPC  H12Y 5943   7.120   0.727   9.379 -1.0411 -0.1884 -1.7516
   69SLPC  C313 5944   7.090   0.909   9.280 -0.2131 -0.2763  0.3775
   69SLPC  H13X 5945   7.194   0.945   9.295  0.5122 -2.0995  0.0031
   69SLPC  H13Y 5946   7.024   0.998   9.278  0.4022  0.2080 -2.1943
   69SLPC  C314 5947   7.097   0.839   9.143  0.3540 -0.1746 -0.2056
   69SLPC  H14X 5948   7.001   0.795   9.108  0.9544 -0.3923 -1.6179
   69SLPC  H14Y 5949   7.172   0.758   9.154  3.0686  2.1003 -0.9391
   69SLPC  C315 5950   7.135   0.942   9.034  0.0264 -0.3027  0.5568
   69SLPC  H15X 5951   7.239   0.973   9.056 -0.2697 -0.2365  1.9598
   69SLPC  H15Y 5952   7.073   1.031   9.058  0.0039  0.5539 -2.3771
   69SLPC  C316 5953   7.121   0.897   8.887 -0.1092  0.0231  0.8166
   69SLPC  H16X 5954   7.143   0.984   8.821 -2.6082 -0.1716 -0.3859
   69SLPC  H16Y 5955   7.012   0.875   8.874 -0.1520  1.0707 -1.0165
   69SLPC  C317 5956   7.198   0.773   8.845  0.6678 -0.1641  0.1706
   69SLPC  H17X 5957   7.177   0.695   8.922  0.3632 -1.7038 -1.4053
   69SLPC  H17Y 5958   7.309   0.777   8.842  0.7251 -0.5550  1.2710
   69SLPC  C318 5959   7.144   0.700   8.714 -0.6475  0.3308  0.0068
   69SLPC  H18X 5960   7.168   0.753   8.620 -1.6521 -1.3792 -1.2596
   69SLPC  H18Y 5961   7.035   0.677   8.722 -0.3935 -0.6360  1.0461
   69SLPC  H18Z 5962   7.193   0.601   8.701 -2.7160 -0.6311 -0.9052
   70SLPC     N 5963   0.759   0.377  11.358  0.2635  0.0514 -0.1141
   70SLPC   C13 5964   0.667   0.490  11.362  0.0472  0.1952  0.1606
   70SLPC  H13A 5965   0.570   0.456  11.394 -0.9294 -1.9688 -4.2760
   70SLPC  H13B 5966   0.711   0.573  11.415  1.2494  0.7807 -1.6520
   70SLPC  H13C 5967   0.654   0.528  11.261 -0.4662  0.7009  0.4084
   70SLPC   C14 5968   0.783   0.338  11.504  0.3525  0.4368  0.0344
   70SLPC  H14A 5969   0.822   0.422  11.560  1.0220 -0.4165  0.8872
   70SLPC  H14B 5970   0.693   0.301  11.551  0.7453  0.0290  0.4796
   70SLPC  H14C 5971   0.855   0.258  11.514  0.5724  0.4322 -1.3584
   70SLPC   C15 5972   0.891   0.426  11.297  0.5086 -0.5841 -0.4499
   70SLPC  H15A 5973   0.875   0.443  11.192  1.1881 -2.0028 -0.8191
   70SLPC  H15B 5974   0.922   0.513  11.353 -1.9761  0.1556 -0.0926
   70SLPC  H15C 5975   0.967   0.349  11.290  1.5281  0.4923 -1.5398
   70SLPC   C12 5976   0.701   0.256  11.274 -0.2646  0.4141 -0.4107
   70SLPC  H12A 5977   0.613   0.212  11.319  1.2180  0.8299  3.2234
   70SLPC  H12B 5978   0.781   0.184  11.271 -1.9149 -1.6255  1.7067
   70SLPC   C11 5979   0.681   0.285  11.120  0.9943  0.4161  0.0503
   70SLPC  H11A 5980   0.663   0.184  11.077  1.1278 -0.6369  2.2972
   70SLPC  H11B 5981   0.778   0.309  11.072  2.1927 -3.4064  0.2027
   70SLPC     P 5982   0.424   0.333  11.073 -0.6761 -0.0988  0.0072
   70SLPC   O13 5983   0.398   0.219  11.157 -0.5046 -0.4208  0.6040
   70SLPC   O14 5984   0.347   0.458  11.093 -0.7571 -0.0784 -0.6299
   70SLPC   O12 5985   0.574   0.377  11.086 -0.1042  0.2566 -0.4754
   70SLPC   O11 5986   0.428   0.300  10.921  0.9042  0.6029 -0.1560
   70SLPC    C1 5987   0.518   0.353  10.827  0.0987 -0.6337 -0.1717
   70SLPC    HA 5988   0.549   0.452  10.869  1.1491 -2.4493  3.8651
   70SLPC    HB 5989   0.608   0.290  10.836 -0.1673 -1.0455 -0.3581
   70SLPC    C2 5990   0.458   0.366  10.686 -0.3615 -0.0383  0.2033
   70SLPC    HS 5991   0.365   0.425  10.694 -0.2779 -0.0586  1.4863
   70SLPC   O21 5992   0.435   0.234  10.650 -0.1489  0.0075  0.0857
   70SLPC   C21 5993   0.344   0.211  10.557  0.4259 -0.1141 -0.2988
   70SLPC   O22 5994   0.270   0.291  10.500 -0.7574  0.1848  0.0659
   70SLPC   C22 5995   0.355   0.058  10.521  0.3588  0.0119  1.0651
   70SLPC   H2R 5996   0.455   0.019  10.549  1.3058 -0.1878 -2.1862
   70SLPC   H2S 5997   0.276   0.013  10.585 -1.8669  2.1915  0.0277
   70SLPC    C3 5998   0.560   0.440  10.588  0.0606  0.1022 -0.6160
   70SLPC    HX 5999   0.660   0.392  10.597 -0.2279 -0.8710 -2.1859
   70SLPC    HY 6000   0.562   0.542  10.632  0.3998  0.3274 -1.1520
   70SLPC   O31 6001   0.519   0.429  10.452 -0.7824  0.3900 -0.1665
   70SLPC   C31 6002   0.516   0.539  10.386  0.2911 -0.6027  0.2446
   70SLPC   O32 6003   0.530   0.653  10.422  0.2635 -0.3004  0.1194
   70SLPC   C32 6004   0.487   0.505  10.241  0.4904  0.1562  0.2718
   70SLPC   H2X 6005   0.376   0.499  10.239  0.4791  0.4846 -1.1421
   70SLPC   H2Y 6006   0.523   0.405  10.208 -2.6091 -1.3384  1.0426
   70SLPC   C23 6007   0.318   0.023  10.378  0.1394  0.3772  0.1741
   70SLPC   H3R 6008   0.234   0.083  10.337  0.9093  0.7086 -0.9804
   70SLPC   H3S 6009   0.287  -0.084  10.374  1.3384  0.0393 -0.7905
   70SLPC   C24 6010   0.435   0.050  10.283  0.1709  0.1512  0.3059
   70SLPC   H4R 6011   0.512  -0.027  10.307 -1.5854 -1.7065  0.2385
   70SLPC   H4S 6012   0.472   0.152  10.303  0.1190  0.0922  0.7158
   70SLPC   C25 6013   0.384   0.036  10.138 -0.1328 -0.6964 -0.5908
   70SLPC   H5R 6014   0.332  -0.062  10.139  1.4963 -1.5970  0.3034
   70SLPC   H5S 6015   0.477   0.050  10.078  0.2250  1.2695  0.3338
   70SLPC   C26 6016   0.291   0.158  10.093  0.7182  0.9730  0.0192
   70SLPC   H6R 6017   0.328   0.254  10.136  0.7494  1.1926 -0.4880
   70SLPC   H6S 6018   0.190   0.143  10.137 -0.1472  1.4927 -1.7192
   70SLPC   C27 6019   0.273   0.173   9.945  0.4413  0.2272  0.1926
   70SLPC   H7R 6020   0.243   0.070   9.918 -0.2259  0.5650 -0.3907
   70SLPC   H7S 6021   0.369   0.187   9.890  0.1062  4.1654  0.2872
   70SLPC   C28 6022   0.175   0.279   9.898  0.0456 -0.7413  0.1588
   70SLPC   H8R 6023   0.218   0.381   9.906  0.4917 -0.8840 -0.3594
   70SLPC   H8S 6024   0.078   0.270   9.952 -1.2240  0.7447 -1.7090
   70SLPC   C29 6025   0.141   0.256   9.758  0.2165 -0.0181  0.1293
   70SLPC   H9R 6026   0.065   0.179   9.737  2.5427 -1.6629 -3.2239
   70SLPC  C210 6027   0.206   0.293   9.646  0.6818  0.6970 -0.4574
   70SLPC  H10R 6028   0.166   0.281   9.544  1.4772  1.5488 -0.8909
   70SLPC  C211 6029   0.329   0.378   9.634  0.0447 -0.2417  0.4032
   70SLPC  H11R 6030   0.372   0.415   9.729  1.0405  1.3365 -0.6174
   70SLPC  H11S 6031   0.307   0.460   9.562 -0.3137 -0.9198 -0.2770
   70SLPC  C212 6032   0.438   0.288   9.583 -0.0478 -0.0704 -0.3339
   70SLPC  H12R 6033   0.487   0.215   9.649 -0.8806 -0.6634 -0.3651
   70SLPC  C213 6034   0.485   0.285   9.463  0.0553 -0.5184  0.3937
   70SLPC  H13R 6035   0.549   0.207   9.420 -2.1299 -1.5600 -1.1134
   70SLPC  C214 6036   0.447   0.385   9.355  0.4900 -0.4520 -0.7058
   70SLPC  H14R 6037   0.529   0.460   9.346  0.6075 -0.2959  1.2144
   70SLPC  H14S 6038   0.354   0.443   9.375 -0.1302 -2.0115  1.2698
   70SLPC  C215 6039   0.430   0.328   9.217  0.2987 -0.2380  0.5346
   70SLPC  H15R 6040   0.341   0.261   9.222 -0.5015  0.7830  0.2718
   70SLPC  H15S 6041   0.518   0.273   9.178 -0.3178 -0.0225 -1.2532
   70SLPC  C216 6042   0.407   0.446   9.124  0.3715 -0.5726  0.3161
   70SLPC  H16R 6043   0.506   0.495   9.108 -0.6821  1.0340 -1.8529
   70SLPC  H16S 6044   0.328   0.518   9.153 -0.5206 -1.5701  0.4269
   70SLPC  C217 6045   0.351   0.390   8.994  0.4622 -0.2446 -0.1245
   70SLPC  H17R 6046   0.336   0.468   8.916  0.7785  0.0978  0.1519
   70SLPC  H17S 6047   0.252   0.342   9.012 -0.0746  0.8548 -0.0263
   70SLPC  C218 6048   0.436   0.296   8.908 -0.4738 -0.1031 -0.9296
   70SLPC  H18R 6049   0.538   0.338   8.897  0.1466 -1.3569 -0.1355
   70SLPC  H18S 6050   0.391   0.279   8.808 -0.4020 -0.3790 -0.9140
   70SLPC  H18T 6051   0.451   0.197   8.956 -1.2554  0.5398  0.7181
   70SLPC   C33 6052   0.538   0.619  10.151 -1.1793 -0.0830  0.1370
   70SLPC   H3X 6053   0.648   0.622  10.141 -1.1332 -1.3662  0.1345
   70SLPC   H3Y 6054   0.522   0.717  10.202 -2.0606 -0.6131  0.8949
   70SLPC   C34 6055   0.478   0.625  10.012  0.5061  0.3230 -0.2656
   70SLPC   H4X 6056   0.508   0.722   9.969  1.8303 -0.1957 -0.5665
   70SLPC   H4Y 6057   0.367   0.614  10.014  0.5669 -0.3601 -0.4426
   70SLPC   C35 6058   0.536   0.510   9.922  1.1744  0.8302  0.0770
   70SLPC   H5X 6059   0.482   0.518   9.825  2.5387  0.8392 -0.6997
   70SLPC   H5Y 6060   0.514   0.408   9.959 -2.4230  1.7684  0.9210
   70SLPC   C36 6061   0.691   0.516   9.907  0.3571 -0.2923  0.2966
   70SLPC   H6X 6062   0.741   0.459   9.987 -1.0209 -0.4026  1.1111
   70SLPC   H6Y 6063   0.721   0.623   9.912  1.3486 -0.5780  0.6586
   70SLPC   C37 6064   0.734   0.459   9.774  0.3647  0.1993  0.3636
   70SLPC   H7X 6065   0.677   0.364   9.770  0.3739  0.1471  1.2131
   70SLPC   H7Y 6066   0.838   0.421   9.770 -0.6863 -2.9189  0.1746
   70SLPC   C38 6067   0.716   0.558   9.661  0.2946  0.6664 -0.5585
   70SLPC   H8X 6068   0.754   0.657   9.695  0.6993  0.2396  0.2488
   70SLPC   H8Y 6069   0.608   0.566   9.639 -0.1218 -1.5070  0.4778
   70SLPC   C39 6070   0.788   0.520   9.536 -0.6541 -0.4409  0.7534
   70SLPC   H9X 6071   0.761   0.417   9.505  0.2777 -0.6441  0.5731
   70SLPC   H9Y 6072   0.899   0.533   9.544 -0.4912  0.0801 -1.6281
   70SLPC  C310 6073   0.761   0.614   9.423 -0.4356  0.3182 -0.0272
   70SLPC  H10X 6074   0.810   0.711   9.443 -0.6909  0.1894  1.3182
   70SLPC  H10Y 6075   0.655   0.646   9.413 -0.0934  1.3734 -0.4378
   70SLPC  C311 6076   0.814   0.565   9.285  0.1284 -0.1155  0.0848
   70SLPC  H11X 6077   0.779   0.461   9.269 -0.3014 -0.3224  2.0819
   70SLPC  H11Y 6078   0.924   0.553   9.278  0.0436 -0.4969 -0.7856
   70SLPC  C312 6079   0.776   0.663   9.173  0.4664  0.4922  0.3720
   70SLPC  H12X 6080   0.828   0.761   9.176 -0.1398  0.8184  3.1986
   70SLPC  H12Y 6081   0.673   0.695   9.201  0.4269  1.8224 -1.1305
   70SLPC  C313 6082   0.772   0.603   9.035 -0.0961  0.2092  0.4506
   70SLPC  H13X 6083   0.695   0.658   8.977  0.5082  1.0748  0.4554
   70SLPC  H13Y 6084   0.764   0.492   9.042  0.8078  0.2492  2.8321
   70SLPC  C314 6085   0.910   0.617   8.976 -0.2625 -0.1217 -0.1205
   70SLPC  H14X 6086   0.989   0.582   9.046  0.4741  0.1564 -0.7915
   70SLPC  H14Y 6087   0.936   0.723   8.952  0.3499 -0.4736 -1.1205
   70SLPC  C315 6088   0.935   0.537   8.847 -0.4442 -0.7229  0.3696
   70SLPC  H15X 6089   0.930   0.432   8.882  1.9259 -0.6667  1.0394
   70SLPC  H15Y 6090   1.041   0.557   8.821 -0.9397  1.2604 -0.3908
   70SLPC  C316 6091   0.829   0.563   8.734 -0.4138 -0.2024 -0.9316
   70SLPC  H16X 6092   0.846   0.668   8.703 -1.1300 -0.5605 -2.6001
   70SLPC  H16Y 6093   0.727   0.545   8.774 -0.1264 -0.6796 -0.3934
   70SLPC  C317 6094   0.853   0.463   8.622  0.8583 -1.2526  0.1439
   70SLPC  H17X 6095   0.857   0.359   8.661  3.0342 -0.9999  0.7303
   70SLPC  H17Y 6096   0.957   0.480   8.585  0.9913 -0.5662  0.8105
   70SLPC  C318 6097   0.753   0.494   8.505 -0.3441  0.3417  0.4206
   70SLPC  H18X 6098   0.652   0.519   8.542 -0.8895 -2.0030  0.6345
   70SLPC  H18Y 6099   0.739   0.409   8.436 -2.2378  1.1156 -0.2213
   70SLPC  H18Z 6100   0.788   0.578   8.440  0.2081  0.3911  0.7682
   71SLPC     N 6101   1.168   4.990  10.767  0.2024  1.0290  0.3300
   71SLPC   C13 6102   1.236   4.992  10.632  0.4168  0.2003  0.2457
   71SLPC  H13A 6103   1.202   4.911  10.569 -0.7306  0.0418  1.0473
   71SLPC  H13B 6104   1.224   5.085  10.578 -0.5778  0.3087  0.6417
   71SLPC  H13C 6105   1.343   4.982  10.646  0.6552  1.1054 -0.7629
   71SLPC   C14 6106   1.020   5.020  10.736  0.0169  0.8901  1.4110
   71SLPC  H14A 6107   1.005   5.104  10.669  1.0566  0.6492  0.8432
   71SLPC  H14B 6108   0.969   4.935  10.693 -0.8221  0.5440  3.0109
   71SLPC  H14C 6109   0.953   5.041  10.818 -1.0964  0.6418  0.5867
   71SLPC   C15 6110   1.219   5.101  10.852  0.2574 -0.7780  0.3578
   71SLPC  H15A 6111   1.166   5.114  10.946 -0.1097  1.9591 -0.1466
   71SLPC  H15B 6112   1.324   5.105  10.878  0.0337  0.8678  1.1373
   71SLPC  H15C 6113   1.202   5.193  10.798  0.5789 -1.0286 -0.1733
   71SLPC   C12 6114   1.170   4.858  10.830 -0.2427  0.0665 -0.4484
   71SLPC  H12A 6115   1.131   4.780  10.765 -1.0918  1.2317 -1.3882
   71SLPC  H12B 6116   1.108   4.848  10.918  1.2455  0.4282  0.6635
   71SLPC   C11 6117   1.304   4.795  10.881  0.2646 -0.3708 -0.1449
   71SLPC  H11A 6118   1.353   4.748  10.792  1.8665 -0.1296  0.5801
   71SLPC  H11B 6119   1.288   4.720  10.962  1.7770 -1.3982 -0.7558
   71SLPC     P 6120   1.537   4.890  10.882  0.0328  0.0551 -0.1238
   71SLPC   O13 6121   1.611   4.982  10.966  0.3153  0.3603  0.3535
   71SLPC   O14 6122   1.596   4.757  10.875  0.1633  0.6214  0.1940
   71SLPC   O12 6123   1.395   4.891  10.933  0.4754  0.1265  0.4040
   71SLPC   O11 6124   1.528   4.954  10.735  0.1000  0.0170 -0.3613
   71SLPC    C1 6125   1.649   4.996  10.673  0.3238 -0.0315  0.0272
   71SLPC    HA 6126   1.680   5.095  10.712 -0.1075 -0.6213  2.0215
   71SLPC    HB 6127   1.729   4.920  10.676  2.3922  1.7265 -3.7735
   71SLPC    C2 6128   1.615   5.008  10.518  0.0733  0.5740 -0.1206
   71SLPC    HS 6129   1.707   5.037  10.463 -0.2845  1.4049 -0.2941
   71SLPC   O21 6130   1.515   5.111  10.498  0.3127 -0.4342  0.2026
   71SLPC   C21 6131   1.563   5.241  10.491 -0.4932  0.3491  0.0918
   71SLPC   O22 6132   1.674   5.271  10.524  0.4016 -0.0696 -0.1856
   71SLPC   C22 6133   1.464   5.330  10.434 -0.7992  0.1495  0.4819
   71SLPC   H2R 6134   1.368   5.277  10.422  0.0350 -1.5520  0.9863
   71SLPC   H2S 6135   1.451   5.428  10.484 -2.4275  0.0102  0.3758
   71SLPC    C3 6136   1.557   4.876  10.462 -0.1341 -0.2698 -0.0184
   71SLPC    HX 6137   1.480   4.835  10.531  1.3109 -0.6377  1.4536
   71SLPC    HY 6138   1.640   4.803  10.467  1.1744  1.1403 -0.4514
   71SLPC   O31 6139   1.528   4.889  10.319  0.5357  0.1051 -0.1597
   71SLPC   C31 6140   1.401   4.891  10.290 -0.1986 -0.3324  0.0509
   71SLPC   O32 6141   1.306   4.888  10.363  0.2251  0.0320  0.6269
   71SLPC   C32 6142   1.383   4.880  10.131 -0.1129 -0.5154 -0.0660
   71SLPC   H2X 6143   1.306   4.958  10.113 -1.5121 -1.6253  0.8910
   71SLPC   H2Y 6144   1.345   4.778  10.107  1.9438 -1.6436  1.1880
   71SLPC   C23 6145   1.510   5.382  10.293  0.0408 -0.0165  0.6053
   71SLPC   H3R 6146   1.619   5.401  10.303 -0.0251  0.6624  0.0864
   71SLPC   H3S 6147   1.462   5.482  10.284 -0.5298 -0.1944  1.5031
   71SLPC   C24 6148   1.483   5.281  10.182  0.4964 -0.0118  0.3451
   71SLPC   H4R 6149   1.372   5.286  10.174  0.6230 -0.3534 -2.3756
   71SLPC   H4S 6150   1.510   5.177  10.212  1.0795 -0.2346 -0.9091
   71SLPC   C25 6151   1.540   5.313  10.042  0.7025 -0.5034  0.2464
   71SLPC   H5R 6152   1.502   5.237   9.971  0.7882 -0.9457  0.6710
   71SLPC   H5S 6153   1.650   5.297  10.041  1.2077  2.3817 -1.4671
   71SLPC   C26 6154   1.520   5.460   9.992 -0.4247  0.8981 -0.2125
   71SLPC   H6R 6155   1.545   5.521  10.082  2.5612 -3.7579  2.5306
   71SLPC   H6S 6156   1.415   5.478   9.961 -0.9672 -0.4713  0.7157
   71SLPC   C27 6157   1.606   5.507   9.872 -0.3507 -0.1554 -0.4164
   71SLPC   H7R 6158   1.712   5.511   9.904 -0.6849 -2.4170  1.2245
   71SLPC   H7S 6159   1.579   5.612   9.847 -0.1578 -0.2664 -1.1246
   71SLPC   C28 6160   1.581   5.420   9.741 -0.2677  0.0076  0.0606
   71SLPC   H8R 6161   1.591   5.320   9.786  3.8676  0.8798  1.4783
   71SLPC   H8S 6162   1.672   5.432   9.679 -0.2096  0.1942  0.1794
   71SLPC   C29 6163   1.449   5.443   9.674 -0.9017 -0.6965  1.1432
   71SLPC   H9R 6164   1.358   5.467   9.730 -2.0592  0.5782 -1.1199
   71SLPC  C210 6165   1.428   5.433   9.541  0.1668 -0.3831 -0.0984
   71SLPC  H10R 6166   1.330   5.448   9.494  0.3444  1.1739 -0.0550
   71SLPC  C211 6167   1.535   5.408   9.432  0.3638  0.0301 -0.0752
   71SLPC  H11R 6168   1.635   5.384   9.474  0.5093 -1.2525 -1.1095
   71SLPC  H11S 6169   1.538   5.494   9.361 -1.0377 -0.5337 -0.8577
   71SLPC  C212 6170   1.486   5.286   9.357  0.7293  1.1855 -1.1389
   71SLPC  H12R 6171   1.541   5.195   9.385 -1.9758  0.1583  1.3096
   71SLPC  C213 6172   1.384   5.286   9.266 -0.5436  1.0678 -0.5795
   71SLPC  H13R 6173   1.352   5.197   9.210 -0.6212  0.3007  0.6552
   71SLPC  C214 6174   1.300   5.414   9.242 -0.5878  0.4941  0.2409
   71SLPC  H14R 6175   1.348   5.507   9.278 -0.3695 -0.0955  1.5406
   71SLPC  H14S 6176   1.202   5.405   9.294 -0.3675 -0.4903  0.5108
   71SLPC  C215 6177   1.281   5.420   9.091  0.0265  0.2720  0.0790
   71SLPC  H15R 6178   1.235   5.516   9.059 -0.1024  0.0324 -0.4661
   71SLPC  H15S 6179   1.204   5.345   9.061  0.5025  0.0275 -0.5567
   71SLPC  C216 6180   1.408   5.410   8.999 -0.0060  0.2405  0.8816
   71SLPC  H16R 6181   1.438   5.303   8.998  0.7141  0.2391 -3.8986
   71SLPC  H16S 6182   1.482   5.474   9.052  1.8508  0.0638 -1.3196
   71SLPC  C217 6183   1.391   5.481   8.861 -0.3123  0.1753  0.1999
   71SLPC  H17R 6184   1.361   5.588   8.873  3.0629  1.0665  2.1422
   71SLPC  H17S 6185   1.320   5.428   8.795  2.1239  0.1378 -2.5833
   71SLPC  C218 6186   1.529   5.484   8.788  0.4220 -0.3123 -0.6116
   71SLPC  H18R 6187   1.603   5.559   8.824 -1.1811  0.7999  0.5158
   71SLPC  H18S 6188   1.514   5.504   8.680  1.1971  0.0030 -0.6673
   71SLPC  H18T 6189   1.576   5.385   8.808  0.0388 -0.2587  0.6822
   71SLPC   C33 6190   1.506   4.913  10.034 -0.3916 -0.1346  0.0607
   71SLPC   H3X 6191   1.599   4.855  10.051 -0.2502 -0.6006 -2.0187
   71SLPC   H3Y 6192   1.521   5.022  10.054 -1.8736  0.0902  0.0540
   71SLPC   C34 6193   1.468   4.895   9.890  0.3158 -0.2734 -0.5200
   71SLPC   H4X 6194   1.368   4.941   9.878 -1.9509 -4.7996 -0.9248
   71SLPC   H4Y 6195   1.461   4.788   9.862 -0.3952 -0.2118 -0.5875
   71SLPC   C35 6196   1.571   4.961   9.797  0.2137  0.5938 -0.1413
   71SLPC   H5X 6197   1.652   4.887   9.777 -1.2616 -0.8362 -1.0451
   71SLPC   H5Y 6198   1.608   5.046   9.859 -0.2123  0.7268 -0.0651
   71SLPC   C36 6199   1.504   5.011   9.666 -0.0181  0.1222  1.0447
   71SLPC   H6X 6200   1.574   5.073   9.606 -1.5060 -0.0679 -0.9495
   71SLPC   H6Y 6201   1.421   5.075   9.703 -1.3906 -1.5196  0.8842
   71SLPC   C37 6202   1.452   4.886   9.589  0.5665 -0.5228 -0.0911
   71SLPC   H7X 6203   1.390   4.819   9.652  0.5884  0.3154  0.8457
   71SLPC   H7Y 6204   1.548   4.839   9.561  0.7121 -0.6094  0.5662
   71SLPC   C38 6205   1.380   4.916   9.460 -0.1033 -0.2583  0.2155
   71SLPC   H8X 6206   1.430   5.004   9.416  2.2798 -1.8077 -0.3296
   71SLPC   H8Y 6207   1.275   4.948   9.477 -0.6971 -2.0958  0.2319
   71SLPC   C39 6208   1.375   4.807   9.356 -0.1533  0.3697 -0.1875
   71SLPC   H9X 6209   1.290   4.738   9.373 -0.4183  0.6718 -0.2850
   71SLPC   H9Y 6210   1.457   4.737   9.381 -0.4708  0.4110  1.0233
   71SLPC  C310 6211   1.382   4.854   9.207 -0.3141  0.1994  0.0943
   71SLPC  H10X 6212   1.312   4.941   9.207  0.3159  0.7687  2.1777
   71SLPC  H10Y 6213   1.346   4.778   9.135  0.7621  0.0184 -0.2774
   71SLPC  C311 6214   1.521   4.904   9.167 -0.6235 -0.6196 -0.5559
   71SLPC  H11X 6215   1.586   4.814   9.156 -0.1380 -0.9001  3.3649
   71SLPC  H11Y 6216   1.575   4.966   9.241  1.2973 -1.8791 -0.8075
   71SLPC  C312 6217   1.515   4.988   9.041 -1.1094  0.3874  0.0038
   71SLPC  H12X 6218   1.611   5.043   9.050  0.3181 -1.8352 -0.8438
   71SLPC  H12Y 6219   1.423   5.050   9.039 -1.2712  0.2410  1.7699
   71SLPC  C313 6220   1.524   4.913   8.908  0.4132 -0.9423 -0.2496
   71SLPC  H13X 6221   1.430   4.856   8.889  0.5259 -1.3481  0.3812
   71SLPC  H13Y 6222   1.614   4.849   8.917  0.1754 -1.5103 -1.7827
   71SLPC  C314 6223   1.546   5.012   8.786 -0.3604 -0.0106 -0.6059
   71SLPC  H14X 6224   1.620   5.086   8.822  1.8332 -2.9847  1.4988
   71SLPC  H14Y 6225   1.448   5.057   8.759 -0.7774  0.1487  1.0900
   71SLPC  C315 6226   1.595   4.931   8.667 -0.1530 -0.1552 -0.5655
   71SLPC  H15X 6227   1.521   4.853   8.637 -0.8264  0.2667 -0.0396
   71SLPC  H15Y 6228   1.685   4.874   8.696 -1.4103 -1.8623  0.1515
   71SLPC  C316 6229   1.610   5.027   8.547  0.6512  0.6576 -0.1664
   71SLPC  H16X 6230   1.676   5.115   8.565  1.9543 -0.4098  0.4402
   71SLPC  H16Y 6231   1.504   5.057   8.530  0.1367 -0.2131  1.3208
   71SLPC  C317 6232   1.660   4.956   8.419 -0.4161  0.2791  0.0334
   71SLPC  H17X 6233   1.595   4.869   8.394 -0.1835  0.5092 -1.4854
   71SLPC  H17Y 6234   1.766   4.924   8.432 -0.9739 -1.0194  1.6540
   71SLPC  C318 6235   1.638   5.055   8.296 -0.8708  0.3965 -0.1229
   71SLPC  H18X 6236   1.538   5.104   8.299 -0.4806  1.2663 -0.9033
   71SLPC  H18Y 6237   1.643   5.007   8.196 -0.9791  1.8838 -0.8550
   71SLPC  H18Z 6238   1.713   5.135   8.310 -1.0607  0.2232  2.3554
   72SLPC     N 6239   1.769   4.093  10.781 -0.5100  0.1557 -0.4220
   72SLPC   C13 6240   1.731   4.019  10.659 -0.1748  0.7280  0.3942
   72SLPC  H13A 6241   1.637   4.053  10.620  0.6560  0.2611 -2.2466
   72SLPC  H13B 6242   1.801   4.035  10.578 -1.0160  3.7787  0.1660
   72SLPC  H13C 6243   1.722   3.914  10.681 -0.1385  1.0403  1.9701
   72SLPC   C14 6244   1.672   4.084  10.881  0.1251  0.8004  0.8503
   72SLPC  H14A 6245   1.647   3.980  10.898 -0.4674  0.5286 -1.3201
   72SLPC  H14B 6246   1.699   4.134  10.973  0.4459 -2.4395  2.6762
   72SLPC  H14C 6247   1.580   4.127  10.842  1.8032  1.9428 -2.1942
   72SLPC   C15 6248   1.780   4.235  10.752 -0.4633 -0.0040 -0.6516
   72SLPC  H15A 6249   1.823   4.285  10.837  1.2582  1.8020 -2.4770
   72SLPC  H15B 6250   1.859   4.247  10.681  0.9807 -3.1928  0.2314
   72SLPC  H15C 6251   1.689   4.281  10.715  0.3113  0.8420 -1.5390
   72SLPC   C12 6252   1.903   4.047  10.837 -0.0117  0.6395  0.6192
   72SLPC  H12A 6253   1.917   4.102  10.929 -0.3926  1.2829  0.3023
   72SLPC  H12B 6254   1.989   4.069  10.774 -0.5930  1.9680  0.2444
   72SLPC   C11 6255   1.919   3.892  10.867 -0.0134  0.9711 -0.2529
   72SLPC  H11A 6256   2.026   3.869  10.882 -0.2850 -1.0756 -1.1864
   72SLPC  H11B 6257   1.874   3.831  10.786 -1.5940 -0.3042  1.5144
   72SLPC     P 6258   1.761   3.732  11.016 -0.2011  0.0352  0.3131
   72SLPC   O13 6259   1.781   3.689  11.152  0.6241  0.2998 -0.3312
   72SLPC   O14 6260   1.624   3.756  10.975  0.1728 -0.1279 -0.3640
   72SLPC   O12 6261   1.846   3.858  10.986 -0.3546 -0.0592  0.5604
   72SLPC   O11 6262   1.824   3.619  10.922 -0.1743 -0.6567  0.2624
   72SLPC    C1 6263   1.956   3.557  10.938  0.9607 -0.1749  0.1664
   72SLPC    HA 6264   2.014   3.613  11.014 -2.7069 -0.4664  3.4565
   72SLPC    HB 6265   1.942   3.449  10.960 -0.5714 -0.6061 -2.4709
   72SLPC    C2 6266   2.031   3.552  10.796 -0.1732  0.9911  0.3714
   72SLPC    HS 6267   2.065   3.654  10.768 -1.4730  1.8685  1.8287
   72SLPC   O21 6268   1.942   3.496  10.693 -0.4220 -0.5685  0.0023
   72SLPC   C21 6269   1.904   3.588  10.601 -0.8119 -0.2235  0.3782
   72SLPC   O22 6270   1.933   3.705  10.586 -0.2655  0.2584 -0.3873
   72SLPC   C22 6271   1.832   3.505  10.497  0.3765  1.0781  0.1744
   72SLPC   H2R 6272   1.776   3.428  10.554 -1.4993  1.9680 -0.3634
   72SLPC   H2S 6273   1.760   3.562  10.434  1.4668  1.0839 -1.1002
   72SLPC    C3 6274   2.155   3.462  10.797 -0.4041  0.5458 -0.2194
   72SLPC    HX 6275   2.127   3.368  10.850 -0.5523  1.4303  1.3451
   72SLPC    HY 6276   2.234   3.522  10.846 -1.1051  2.0913 -0.9398
   72SLPC   O31 6277   2.194   3.429  10.660  0.7341 -0.5636 -0.4099
   72SLPC   C31 6278   2.301   3.493  10.611 -1.3112  0.2102 -0.1662
   72SLPC   O32 6279   2.370   3.567  10.684  0.2409 -0.3666 -0.1368
   72SLPC   C32 6280   2.351   3.441  10.477  0.2372 -0.4132 -0.2034
   72SLPC   H2X 6281   2.351   3.524  10.403 -0.8121  1.5474  1.8567
   72SLPC   H2Y 6282   2.270   3.368  10.455 -0.3750 -0.3571  1.6749
   72SLPC   C23 6283   1.931   3.434  10.395  0.4567  0.4082 -0.6835
   72SLPC   H3R 6284   1.881   3.358  10.331  2.1401 -0.9457 -0.4697
   72SLPC   H3S 6285   1.994   3.364  10.454 -1.4887 -1.3060 -0.5323
   72SLPC   C24 6286   2.015   3.532  10.317 -0.0108  0.5332  0.1121
   72SLPC   H4R 6287   2.084   3.590  10.382  0.3045  0.2603  0.0230
   72SLPC   H4S 6288   1.944   3.598  10.263  0.6120  0.9215 -0.2391
   72SLPC   C25 6289   2.097   3.454  10.211 -0.6106  0.3292 -0.2709
   72SLPC   H5R 6290   2.026   3.390  10.154 -0.9011  0.8456 -0.4983
   72SLPC   H5S 6291   2.163   3.384  10.267 -1.8840  0.0016  0.8993
   72SLPC   C26 6292   2.159   3.552  10.112 -0.1325  0.5791 -0.7955
   72SLPC   H6R 6293   2.230   3.481  10.065 -0.9122 -1.8622  1.4399
   72SLPC   H6S 6294   2.204   3.638  10.165 -0.7087 -0.5198  1.6382
   72SLPC   C27 6295   2.049   3.598  10.016 -0.4584  0.3640 -0.2915
   72SLPC   H7R 6296   1.959   3.645  10.062 -0.3326  1.8831 -1.4978
   72SLPC   H7S 6297   2.017   3.505   9.964  2.0964 -2.0955  2.2177
   72SLPC   C28 6298   2.115   3.703   9.923  0.2360  0.2131 -0.4700
   72SLPC   H8R 6299   2.171   3.776   9.985 -0.3743 -1.0204  1.6439
   72SLPC   H8S 6300   2.030   3.757   9.876  0.5576 -0.0885 -1.4366
   72SLPC   C29 6301   2.213   3.646   9.819 -0.0264  0.3844 -0.6728
   72SLPC   H9R 6302   2.288   3.577   9.860  0.5969  1.6212  0.3135
   72SLPC  C210 6303   2.221   3.677   9.685 -0.4496  0.0427  1.0874
   72SLPC  H10R 6304   2.298   3.619   9.632  2.6506  1.1844  3.9935
   72SLPC  C211 6305   2.123   3.770   9.614 -0.0113  0.0108  0.3238
   72SLPC  H11R 6306   2.171   3.867   9.587 -1.8451  0.9965  0.4369
   72SLPC  H11S 6307   2.038   3.798   9.680 -0.6032  1.3942 -0.9588
   72SLPC  C212 6308   2.058   3.692   9.499  0.0600  0.4827  0.7060
   72SLPC  H12R 6309   1.969   3.634   9.527  0.9340 -0.2148  2.2070
   72SLPC  C213 6310   2.102   3.693   9.366  0.0941 -1.2053 -0.2266
   72SLPC  H13R 6311   2.042   3.636   9.293 -1.3568 -0.5186  0.4045
   72SLPC  C214 6312   2.211   3.777   9.301 -0.0600 -0.2475  0.0105
   72SLPC  H14R 6313   2.306   3.720   9.293  0.7213  1.0581 -0.3681
   72SLPC  H14S 6314   2.227   3.881   9.338 -0.9085 -0.3012  0.5527
   72SLPC  C215 6315   2.177   3.792   9.145  0.1826  0.2471 -0.1237
   72SLPC  H15R 6316   2.145   3.701   9.090 -0.1242 -0.1916  0.7619
   72SLPC  H15S 6317   2.270   3.829   9.097 -0.1418  0.0702 -0.9005
   72SLPC  C216 6318   2.070   3.893   9.120 -0.2138 -0.3952 -0.4299
   72SLPC  H16R 6319   2.080   3.982   9.185  0.7833 -0.7570 -0.0796
   72SLPC  H16S 6320   1.979   3.841   9.158  2.0143 -4.1222  0.3132
   72SLPC  C217 6321   2.049   3.927   8.976 -0.6535 -0.9863 -0.0261
   72SLPC  H17R 6322   1.954   3.984   8.966 -0.8620 -1.4877 -0.9872
   72SLPC  H17S 6323   2.031   3.837   8.913 -2.9654 -1.0709  0.6654
   72SLPC  C218 6324   2.167   4.021   8.934  0.2234  0.3589 -0.2165
   72SLPC  H18R 6325   2.197   4.091   9.015  1.8875  1.1572 -1.4635
   72SLPC  H18S 6326   2.130   4.073   8.843  1.1025 -0.8606 -1.3122
   72SLPC  H18T 6327   2.260   3.970   8.901  0.7618  0.8270  0.5458
   72SLPC   C33 6328   2.487   3.366  10.491  0.1665 -0.7922 -0.9362
   72SLPC   H3X 6329   2.491   3.301  10.581  0.8721  1.8137  1.0429
   72SLPC   H3Y 6330   2.561   3.448  10.495 -1.0926  0.3664 -0.8936
   72SLPC   C34 6331   2.521   3.284  10.366 -0.3544 -0.2527  0.3410
   72SLPC   H4X 6332   2.436   3.214  10.349  0.4604 -0.6516 -2.7418
   72SLPC   H4Y 6333   2.620   3.236  10.379 -0.8558 -1.0846  1.2024
   72SLPC   C35 6334   2.535   3.366  10.237  0.2267 -0.6539 -0.2338
   72SLPC   H5X 6335   2.618   3.438  10.249 -0.9765  0.3703  3.2891
   72SLPC   H5Y 6336   2.447   3.431  10.217  1.0419  0.2793 -0.8579
   72SLPC   C36 6337   2.572   3.284  10.110  0.0687 -0.4485  0.0971
   72SLPC   H6X 6338   2.502   3.198  10.103 -0.9173  0.4841 -2.8130
   72SLPC   H6Y 6339   2.677   3.249  10.100 -0.4283 -2.1851  0.4980
   72SLPC   C37 6340   2.537   3.365   9.982 -0.1503  0.1441 -1.1343
   72SLPC   H7X 6341   2.631   3.420   9.958  1.2508 -1.7887 -0.3614
   72SLPC   H7Y 6342   2.463   3.446  10.001 -0.4818 -0.8007  2.0549
   72SLPC   C38 6343   2.513   3.283   9.853  0.2816  0.2407  0.1577
   72SLPC   H8X 6344   2.425   3.216   9.859 -0.8180  1.6195 -0.1202
   72SLPC   H8Y 6345   2.605   3.225   9.831  1.0407  0.6692  2.0390
   72SLPC   C39 6346   2.488   3.351   9.716  0.1790  0.1160 -0.0228
   72SLPC   H9X 6347   2.587   3.392   9.685 -0.5034 -0.3867 -3.2652
   72SLPC   H9Y 6348   2.410   3.429   9.724 -0.5327 -0.6951  1.1731
   72SLPC  C310 6349   2.456   3.248   9.604 -0.1401  0.7495  0.0509
   72SLPC  H10X 6350   2.360   3.198   9.630  0.0265 -0.5951 -1.7887
   72SLPC  H10Y 6351   2.533   3.171   9.621 -1.4104 -0.7121 -0.6052
   72SLPC  C311 6352   2.452   3.294   9.460 -0.6114 -0.5030 -1.1880
   72SLPC  H11X 6353   2.360   3.354   9.450 -1.7938 -2.2230 -1.1691
   72SLPC  H11Y 6354   2.459   3.207   9.390  0.1935 -1.1052 -0.3822
   72SLPC  C312 6355   2.578   3.381   9.421  0.2027  0.2464  0.1109
   72SLPC  H12X 6356   2.669   3.319   9.401 -0.6161 -1.3964  1.2547
   72SLPC  H12Y 6357   2.613   3.442   9.507  0.1799  0.7510 -0.2318
   72SLPC  C313 6358   2.548   3.466   9.297  0.4170  0.1742 -1.1410
   72SLPC  H13X 6359   2.626   3.544   9.290 -0.6850  1.5898  1.3136
   72SLPC  H13Y 6360   2.450   3.517   9.288  0.5127  1.5520  3.5219
   72SLPC  C314 6361   2.561   3.376   9.171  0.1830 -0.4705  0.6702
   72SLPC  H14X 6362   2.460   3.332   9.154 -1.3651  2.2424  2.1225
   72SLPC  H14Y 6363   2.630   3.290   9.184  1.8774  0.3245 -2.2074
   72SLPC  C315 6364   2.626   3.446   9.055  0.3786 -0.0612 -0.3444
   72SLPC  H15X 6365   2.595   3.379   8.972  2.5048 -1.3179 -0.1891
   72SLPC  H15Y 6366   2.735   3.435   9.072  0.1806 -2.1132 -0.1933
   72SLPC  C316 6367   2.577   3.592   9.035  0.7021 -1.0669 -0.1420
   72SLPC  H16X 6368   2.628   3.664   9.102  1.2459 -1.1723 -0.4351
   72SLPC  H16Y 6369   2.468   3.587   9.056  0.8712 -0.5792  0.9257
   72SLPC  C317 6370   2.608   3.645   8.888  0.9503 -0.3313  0.1981
   72SLPC  H17X 6371   2.532   3.609   8.816 -1.0320  1.7966  1.1052
   72SLPC  H17Y 6372   2.707   3.596   8.873  0.2315 -2.1776  1.0874
   72SLPC  C318 6373   2.588   3.799   8.861 -0.3424 -0.1930 -0.0735
   72SLPC  H18X 6374   2.578   3.824   8.754  0.8251  2.3540  0.3379
   72SLPC  H18Y 6375   2.677   3.855   8.895 -1.0175 -0.5378  2.5347
   72SLPC  H18Z 6376   2.507   3.844   8.922 -0.3029  0.0062 -0.1699
   73SLPC     N 6377   3.498   2.250  11.003 -0.2893  0.5336  0.0296
   73SLPC   C13 6378   3.505   2.127  11.084  0.2184  0.6057  0.0273
   73SLPC  H13A 6379   3.512   2.150  11.189  0.9130  0.2225  0.0764
   73SLPC  H13B 6380   3.422   2.059  11.076  2.2273 -2.0662  0.3209
   73SLPC  H13C 6381   3.599   2.079  11.060 -0.6741 -1.6015  0.6642
   73SLPC   C14 6382   3.485   2.214  10.859  0.6889  0.0472 -0.3357
   73SLPC  H14A 6383   3.506   2.306  10.804  0.1499  0.3889  0.0212
   73SLPC  H14B 6384   3.574   2.159  10.833  1.2633  1.1208 -0.7335
   73SLPC  H14C 6385   3.383   2.185  10.839  1.0328 -1.0232 -0.5804
   73SLPC   C15 6386   3.617   2.332  11.035  0.3737  0.0321  0.4009
   73SLPC  H15A 6387   3.630   2.359  11.139  2.0430  2.7793 -0.3969
   73SLPC  H15B 6388   3.705   2.282  10.999 -0.3704  0.5453 -2.3668
   73SLPC  H15C 6389   3.609   2.430  10.990  0.9681  0.5913  1.4621
   73SLPC   C12 6390   3.366   2.320  11.028  0.4343 -0.0083 -0.4706
   73SLPC  H12A 6391   3.290   2.256  10.985 -0.9437  0.3311  1.3479
   73SLPC  H12B 6392   3.368   2.413  10.973 -3.6861 -0.5285 -1.8165
   73SLPC   C11 6393   3.322   2.345  11.173  0.5902 -0.6756  0.3177
   73SLPC  H11A 6394   3.320   2.246  11.223  1.5045  0.5538  2.9566
   73SLPC  H11B 6395   3.216   2.376  11.188  0.0303 -0.2672 -3.3739
   73SLPC     P 6396   3.418   2.582  11.250 -0.1774 -0.1598 -0.6227
   73SLPC   O13 6397   3.359   2.636  11.372  0.3063  0.5818  0.4277
   73SLPC   O14 6398   3.556   2.622  11.224  0.0460  0.3275 -0.3382
   73SLPC   O12 6399   3.418   2.425  11.242  0.3954  0.2179 -0.3200
   73SLPC   O11 6400   3.325   2.619  11.132  0.3287  0.5928  0.4341
   73SLPC    C1 6401   3.310   2.752  11.082  0.0709  0.1025 -0.1542
   73SLPC    HA 6402   3.200   2.769  11.088  0.1671  1.1287 -0.9326
   73SLPC    HB 6403   3.352   2.828  11.151 -0.3650 -1.2435  1.6890
   73SLPC    C2 6404   3.354   2.758  10.935  0.5176 -0.0704  0.3016
   73SLPC    HS 6405   3.340   2.857  10.886  0.7788 -1.2128 -2.2620
   73SLPC   O21 6406   3.283   2.664  10.850  0.6805  0.0445 -0.5090
   73SLPC   C21 6407   3.167   2.702  10.811 -0.0099  0.4794  0.5588
   73SLPC   O22 6408   3.117   2.810  10.823  0.2739  0.3317  0.3754
   73SLPC   C22 6409   3.095   2.569  10.769  0.3887 -0.4032 -0.1295
   73SLPC   H2R 6410   3.139   2.484  10.824  0.2723 -1.8964 -2.2119
   73SLPC   H2S 6411   2.988   2.584  10.794  0.5185  2.8886 -1.0166
   73SLPC    C3 6412   3.505   2.722  10.911  0.5587  0.4633 -0.5476
   73SLPC    HX 6413   3.523   2.619  10.951  1.9025  0.0990 -2.0127
   73SLPC    HY 6414   3.563   2.783  10.984  0.0049 -1.6727  1.8446
   73SLPC   O31 6415   3.546   2.726  10.767 -0.0851 -0.0879 -0.4152
   73SLPC   C31 6416   3.548   2.610  10.704 -0.4276 -0.1346 -0.8410
   73SLPC   O32 6417   3.538   2.501  10.753 -0.2862  0.2277 -0.4310
   73SLPC   C32 6418   3.562   2.638  10.557 -0.3270 -0.6789 -0.4095
   73SLPC   H2X 6419   3.667   2.661  10.531  0.3130 -0.2428  2.2698
   73SLPC   H2Y 6420   3.505   2.732  10.543  0.1721 -0.4682 -1.0760
   73SLPC   C23 6421   3.097   2.533  10.618 -0.3971 -0.4453  0.2721
   73SLPC   H3R 6422   3.041   2.437  10.609 -1.2411 -0.0164  0.7806
   73SLPC   H3S 6423   3.194   2.523  10.565  0.0677  0.4421  0.9339
   73SLPC   C24 6424   3.013   2.635  10.542  0.4723 -0.1162 -0.4510
   73SLPC   H4R 6425   3.040   2.740  10.566 -1.0734  0.2385 -0.1711
   73SLPC   H4S 6426   2.906   2.630  10.570  0.1975  0.6309 -1.3174
   73SLPC   C25 6427   3.032   2.607  10.390  0.2976 -0.1028 -0.1027
   73SLPC   H5R 6428   3.139   2.623  10.362  0.0120 -0.5611 -1.5135
   73SLPC   H5S 6429   2.982   2.683  10.327  0.6610  0.4751  0.2902
   73SLPC   C26 6430   2.978   2.470  10.348  0.8093  0.3514 -0.1253
   73SLPC   H6R 6431   2.876   2.456  10.390 -0.0706  0.4641 -2.1437
   73SLPC   H6S 6432   3.038   2.386  10.388 -0.1403 -0.7197 -0.8837
   73SLPC   C27 6433   2.968   2.457  10.198 -0.0297 -0.3241  0.4508
   73SLPC   H7R 6434   3.065   2.473  10.147  0.0976  0.5182  0.9414
   73SLPC   H7S 6435   2.907   2.543  10.165 -0.1370 -0.8074 -0.6421
   73SLPC   C28 6436   2.925   2.320  10.151  0.6466 -0.5310  0.1562
   73SLPC   H8R 6437   2.860   2.348  10.065  3.3284 -0.0235 -1.8338
   73SLPC   H8S 6438   2.863   2.282  10.235  0.8514 -0.7133  0.2268
   73SLPC   C29 6439   3.025   2.219  10.115 -0.3009 -0.1955  0.1001
   73SLPC   H9R 6440   3.091   2.201  10.201 -2.0904  1.8015  2.0086
   73SLPC  C210 6441   3.048   2.159   9.995  0.1081  0.0697 -0.2433
   73SLPC  H10R 6442   3.128   2.083  10.000  0.1978  0.0830 -1.3096
   73SLPC  C211 6443   2.980   2.166   9.861 -0.1917  0.1690  0.3691
   73SLPC  H11R 6444   2.921   2.259   9.842  1.1230  0.6798 -1.4587
   73SLPC  H11S 6445   2.908   2.083   9.849 -0.0176  0.0550  0.1134
   73SLPC  C212 6446   3.084   2.153   9.751 -0.2415 -0.3041 -0.7715
   73SLPC  H12R 6447   3.189   2.145   9.783 -0.4025  0.7545  0.0761
   73SLPC  C213 6448   3.053   2.152   9.622  0.3969  0.2655 -0.0106
   73SLPC  H13R 6449   3.132   2.158   9.545 -0.3990 -2.7013 -1.1813
   73SLPC  C214 6450   2.910   2.165   9.574  0.3643  0.3287  0.2874
   73SLPC  H14R 6451   2.842   2.227   9.636 -0.3345  0.1832 -0.3159
   73SLPC  H14S 6452   2.860   2.067   9.560 -0.7494  0.5859  2.0915
   73SLPC  C215 6453   2.922   2.231   9.432  0.4187 -0.4364 -0.2142
   73SLPC  H15R 6454   2.989   2.174   9.364  1.3222 -0.7469  0.9049
   73SLPC  H15S 6455   2.967   2.331   9.451  0.8976 -0.4882 -1.0196
   73SLPC  C216 6456   2.791   2.255   9.357 -0.6815 -0.3629  0.2079
   73SLPC  H16R 6457   2.758   2.156   9.318  0.7926 -1.3003  1.2429
   73SLPC  H16S 6458   2.811   2.309   9.262 -3.2295  0.4704  0.0791
   73SLPC  C217 6459   2.683   2.334   9.435  0.0810 -0.5943 -0.0340
   73SLPC  H17R 6460   2.722   2.425   9.486 -0.5275 -0.7246  0.6845
   73SLPC  H17S 6461   2.651   2.266   9.517  0.1110 -1.4189 -0.6960
   73SLPC  C218 6462   2.555   2.370   9.356 -0.5940  0.0323 -0.4503
   73SLPC  H18R 6463   2.487   2.432   9.418 -1.8532  0.3371 -2.0656
   73SLPC  H18S 6464   2.508   2.271   9.336  1.1581 -0.6907 -1.2019
   73SLPC  H18T 6465   2.576   2.428   9.264 -1.4267  1.0287 -0.0267
   73SLPC   C33 6466   3.487   2.539  10.467  0.3057  0.2359  0.4475
   73SLPC   H3X 6467   3.380   2.537  10.499  0.2131  0.9965  0.1976
   73SLPC   H3Y 6468   3.523   2.434  10.477 -1.1630 -0.4996 -1.3229
   73SLPC   C34 6469   3.491   2.582  10.321  0.3789  0.8101 -0.4464
   73SLPC   H4X 6470   3.590   2.583  10.269  0.5520 -0.9570 -0.2410
   73SLPC   H4Y 6471   3.449   2.684  10.316  0.9587  1.0577 -0.4044
   73SLPC   C35 6472   3.400   2.493  10.227 -0.0149  0.1768 -0.8503
   73SLPC   H5X 6473   3.299   2.471  10.266  0.4472 -0.5256 -0.0202
   73SLPC   H5Y 6474   3.454   2.398  10.205  1.3019  0.2955  1.5631
   73SLPC   C36 6475   3.391   2.568  10.092 -0.2412 -0.3234 -1.7694
   73SLPC   H6X 6476   3.494   2.595  10.059  0.7101  1.8368  2.2740
   73SLPC   H6Y 6477   3.363   2.675  10.106  0.0818 -0.3704 -0.7258
   73SLPC   C37 6478   3.308   2.504   9.982  0.2553  0.2864 -0.0693
   73SLPC   H7X 6479   3.199   2.506  10.004  0.1851  0.1776 -0.3981
   73SLPC   H7Y 6480   3.335   2.396   9.975 -2.7951 -0.5355 -0.9457
   73SLPC   C38 6481   3.334   2.579   9.850 -0.3691  0.4535  0.3390
   73SLPC   H8X 6482   3.442   2.572   9.826 -0.7200  0.7015 -1.5032
   73SLPC   H8Y 6483   3.304   2.683   9.872 -0.1575  1.0779 -1.9757
   73SLPC   C39 6484   3.253   2.517   9.729 -0.0486  0.0116  0.1218
   73SLPC   H9X 6485   3.148   2.511   9.765  0.2242  1.6625  1.3100
   73SLPC   H9Y 6486   3.293   2.418   9.699  0.4039  0.4888 -0.9011
   73SLPC  C310 6487   3.251   2.609   9.613 -0.9579  0.4604 -0.0960
   73SLPC  H10X 6488   3.351   2.632   9.571 -0.3974 -0.0026  0.9418
   73SLPC  H10Y 6489   3.219   2.710   9.647 -1.7172  0.6069 -1.1865
   73SLPC  C311 6490   3.153   2.565   9.499  0.0231 -0.3319  0.4216
   73SLPC  H11X 6491   3.048   2.564   9.537 -0.3515 -0.9501 -0.5707
   73SLPC  H11Y 6492   3.178   2.463   9.463  1.3323 -0.3673  1.3772
   73SLPC  C312 6493   3.153   2.662   9.384  0.1500  0.2292  0.3671
   73SLPC  H12X 6494   3.253   2.665   9.335 -0.4924  2.8262 -0.9873
   73SLPC  H12Y 6495   3.142   2.766   9.423 -0.8033  0.1320  0.3867
   73SLPC  C313 6496   3.052   2.626   9.275 -0.8534  0.3356 -0.2254
   73SLPC  H13X 6497   3.051   2.516   9.260 -0.3928 -0.0877  2.4221
   73SLPC  H13Y 6498   3.090   2.674   9.182 -0.4983  0.9964  0.2546
   73SLPC  C314 6499   2.905   2.662   9.303 -0.0552  0.4811 -0.1336
   73SLPC  H14X 6500   2.867   2.624   9.400 -0.5885 -0.2982 -0.6382
   73SLPC  H14Y 6501   2.837   2.611   9.231  1.0062  1.3825 -1.8600
   73SLPC  C315 6502   2.880   2.808   9.306  0.3255  0.4838 -0.1185
   73SLPC  H15X 6503   2.960   2.850   9.371  0.2021 -2.4632  2.1739
   73SLPC  H15Y 6504   2.785   2.816   9.363  0.2155 -0.7287 -0.0939
   73SLPC  C316 6505   2.871   2.884   9.176  1.1616 -0.2784  0.8392
   73SLPC  H16X 6506   2.873   2.809   9.094  1.3278  1.6974 -1.0155
   73SLPC  H16Y 6507   2.963   2.942   9.156  1.9931 -2.0283 -0.7865
   73SLPC  C317 6508   2.744   2.971   9.164 -0.5274  0.9397 -0.8708
   73SLPC  H17X 6509   2.737   3.054   9.238 -1.7769 -0.1156  0.2375
   73SLPC  H17Y 6510   2.658   2.903   9.180 -0.1315  0.6092 -0.1236
   73SLPC  C318 6511   2.736   3.031   9.021  0.5548  0.2450  0.1004
   73SLPC  H18X 6512   2.634   3.074   9.020 -0.0610 -1.1491 -2.0105
   73SLPC  H18Y 6513   2.746   2.961   8.936 -1.1362  1.3239 -1.0553
   73SLPC  H18Z 6514   2.802   3.119   9.000  2.2182 -1.4992 -2.5550
   74SLPC     N 6515   4.096   3.642  10.958 -0.0370 -0.0402 -0.1446
   74SLPC   C13 6516   4.157   3.774  10.911  0.4381 -0.0787  0.4616
   74SLPC  H13A 6517   4.265   3.773  10.906  0.5158  1.8033  0.8803
   74SLPC  H13B 6518   4.128   3.797  10.810 -1.1374 -2.3594  0.3243
   74SLPC  H13C 6519   4.126   3.859  10.970  2.5401  1.1589 -0.1007
   74SLPC   C14 6520   3.954   3.656  10.989 -0.2597  0.4831  0.1312
   74SLPC  H14A 6521   3.932   3.715  11.077  1.1907 -1.1966  1.6732
   74SLPC  H14B 6522   3.898   3.705  10.910 -0.1824 -0.7276 -0.6917
   74SLPC  H14C 6523   3.909   3.558  10.993  0.8758 -0.0410  0.2034
   74SLPC   C15 6524   4.166   3.605  11.080  0.2729 -0.7502  0.9442
   74SLPC  H15A 6525   4.266   3.566  11.068  0.8022  0.6837  0.5013
   74SLPC  H15B 6526   4.172   3.680  11.157 -1.7063  1.8878 -1.2449
   74SLPC  H15C 6527   4.109   3.531  11.134 -0.5104 -0.1108  1.0158
   74SLPC   C12 6528   4.115   3.536  10.853 -0.1368  0.4745  0.3822
   74SLPC  H12A 6529   4.077   3.441  10.887  0.6818 -0.1093 -0.2843
   74SLPC  H12B 6530   4.218   3.504  10.841 -0.4185 -1.0000  1.7001
   74SLPC   C11 6531   4.045   3.558  10.718 -0.5291  0.2902  0.8077
   74SLPC  H11A 6532   3.936   3.547  10.731 -0.4295  0.3764  1.8104
   74SLPC  H11B 6533   4.060   3.477  10.643 -2.4189  1.5163 -0.9700
   74SLPC     P 6534   3.971   3.782  10.597  0.1910 -0.3977 -0.1223
   74SLPC   O13 6535   3.838   3.744  10.658 -0.2952  0.1138 -0.9692
   74SLPC   O14 6536   4.023   3.925  10.621 -0.0937  0.6158 -0.5158
   74SLPC   O12 6537   4.081   3.680  10.656  0.0312  0.1666 -0.5399
   74SLPC   O11 6538   3.978   3.752  10.441 -0.2533  0.1443 -0.4078
   74SLPC    C1 6539   4.014   3.626  10.382  0.2081 -0.0733  0.3160
   74SLPC    HA 6540   3.984   3.543  10.450 -0.5068  1.0274  1.3675
   74SLPC    HB 6541   3.962   3.611  10.286  1.1061 -1.0824 -0.0406
   74SLPC    C2 6542   4.169   3.596  10.361 -0.0608 -0.2932  0.5751
   74SLPC    HS 6543   4.209   3.661  10.441  0.4828  0.3066 -0.1706
   74SLPC   O21 6544   4.196   3.629  10.224  1.0206 -0.3423  0.0578
   74SLPC   C21 6545   4.318   3.664  10.195 -0.4412 -0.0161 -0.0165
   74SLPC   O22 6546   4.417   3.664  10.266 -0.0876  0.5412 -0.1740
   74SLPC   C22 6547   4.312   3.691  10.045  0.3913  0.4853 -0.1531
   74SLPC   H2R 6548   4.272   3.596  10.005  1.5563 -0.5466  1.0227
   74SLPC   H2S 6549   4.240   3.773  10.026 -2.6551 -1.8334  0.5189
   74SLPC    C3 6550   4.199   3.449  10.378 -0.4954  0.1060 -0.2003
   74SLPC    HX 6551   4.190   3.425  10.487 -2.2551 -1.2064 -0.5821
   74SLPC    HY 6552   4.304   3.430  10.348 -0.1882 -0.3644  1.0730
   74SLPC   O31 6553   4.107   3.358  10.309 -0.0306  0.1801  0.2493
   74SLPC   C31 6554   4.117   3.327  10.183 -0.7492 -0.5499 -0.0843
   74SLPC   O32 6555   4.212   3.360  10.109  0.3852 -0.5276 -0.2797
   74SLPC   C32 6556   3.997   3.251  10.132  0.3621  0.1189 -0.3558
   74SLPC   H2X 6557   3.906   3.306  10.165  0.5049 -0.6635  1.4491
   74SLPC   H2Y 6558   4.010   3.153  10.182  1.8136  0.0090 -0.9060
   74SLPC   C23 6559   4.447   3.712   9.978  0.1796 -0.6428  0.0137
   74SLPC   H3R 6560   4.518   3.637  10.019  1.8939  0.5836 -0.5942
   74SLPC   H3S 6561   4.492   3.808  10.012  0.5495 -0.9920  0.5209
   74SLPC   C24 6562   4.455   3.704   9.825  0.5241 -0.4227 -0.7490
   74SLPC   H4R 6563   4.369   3.761   9.784  0.4269  0.1910  0.2852
   74SLPC   H4S 6564   4.445   3.597   9.796 -1.2359 -0.6053  0.3754
   74SLPC   C25 6565   4.575   3.765   9.766 -0.3660 -0.4952 -0.2174
   74SLPC   H5R 6566   4.658   3.691   9.779  0.8122  0.8211 -0.0142
   74SLPC   H5S 6567   4.616   3.840   9.837  0.6341 -1.2050 -0.0126
   74SLPC   C26 6568   4.570   3.820   9.625  0.3493  0.4546  0.1136
   74SLPC   H6R 6569   4.636   3.908   9.610  1.1526  0.4698  3.0435
   74SLPC   H6S 6570   4.470   3.861   9.600 -0.0239 -0.9385 -0.7756
   74SLPC   C27 6571   4.615   3.706   9.522 -0.1421  0.3747 -0.4527
   74SLPC   H7R 6572   4.565   3.612   9.553  2.4855 -0.6336  1.0384
   74SLPC   H7S 6573   4.725   3.693   9.527  0.0454  2.0461  0.3676
   74SLPC   C28 6574   4.595   3.747   9.374  0.1902 -0.0450  0.3633
   74SLPC   H8R 6575   4.669   3.829   9.364 -1.4008  1.3623 -0.2132
   74SLPC   H8S 6576   4.494   3.790   9.360 -0.2768 -1.6163 -1.6530
   74SLPC   C29 6577   4.624   3.635   9.277  0.4728 -0.3133  0.6483
   74SLPC   H9R 6578   4.576   3.541   9.308  2.1463 -0.5804  2.6336
   74SLPC  C210 6579   4.684   3.646   9.158 -0.5861 -0.1729 -0.0321
   74SLPC  H10R 6580   4.696   3.560   9.091 -2.3023 -1.8193  1.6639
   74SLPC  C211 6581   4.747   3.777   9.111  0.0630 -0.8372 -0.8818
   74SLPC  H11R 6582   4.825   3.813   9.181  0.6033  0.6349 -2.1922
   74SLPC  H11S 6583   4.677   3.862   9.115 -0.7920 -1.5731  1.9136
   74SLPC  C212 6584   4.816   3.771   8.975  0.2298  0.0655  0.1489
   74SLPC  H12R 6585   4.926   3.770   8.977  0.2500  1.3478  0.9487
   74SLPC  C213 6586   4.762   3.809   8.854  0.4858  0.7258  0.7434
   74SLPC  H13R 6587   4.815   3.784   8.761 -1.1891 -0.7151  0.1208
   74SLPC  C214 6588   4.621   3.844   8.831 -0.6534  0.5566 -0.0431
   74SLPC  H14R 6589   4.619   3.881   8.726  1.3376 -1.3322 -0.8162
   74SLPC  H14S 6590   4.585   3.935   8.885 -2.4142  0.0453 -0.2987
   74SLPC  C215 6591   4.516   3.734   8.841 -0.1115 -0.3589  0.2570
   74SLPC  H15R 6592   4.503   3.708   8.948 -1.8867 -0.5320  0.0239
   74SLPC  H15S 6593   4.551   3.640   8.793  0.8706  1.0252 -1.8999
   74SLPC  C216 6594   4.369   3.766   8.801 -0.3937  0.0461 -0.3791
   74SLPC  H16R 6595   4.361   3.794   8.693 -1.0039 -3.0671 -1.2451
   74SLPC  H16S 6596   4.340   3.856   8.858  0.7412 -1.3283  2.5723
   74SLPC  C217 6597   4.261   3.660   8.829  0.7019  0.2459 -0.6074
   74SLPC  H17R 6598   4.159   3.699   8.808 -0.0361 -0.7657  0.9057
   74SLPC  H17S 6599   4.259   3.623   8.934 -2.3807 -0.4211 -0.8150
   74SLPC  C218 6600   4.291   3.529   8.751  0.3550 -0.1358  0.4213
   74SLPC  H18R 6601   4.209   3.456   8.761 -2.3724  2.8614  1.5646
   74SLPC  H18S 6602   4.377   3.475   8.796  0.8912  1.0052  0.8060
   74SLPC  H18T 6603   4.330   3.557   8.650  1.2521 -0.2198  0.7331
   74SLPC   C33 6604   3.997   3.244   9.973  0.1235  0.1311  0.1679
   74SLPC   H3X 6605   4.094   3.201   9.941 -0.1749 -0.9330  0.6220
   74SLPC   H3Y 6606   3.978   3.350   9.947  1.4318  1.5867  4.2962
   74SLPC   C34 6607   3.900   3.144   9.897  0.2478 -0.6275 -0.4069
   74SLPC   H4X 6608   3.794   3.177   9.900 -0.6287 -3.1924 -0.9454
   74SLPC   H4Y 6609   3.905   3.042   9.940  0.7243 -1.4356 -2.2793
   74SLPC   C35 6610   3.927   3.130   9.750 -0.2615 -0.3156  0.2846
   74SLPC   H5X 6611   4.031   3.097   9.730 -0.8084 -1.3430 -1.0626
   74SLPC   H5Y 6612   3.910   3.222   9.690 -0.8755 -0.9895 -0.6066
   74SLPC   C36 6613   3.829   3.025   9.680 -0.1282 -0.2593  0.9390
   74SLPC   H6X 6614   3.722   3.055   9.687  0.0754  0.7019  0.1954
   74SLPC   H6Y 6615   3.831   2.936   9.746  2.7310 -0.6032  0.5195
   74SLPC   C37 6616   3.887   2.985   9.543 -0.5621  0.0376 -0.9451
   74SLPC   H7X 6617   3.993   2.950   9.547 -0.4592  0.4776  0.6990
   74SLPC   H7Y 6618   3.888   3.073   9.475 -0.9799  0.2439 -0.6898
   74SLPC   C38 6619   3.815   2.872   9.473  0.2032 -0.1344 -0.5858
   74SLPC   H8X 6620   3.804   2.788   9.545  2.4336 -0.4679 -0.5578
   74SLPC   H8Y 6621   3.878   2.849   9.384  1.6349  0.3258  0.2725
   74SLPC   C39 6622   3.681   2.920   9.424  0.1414 -0.0978 -0.1425
   74SLPC   H9X 6623   3.685   2.994   9.341 -0.4924  2.6849  2.1714
   74SLPC   H9Y 6624   3.619   2.978   9.496 -0.6257 -0.7794 -0.2366
   74SLPC  C310 6625   3.595   2.807   9.366  0.0825  0.5711  0.4395
   74SLPC  H10X 6626   3.505   2.850   9.318  1.0956  3.4785  0.9183
   74SLPC  H10Y 6627   3.557   2.751   9.454 -1.0239  1.9599  0.9050
   74SLPC  C311 6628   3.668   2.709   9.275 -0.3728  0.3004  0.2234
   74SLPC  H11X 6629   3.755   2.662   9.325 -1.2041 -1.5774  0.0124
   74SLPC  H11Y 6630   3.704   2.762   9.184  0.3482 -1.0779 -0.3396
   74SLPC  C312 6631   3.578   2.600   9.233  0.1245 -0.4898 -0.1634
   74SLPC  H12X 6632   3.485   2.645   9.193 -0.1899 -0.0700  1.0166
   74SLPC  H12Y 6633   3.546   2.537   9.318 -1.6421 -0.5395 -0.8274
   74SLPC  C313 6634   3.641   2.521   9.118 -0.4976 -0.0409  0.4098
   74SLPC  H13X 6635   3.752   2.518   9.124 -0.5123  0.1728  0.8002
   74SLPC  H13Y 6636   3.625   2.558   9.014 -0.5168 -0.5541  0.2319
   74SLPC  C314 6637   3.603   2.373   9.126 -0.4109  0.3907  0.3557
   74SLPC  H14X 6638   3.503   2.350   9.083 -0.1316 -1.8749  0.7667
   74SLPC  H14Y 6639   3.604   2.334   9.230 -2.8305 -0.1210  0.2330
   74SLPC  C315 6640   3.708   2.274   9.065 -0.1467  1.0142 -0.4226
   74SLPC  H15X 6641   3.794   2.273   9.135  0.4741 -2.6104 -1.0377
   74SLPC  H15Y 6642   3.739   2.301   8.962 -0.8486 -0.2198 -0.9724
   74SLPC  C316 6643   3.652   2.128   9.066  0.3860 -0.0082 -0.3055
   74SLPC  H16X 6644   3.576   2.118   8.986  1.0461  0.0939 -0.9549
   74SLPC  H16Y 6645   3.602   2.118   9.165  0.5232  0.4870 -0.1864
   74SLPC  C317 6646   3.767   2.030   9.043  0.0815 -0.0006 -0.1289
   74SLPC  H17X 6647   3.835   2.041   9.130 -0.6268  0.9868  0.3264
   74SLPC  H17Y 6648   3.818   2.049   8.946 -2.9696 -0.2375 -1.9153
   74SLPC  C318 6649   3.718   1.888   9.033 -0.5095  0.2278  0.1256
   74SLPC  H18X 6650   3.633   1.876   8.963  0.2164  0.5279 -0.8326
   74SLPC  H18Y 6651   3.678   1.854   9.131  0.1842  0.3510  0.4570
   74SLPC  H18Z 6652   3.803   1.820   9.009 -0.1034  1.3435 -1.8187
   75SLPC     N 6653   0.398   0.711   6.564 -0.2758 -0.3606  0.0466
   75SLPC   C13 6654   0.366   0.602   6.660 -0.3233 -0.1035 -0.1818
   75SLPC  H13A 6655   0.261   0.583   6.642 -0.2033 -2.0939  0.9007
   75SLPC  H13B 6656   0.419   0.510   6.642 -0.2576  0.1876 -1.6365
   75SLPC  H13C 6657   0.373   0.636   6.762  0.4585 -0.5574 -0.0802
   75SLPC   C14 6658   0.374   0.662   6.422  0.5664 -0.4507  0.0443
   75SLPC  H14A 6659   0.276   0.617   6.420 -0.6113  1.6205  3.1210
   75SLPC  H14B 6660   0.378   0.739   6.347  1.3532 -0.2918  0.2384
   75SLPC  H14C 6661   0.434   0.576   6.397  1.1125  0.1569 -0.8055
   75SLPC   C15 6662   0.539   0.732   6.595 -0.6923 -0.0820  0.3197
   75SLPC  H15A 6663   0.586   0.794   6.519 -0.3716 -0.6923  0.0166
   75SLPC  H15B 6664   0.548   0.778   6.693 -1.3752  3.3590 -1.0875
   75SLPC  H15C 6665   0.585   0.635   6.596  0.5933  0.4635 -1.1043
   75SLPC   C12 6666   0.314   0.836   6.595  0.2650  0.1821  0.5208
   75SLPC  H12A 6667   0.364   0.914   6.539  0.7243 -1.2446 -1.1612
   75SLPC  H12B 6668   0.320   0.846   6.702  3.2479  0.8515  0.3652
   75SLPC   C11 6669   0.162   0.844   6.551  0.1114 -0.4245  0.4787
   75SLPC  H11A 6670   0.167   0.847   6.441  2.4971  0.5230  0.5467
   75SLPC  H11B 6671   0.123   0.944   6.583 -0.3662 -0.3609 -0.2793
   75SLPC     P 6672  -0.024   0.757   6.706 -0.2613  0.5011 -0.4935
   75SLPC   O13 6673  -0.071   0.898   6.696  0.2727  0.3713  0.1936
   75SLPC   O14 6674  -0.124   0.648   6.696 -0.3084 -0.3142 -0.2603
   75SLPC   O12 6675   0.091   0.735   6.603 -0.1442 -0.1193 -0.3052
   75SLPC   O11 6676   0.057   0.726   6.834 -0.0147  0.6782 -0.3982
   75SLPC    C1 6677   0.094   0.593   6.878  0.4857 -0.0003 -0.2725
   75SLPC    HA 6678   0.059   0.515   6.807 -1.2691 -1.4586  2.0572
   75SLPC    HB 6679   0.202   0.579   6.902 -0.1097  0.0951  2.7323
   75SLPC    C2 6680   0.038   0.556   7.009 -0.4854 -0.3252 -0.4060
   75SLPC    HS 6681  -0.064   0.516   6.991 -0.0417 -1.5773 -0.2389
   75SLPC   O21 6682   0.052   0.667   7.098 -0.4787 -0.0360  0.2714
   75SLPC   C21 6683  -0.050   0.752   7.100  0.2828  0.1951 -0.1316
   75SLPC   O22 6684  -0.154   0.731   7.041 -0.1734 -0.2226  1.1142
   75SLPC   C22 6685  -0.005   0.871   7.185  0.4789 -1.4808  0.0672
   75SLPC   H2R 6686   0.096   0.888   7.143  0.4964  1.1497  1.0165
   75SLPC   H2S 6687  -0.071   0.959   7.170  0.2413 -1.6395  0.1797
   75SLPC    C3 6688   0.110   0.434   7.071 -0.0217  0.0285 -0.4264
   75SLPC    HX 6689   0.220   0.440   7.087  0.0571 -2.6205  0.5459
   75SLPC    HY 6690   0.091   0.358   6.992 -0.0997  1.7614 -2.1741
   75SLPC   O31 6691   0.047   0.405   7.199  0.1555 -0.4897  0.0483
   75SLPC   C31 6692   0.090   0.299   7.261 -0.2303  0.5103 -0.3421
   75SLPC   O32 6693   0.171   0.218   7.216  0.5859  0.3750 -0.5242
   75SLPC   C32 6694   0.051   0.315   7.411  0.1594 -0.8274 -0.5327
   75SLPC   H2X 6695  -0.060   0.312   7.417  0.1168 -0.3510 -1.0708
   75SLPC   H2Y 6696   0.089   0.412   7.450 -2.2864 -0.3502  0.9176
   75SLPC   C23 6697   0.018   0.834   7.333  0.3707 -0.0872 -0.3077
   75SLPC   H3R 6698   0.103   0.891   7.376 -0.6999 -0.9354  3.3637
   75SLPC   H3S 6699   0.046   0.726   7.336 -1.3597 -0.5686 -0.2609
   75SLPC   C24 6700  -0.098   0.842   7.423 -0.2146 -0.3084 -0.7844
   75SLPC   H4R 6701  -0.188   0.791   7.383 -2.0397  0.7474  1.7070
   75SLPC   H4S 6702  -0.125   0.950   7.424 -0.7273 -0.3511 -3.3537
   75SLPC   C25 6703  -0.070   0.793   7.569  0.5449 -0.9940  0.0310
   75SLPC   H5R 6704  -0.164   0.800   7.627  0.2531  0.2089 -0.5571
   75SLPC   H5S 6705  -0.004   0.865   7.622  0.9474 -1.0715 -0.3601
   75SLPC   C26 6706  -0.002   0.659   7.577 -0.0242 -0.0548 -0.2869
   75SLPC   H6R 6707   0.105   0.682   7.554  0.1583 -0.4302  0.1717
   75SLPC   H6S 6708  -0.038   0.582   7.506  1.7803 -1.0679 -0.1735
   75SLPC   C27 6709   0.007   0.605   7.719  0.4431  0.1703 -0.2366
   75SLPC   H7R 6710   0.027   0.678   7.800 -1.6040  0.5398 -0.0037
   75SLPC   H7S 6711   0.081   0.522   7.716  0.5897  0.3305 -1.0505
   75SLPC   C28 6712  -0.131   0.545   7.759 -0.3541 -0.0242  0.3167
   75SLPC   H8R 6713  -0.179   0.484   7.679 -0.8677 -2.4426  2.3429
   75SLPC   H8S 6714  -0.195   0.631   7.788 -0.3160 -0.5742  2.1368
   75SLPC   C29 6715  -0.105   0.460   7.879  0.6546  0.4170  0.1363
   75SLPC   H9R 6716  -0.052   0.364   7.869  1.9526  0.9123  1.7967
   75SLPC  C210 6717  -0.153   0.487   8.003  0.0296  0.5850 -0.2462
   75SLPC  H10R 6718  -0.111   0.427   8.085  0.5467 -0.3064 -1.1434
   75SLPC  C211 6719  -0.234   0.611   8.048 -0.0666  0.2460  0.0945
   75SLPC  H11R 6720  -0.309   0.582   8.125 -0.9395  1.2557 -0.3400
   75SLPC  H11S 6721  -0.304   0.643   7.968 -1.3683  1.6258  1.6874
   75SLPC  C212 6722  -0.141   0.723   8.092 -0.6764  0.4580  0.2813
   75SLPC  H12R 6723  -0.078   0.778   8.020  0.2306  1.2311  1.6027
   75SLPC  C213 6724  -0.102   0.769   8.212 -0.4406  0.0460 -0.6054
   75SLPC  H13R 6725  -0.051   0.866   8.210 -0.7088  0.1793 -2.4932
   75SLPC  C214 6726  -0.149   0.719   8.349  0.4842 -0.2310  0.1861
   75SLPC  H14R 6727  -0.060   0.727   8.415 -0.1895  0.4145  1.0390
   75SLPC  H14S 6728  -0.188   0.615   8.345  1.4402 -0.6886  1.8141
   75SLPC  C215 6729  -0.259   0.804   8.414  0.6409  0.3617 -0.1176
   75SLPC  H15R 6730  -0.272   0.775   8.520  0.9215  0.4129 -0.0698
   75SLPC  H15S 6731  -0.351   0.788   8.354  0.9919  1.6572 -1.0658
   75SLPC  C216 6732  -0.231   0.959   8.426  0.0837 -0.0353  0.4992
   75SLPC  H16R 6733  -0.244   1.000   8.324  1.7874 -1.0674 -0.1819
   75SLPC  H16S 6734  -0.127   0.976   8.461 -0.8045  0.0115  3.3773
   75SLPC  C217 6735  -0.325   1.033   8.512 -0.2044 -0.1523 -0.1923
   75SLPC  H17R 6736  -0.431   1.000   8.507 -1.2219  2.4555  1.5067
   75SLPC  H17S 6737  -0.330   1.139   8.480 -1.8607 -0.3916 -0.8564
   75SLPC  C218 6738  -0.289   1.023   8.662 -0.3334 -0.1429  0.5574
   75SLPC  H18R 6739  -0.185   1.059   8.681  0.0713 -2.0286  2.2611
   75SLPC  H18S 6740  -0.281   0.917   8.692  2.7285  0.7862  3.7516
   75SLPC  H18T 6741  -0.363   1.081   8.722  1.1397  1.8041  0.5843
   75SLPC   C33 6742   0.111   0.195   7.493 -0.4302 -0.1213 -0.6801
   75SLPC   H3X 6743   0.076   0.100   7.447 -0.5723 -0.6690  0.5185
   75SLPC   H3Y 6744   0.222   0.192   7.492 -0.3985  0.1272  0.5244
   75SLPC   C34 6745   0.056   0.200   7.637  0.3439 -1.2187 -0.6475
   75SLPC   H4X 6746  -0.051   0.169   7.632 -0.2669  0.4919  0.5216
   75SLPC   H4Y 6747   0.063   0.303   7.679  3.1734 -2.5833  2.6993
   75SLPC   C35 6748   0.141   0.101   7.725 -0.6803 -0.4886  0.7467
   75SLPC   H5X 6749   0.246   0.102   7.687 -1.1046 -0.3809 -0.4685
   75SLPC   H5Y 6750   0.116  -0.004   7.700 -1.4184  0.7079 -4.7508
   75SLPC   C36 6751   0.136   0.132   7.874 -0.0169 -0.0506 -0.9259
   75SLPC   H6X 6752   0.151   0.238   7.905 -1.0482 -0.6532  1.9635
   75SLPC   H6Y 6753   0.226   0.088   7.922  1.9452  1.4697 -3.0308
   75SLPC   C37 6754   0.002   0.082   7.933  0.0770 -0.1231  0.9131
   75SLPC   H7X 6755  -0.009  -0.022   7.897  0.1285 -0.0455  0.6742
   75SLPC   H7Y 6756  -0.080   0.141   7.887  0.0237 -1.4207 -0.7367
   75SLPC   C38 6757  -0.001   0.086   8.083  0.0003 -0.2832  0.1216
   75SLPC   H8X 6758   0.019   0.189   8.117 -0.6947 -0.2204  0.3562
   75SLPC   H8Y 6759   0.085   0.025   8.117 -0.6685 -2.3936 -1.7054
   75SLPC   C39 6760  -0.126   0.023   8.153 -0.1142 -0.1883  0.0019
   75SLPC   H9X 6761  -0.120  -0.087   8.139 -1.6434 -0.4500  1.1377
   75SLPC   H9Y 6762  -0.213   0.047   8.088  0.5675 -1.0941 -1.2959
   75SLPC  C310 6763  -0.166   0.064   8.293 -0.0797 -0.0473  0.2809
   75SLPC  H10X 6764  -0.082   0.044   8.363  0.2680 -2.1132 -0.6541
   75SLPC  H10Y 6765  -0.251   0.004   8.330 -0.2580 -0.1011 -0.2107
   75SLPC  C311 6766  -0.215   0.208   8.296 -0.1330  0.6855  0.2076
   75SLPC  H11X 6767  -0.307   0.209   8.233  0.9487 -1.1903 -1.5280
   75SLPC  H11Y 6768  -0.146   0.276   8.241 -1.2426  2.9805  1.5250
   75SLPC  C312 6769  -0.248   0.261   8.441  0.2374 -1.1645  0.5199
   75SLPC  H12X 6770  -0.154   0.309   8.478 -0.2139  1.4723 -1.4322
   75SLPC  H12Y 6771  -0.282   0.186   8.515 -2.9139 -1.1438 -0.7819
   75SLPC  C313 6772  -0.355   0.380   8.439  0.2656  0.8994  0.4892
   75SLPC  H13X 6773  -0.454   0.333   8.419  1.4398 -1.6080  0.1392
   75SLPC  H13Y 6774  -0.331   0.444   8.351  0.2490  0.9063  0.4888
   75SLPC  C314 6775  -0.353   0.461   8.574 -0.0758 -0.1062  0.4989
   75SLPC  H14X 6776  -0.441   0.528   8.560  1.5671  2.4692  1.8063
   75SLPC  H14Y 6777  -0.275   0.540   8.576 -0.0743 -0.0448 -0.9117
   75SLPC  C315 6778  -0.350   0.379   8.699  0.6406  0.0249 -0.5505
   75SLPC  H15X 6779  -0.254   0.326   8.717  1.1027  1.3535  1.2485
   75SLPC  H15Y 6780  -0.433   0.306   8.699 -0.1607  0.8951  0.5688
   75SLPC  C316 6781  -0.375   0.457   8.832 -0.2773  1.2525  0.3428
   75SLPC  H16X 6782  -0.453   0.535   8.818 -2.0360 -0.5163 -0.1155
   75SLPC  H16Y 6783  -0.286   0.517   8.861  1.0776 -1.2093  1.6050
   75SLPC  C317 6784  -0.411   0.365   8.946  0.5804 -0.0610 -1.0654
   75SLPC  H17X 6785  -0.350   0.276   8.973  0.9298  0.1450 -1.1740
   75SLPC  H17Y 6786  -0.511   0.318   8.932 -0.1119  0.4927  1.5777
   75SLPC  C318 6787  -0.421   0.445   9.077 -0.3854 -0.4508 -0.5440
   75SLPC  H18X 6788  -0.434   0.372   9.160  2.1022  0.1141  0.4060
   75SLPC  H18Y 6789  -0.502   0.521   9.077  2.0644  2.3430 -0.0667
   75SLPC  H18Z 6790  -0.321   0.489   9.094 -1.1111  1.7347 -1.5297
   76SLPC     N 6791   2.821   5.666   6.148  0.5333  0.7997 -0.0001
   76SLPC   C13 6792   2.947   5.738   6.170 -0.4275  0.2180  0.2264
   76SLPC  H13A 6793   2.945   5.768   6.274 -0.3955 -1.2482  0.6623
   76SLPC  H13B 6794   3.035   5.678   6.154  0.2212  1.0573  0.4872
   76SLPC  H13C 6795   2.941   5.834   6.120 -1.5465  1.9092  3.2905
   76SLPC   C14 6796   2.803   5.630   6.009 -0.4247 -0.9940  0.1100
   76SLPC  H14A 6797   2.878   5.563   5.970  1.4676  1.4307 -0.7263
   76SLPC  H14B 6798   2.713   5.572   5.996 -0.6610 -0.7545  0.6171
   76SLPC  H14C 6799   2.801   5.716   5.944  1.2225 -0.7075  0.3777
   76SLPC   C15 6800   2.709   5.760   6.180  0.1710  0.0839 -0.9253
   76SLPC  H15A 6801   2.716   5.792   6.283 -3.6478 -0.7786 -0.2367
   76SLPC  H15B 6802   2.714   5.847   6.116  1.3956 -0.1016 -1.0952
   76SLPC  H15C 6803   2.610   5.715   6.182 -0.1601  0.8061  0.7934
   76SLPC   C12 6804   2.812   5.540   6.241 -0.4241  0.5774 -0.0499
   76SLPC  H12A 6805   2.727   5.477   6.214  0.9182 -0.7373 -1.4205
   76SLPC  H12B 6806   2.804   5.563   6.346  1.9510 -1.2134  0.6082
   76SLPC   C11 6807   2.930   5.437   6.218 -0.0214 -0.0902 -0.2274
   76SLPC  H11A 6808   2.953   5.416   6.112  1.6685  2.6140 -0.4783
   76SLPC  H11B 6809   2.905   5.346   6.276  0.5335  0.5845  1.1113
   76SLPC     P 6810   3.080   5.505   6.424 -0.0334  0.6653 -0.1767
   76SLPC   O13 6811   2.986   5.419   6.496  0.5122 -0.2431 -0.1478
   76SLPC   O14 6812   3.228   5.490   6.441  0.2235 -0.2113  0.1029
   76SLPC   O12 6813   3.058   5.481   6.271  0.4801 -0.1951  0.2750
   76SLPC   O11 6814   3.036   5.654   6.458  0.2487 -0.6027  0.0146
   76SLPC    C1 6815   3.126   5.764   6.450 -0.2717  0.2744  0.1909
   76SLPC    HA 6816   3.206   5.741   6.375  0.0211  0.8985  0.3088
   76SLPC    HB 6817   3.074   5.858   6.422  0.4115  0.3360 -0.9398
   76SLPC    C2 6818   3.210   5.790   6.581  0.0019 -0.4345 -0.2332
   76SLPC    HS 6819   3.281   5.706   6.596  3.1718  2.4755  2.9040
   76SLPC   O21 6820   3.119   5.808   6.695  0.3961 -0.6226 -0.1057
   76SLPC   C21 6821   3.112   5.710   6.784 -0.0576 -0.3978  0.3209
   76SLPC   O22 6822   3.188   5.617   6.777 -0.5763 -0.3876 -0.2954
   76SLPC   C22 6823   3.010   5.751   6.895 -0.0688 -0.0021  0.0142
   76SLPC   H2R 6824   3.019   5.860   6.912  0.7935 -0.3740  2.3751
   76SLPC   H2S 6825   2.915   5.715   6.850  0.4200 -1.2883 -0.0424
   76SLPC    C3 6826   3.297   5.916   6.566  0.2707  0.0365  0.2162
   76SLPC    HX 6827   3.227   5.995   6.533 -0.2426 -0.7839 -0.7180
   76SLPC    HY 6828   3.365   5.905   6.478 -1.2737  0.2314 -1.0483
   76SLPC   O31 6829   3.379   5.951   6.678  0.6853 -0.0878  0.1244
   76SLPC   C31 6830   3.342   6.053   6.752 -0.3621  0.1588  0.8575
   76SLPC   O32 6831   3.254   6.134   6.725  0.3409 -0.0919 -0.4106
   76SLPC   C32 6832   3.446   6.064   6.872  0.5931 -0.3768  0.1052
   76SLPC   H2X 6833   3.522   6.138   6.839 -0.1788  0.5558  0.3449
   76SLPC   H2Y 6834   3.499   5.967   6.877  1.6763  0.2517  1.2085
   76SLPC   C23 6835   3.033   5.683   7.036 -0.5927 -0.1697  0.2984
   76SLPC   H3R 6836   3.141   5.663   7.051 -0.1890  0.9601 -0.8855
   76SLPC   H3S 6837   2.978   5.587   7.030  1.1011 -1.1438 -0.3943
   76SLPC   C24 6838   2.976   5.768   7.150 -0.0624 -0.1558 -0.0143
   76SLPC   H4R 6839   2.865   5.761   7.156 -0.1433  0.5403 -0.5964
   76SLPC   H4S 6840   3.005   5.874   7.140  0.3452  0.1325  3.2306
   76SLPC   C25 6841   3.027   5.717   7.281  0.1521  0.4860  0.2442
   76SLPC   H5R 6842   3.138   5.721   7.287  0.3343 -0.8820 -1.5970
   76SLPC   H5S 6843   2.987   5.614   7.293 -2.1299  1.3874  1.1349
   76SLPC   C26 6844   2.962   5.796   7.396  0.5426  0.0275  0.1479
   76SLPC   H6R 6845   2.853   5.785   7.375  0.8430 -1.5200 -0.7434
   76SLPC   H6S 6846   3.001   5.899   7.382  0.2364  0.0485 -0.5967
   76SLPC   C27 6847   3.001   5.744   7.538  0.7834 -0.7184 -0.1001
   76SLPC   H7R 6848   3.112   5.738   7.542  0.7282 -2.5881  3.9382
   76SLPC   H7S 6849   2.955   5.647   7.565 -1.3036  0.6017  1.3315
   76SLPC   C28 6850   2.959   5.835   7.654  0.0352  0.7967 -0.8396
   76SLPC   H8R 6851   2.987   5.941   7.638 -2.6388  2.1875  2.4569
   76SLPC   H8S 6852   2.848   5.832   7.647 -0.0079 -1.4267  0.1161
   76SLPC   C29 6853   3.009   5.799   7.797  0.4015  0.1228 -0.1516
   76SLPC   H9R 6854   3.111   5.759   7.806 -0.3978 -3.0299 -2.8851
   76SLPC  C210 6855   2.935   5.791   7.909 -0.0464 -0.8077 -0.1021
   76SLPC  H10R 6856   2.980   5.769   8.006 -0.8992 -2.1704  0.0155
   76SLPC  C211 6857   2.792   5.838   7.927 -0.6709  0.2216  0.0504
   76SLPC  H11R 6858   2.720   5.758   7.954 -0.5955  0.3860  0.7727
   76SLPC  H11S 6859   2.754   5.876   7.830  0.0151  0.2034 -0.2282
   76SLPC  C212 6860   2.790   5.959   8.020 -0.1099 -0.0690 -0.4582
   76SLPC  H12R 6861   2.867   6.032   7.991 -0.9268  0.9471 -0.1134
   76SLPC  C213 6862   2.701   5.983   8.125 -0.0143 -0.2214  0.2058
   76SLPC  H13R 6863   2.709   6.078   8.180  0.3853 -1.8649  3.1493
   76SLPC  C214 6864   2.588   5.905   8.179  0.7335  0.0443  0.7678
   76SLPC  H14R 6865   2.602   5.803   8.136 -3.1424  0.6016 -2.4857
   76SLPC  H14S 6866   2.489   5.930   8.133  1.8948  0.0731 -1.9227
   76SLPC  C215 6867   2.565   5.901   8.327 -0.4472  0.1168 -0.1981
   76SLPC  H15R 6868   2.462   5.872   8.358 -0.6376 -0.6100 -1.4230
   76SLPC  H15S 6869   2.592   6.000   8.368 -0.0374  0.6677 -1.6999
   76SLPC  C216 6870   2.653   5.797   8.396  0.5730  0.1341  1.1404
   76SLPC  H16R 6871   2.758   5.831   8.387  0.0860  1.0963 -2.3226
   76SLPC  H16S 6872   2.646   5.709   8.328  1.8259  1.6227 -1.0106
   76SLPC  C217 6873   2.628   5.766   8.543  0.1333  0.3735  0.3616
   76SLPC  H17R 6874   2.530   5.811   8.573 -0.0826 -1.3577  2.5031
   76SLPC  H17S 6875   2.700   5.814   8.613 -0.0891  1.1441  0.0790
   76SLPC  C218 6876   2.610   5.618   8.574 -0.4508 -0.0957  0.6571
   76SLPC  H18R 6877   2.518   5.572   8.534  0.1528 -1.3391  0.6544
   76SLPC  H18S 6878   2.611   5.596   8.682 -1.7016 -2.4628  0.2453
   76SLPC  H18T 6879   2.692   5.563   8.522 -1.4253 -2.6436  1.6774
   76SLPC   C33 6880   3.375   6.108   7.007  0.1991 -0.6160  0.0179
   76SLPC   H3X 6881   3.316   6.200   6.988 -0.8607 -1.6877 -2.2798
   76SLPC   H3Y 6882   3.461   6.124   7.075  0.5697 -1.3527 -0.2601
   76SLPC   C34 6883   3.282   6.011   7.073  0.3961  0.6451  0.1322
   76SLPC   H4X 6884   3.335   5.914   7.068  1.5035  1.1681  1.2200
   76SLPC   H4Y 6885   3.181   6.005   7.027  0.7855 -2.1377 -0.5435
   76SLPC   C35 6886   3.251   6.047   7.225  0.1741  0.7936 -0.0485
   76SLPC   H5X 6887   3.155   5.998   7.251  2.0410 -3.5891 -0.4336
   76SLPC   H5Y 6888   3.236   6.156   7.241 -0.2008  0.5511  1.3532
   76SLPC   C36 6889   3.347   5.991   7.332 -0.2750  0.1863  0.9700
   76SLPC   H6X 6890   3.449   6.031   7.315 -0.1390 -0.9139 -1.2432
   76SLPC   H6Y 6891   3.358   5.885   7.299  0.8008 -0.9844  4.6407
   76SLPC   C37 6892   3.319   5.993   7.481 -0.5642 -0.1905 -0.4403
   76SLPC   H7X 6893   3.386   5.922   7.534  1.7539  0.1262 -2.7639
   76SLPC   H7Y 6894   3.215   5.953   7.488 -0.6014 -0.3640 -1.6579
   76SLPC   C38 6895   3.338   6.135   7.536 -0.0041 -0.2537 -0.8967
   76SLPC   H8X 6896   3.310   6.213   7.463  1.7874  0.9124 -0.3846
   76SLPC   H8Y 6897   3.446   6.157   7.547  0.0620 -0.1014 -1.8359
   76SLPC   C39 6898   3.248   6.150   7.666 -0.2797  0.2393 -0.5037
   76SLPC   H9X 6899   3.292   6.091   7.748  1.2171  1.8532 -0.0908
   76SLPC   H9Y 6900   3.142   6.120   7.647 -0.4307  0.0271  0.6312
   76SLPC  C310 6901   3.255   6.277   7.734 -0.1312 -0.1040 -0.3309
   76SLPC  H10X 6902   3.245   6.360   7.660 -0.4680 -1.8758 -2.3785
   76SLPC  H10Y 6903   3.355   6.298   7.777 -1.3060  0.0106  2.5502
   76SLPC  C311 6904   3.154   6.301   7.848 -0.2998  0.0644 -0.2981
   76SLPC  H11X 6905   3.058   6.278   7.799  0.7144 -4.0289 -0.6799
   76SLPC  H11Y 6906   3.161   6.407   7.882  2.6591 -0.5848  1.5132
   76SLPC  C312 6907   3.168   6.208   7.972 -0.0234 -0.1341 -0.5945
   76SLPC  H12X 6908   3.275   6.229   7.994 -0.2553 -0.7828  1.3420
   76SLPC  H12Y 6909   3.170   6.099   7.947 -0.6355  0.0380 -1.4420
   76SLPC  C313 6910   3.080   6.240   8.092  0.2232  0.3451 -0.2279
   76SLPC  H13X 6911   3.117   6.164   8.164  0.0598 -1.4979 -2.0144
   76SLPC  H13Y 6912   2.974   6.217   8.065  0.6343  2.2915 -4.2036
   76SLPC  C314 6913   3.094   6.382   8.154 -0.0570 -0.0384 -0.0683
   76SLPC  H14X 6914   3.057   6.456   8.080  1.8149  0.4572 -0.5619
   76SLPC  H14Y 6915   3.196   6.415   8.186 -0.6525 -1.4501  3.8465
   76SLPC  C315 6916   3.000   6.389   8.269 -0.8292 -0.0601 -0.3918
   76SLPC  H15X 6917   2.903   6.361   8.221 -0.2295  1.3503 -2.5793
   76SLPC  H15Y 6918   3.005   6.494   8.307  0.4571  1.4859 -4.2897
   76SLPC  C316 6919   3.024   6.303   8.387 -0.5956  0.3579 -0.2524
   76SLPC  H16X 6920   3.028   6.364   8.479  0.8757  2.9496 -1.9260
   76SLPC  H16Y 6921   3.123   6.253   8.380 -0.4829  0.7187 -1.5246
   76SLPC  C317 6922   2.922   6.191   8.406  0.5836 -0.6804 -0.2500
   76SLPC  H17X 6923   2.930   6.130   8.313 -2.7808 -0.7247 -0.6357
   76SLPC  H17Y 6924   2.822   6.239   8.397 -0.1615 -2.2879 -1.0602
   76SLPC  C318 6925   2.941   6.096   8.526 -0.1994 -0.0004 -0.2737
   76SLPC  H18X 6926   2.919   6.140   8.626 -0.9281 -2.3450  0.6783
   76SLPC  H18Y 6927   3.049   6.072   8.528  0.3574  2.2130 -0.6689
   76SLPC  H18Z 6928   2.871   6.010   8.525 -2.3962  1.3577  4.5880
   77SLPC     N 6929   5.871   3.831   6.685  0.0971  0.8157  0.5618
   77SLPC   C13 6930   5.778   3.928   6.618 -0.9313 -0.4353  0.0680
   77SLPC  H13A 6931   5.677   3.909   6.650 -1.1989 -0.1961 -0.6094
   77SLPC  H13B 6932   5.805   4.031   6.634 -0.7828 -0.0767 -2.0913
   77SLPC  H13C 6933   5.788   3.924   6.510  2.8091 -0.4587  0.2886
   77SLPC   C14 6934   5.881   3.869   6.828  0.4676 -0.1595  0.5962
   77SLPC  H14A 6935   5.949   3.950   6.849  0.5318 -0.5041  1.8596
   77SLPC  H14B 6936   5.778   3.890   6.854  0.4802  4.6674 -2.1580
   77SLPC  H14C 6937   5.935   3.787   6.872 -0.7613 -0.6342  1.2952
   77SLPC   C15 6938   5.999   3.850   6.617 -0.3859 -0.6857 -0.5752
   77SLPC  H15A 6939   6.032   3.953   6.618  0.2308 -0.7642 -3.8565
   77SLPC  H15B 6940   6.076   3.784   6.654 -0.1990 -0.0529  0.1904
   77SLPC  H15C 6941   5.993   3.827   6.512  0.5874 -0.9467 -0.5771
   77SLPC   C12 6942   5.823   3.690   6.666  0.0742 -0.4258  0.2135
   77SLPC  H12A 6943   5.890   3.618   6.712 -0.5974 -1.4949 -0.4455
   77SLPC  H12B 6944   5.828   3.668   6.561  1.3815 -0.9611  0.3572
   77SLPC   C11 6945   5.689   3.649   6.737 -0.5992  0.0544  0.0618
   77SLPC  H11A 6946   5.704   3.651   6.847  0.6623 -0.2622 -0.0902
   77SLPC  H11B 6947   5.664   3.544   6.709  2.1541 -0.2548 -1.5257
   77SLPC     P 6948   5.437   3.690   6.672  0.4722  0.2314  0.2288
   77SLPC   O13 6949   5.418   3.707   6.530 -0.7160  0.5489  0.5542
   77SLPC   O14 6950   5.414   3.553   6.715 -0.2435  0.0799 -0.1802
   77SLPC   O12 6951   5.580   3.734   6.703 -0.1008  0.1657 -0.2942
   77SLPC   O11 6952   5.344   3.787   6.743 -0.0474 -1.1722 -0.2416
   77SLPC    C1 6953   5.363   3.926   6.784 -0.5716 -0.7780  0.0135
   77SLPC    HA 6954   5.415   3.984   6.705 -0.0446 -2.4718 -0.9308
   77SLPC    HB 6955   5.261   3.970   6.793 -0.3847  0.1373 -1.8126
   77SLPC    C2 6956   5.452   3.944   6.909 -0.4201  0.7431  0.1158
   77SLPC    HS 6957   5.549   3.905   6.874 -0.1301  1.3722  0.2040
   77SLPC   O21 6958   5.402   3.863   7.017 -0.1235 -0.4971 -0.4689
   77SLPC   C21 6959   5.498   3.793   7.080 -0.0318 -0.2843  0.5945
   77SLPC   O22 6960   5.614   3.829   7.088 -0.4219  0.2374  0.3657
   77SLPC   C22 6961   5.435   3.665   7.138 -0.6191 -0.8357 -0.0957
   77SLPC   H2R 6962   5.324   3.671   7.134 -0.6546 -1.6088 -4.2269
   77SLPC   H2S 6963   5.452   3.586   7.062 -1.1905 -1.3119  0.2646
   77SLPC    C3 6964   5.458   4.100   6.949  0.4045 -0.4728  0.2477
   77SLPC    HX 6965   5.357   4.132   6.983 -0.4843  1.4494 -3.6006
   77SLPC    HY 6966   5.478   4.164   6.860 -1.3175 -1.6800 -1.0802
   77SLPC   O31 6967   5.547   4.122   7.061 -0.3715  0.2963 -0.3143
   77SLPC   C31 6968   5.672   4.130   7.018  0.0148  0.2506 -0.4830
   77SLPC   O32 6969   5.708   4.130   6.904  0.3505 -0.3456  0.0869
   77SLPC   C32 6970   5.756   4.152   7.142  0.4034  0.3488 -0.3886
   77SLPC   H2X 6971   5.756   4.062   7.207  0.8467 -0.5051 -1.5243
   77SLPC   H2Y 6972   5.702   4.232   7.196  0.2653 -1.1775  1.8329
   77SLPC   C23 6973   5.484   3.626   7.274  0.0220 -0.2938 -0.7341
   77SLPC   H3R 6974   5.584   3.578   7.275  0.4354  0.4451  1.6339
   77SLPC   H3S 6975   5.418   3.545   7.313 -0.7820  0.9117  0.5380
   77SLPC   C24 6976   5.489   3.749   7.374  0.1723  0.3848 -0.2610
   77SLPC   H4R 6977   5.533   3.835   7.321  1.7601 -0.1298  0.1763
   77SLPC   H4S 6978   5.554   3.724   7.461  0.7245  0.8980 -0.5215
   77SLPC   C25 6979   5.364   3.782   7.451 -0.3656  0.6696  0.7002
   77SLPC   H5R 6980   5.321   3.690   7.497  0.3011  0.1565  0.3110
   77SLPC   H5S 6981   5.294   3.826   7.376  0.2743  0.3550 -0.0979
   77SLPC   C26 6982   5.398   3.890   7.551  0.0123 -0.1261 -0.2720
   77SLPC   H6R 6983   5.397   3.994   7.512  1.4940 -0.1342 -0.3805
   77SLPC   H6S 6984   5.505   3.888   7.581  0.0034  1.8531  0.0523
   77SLPC   C27 6985   5.307   3.877   7.675 -0.0990 -0.9005  0.1674
   77SLPC   H7R 6986   5.275   3.773   7.699  1.3556 -1.2391  0.7781
   77SLPC   H7S 6987   5.223   3.941   7.643 -0.1605 -0.2050  1.6588
   77SLPC   C28 6988   5.370   3.939   7.803 -0.4678  0.3606 -0.0141
   77SLPC   H8R 6989   5.280   3.957   7.867 -1.6373  4.2970 -2.3882
   77SLPC   H8S 6990   5.405   4.043   7.786 -0.2529  0.4061  0.6677
   77SLPC   C29 6991   5.470   3.846   7.879  0.1863 -0.0222 -0.0583
   77SLPC   H9R 6992   5.523   3.781   7.808 -0.2195  2.0495 -2.3637
   77SLPC  C210 6993   5.491   3.825   8.011  0.5761  0.0912  0.0574
   77SLPC  H10R 6994   5.554   3.737   8.031  0.5432  0.5541  2.5051
   77SLPC  C211 6995   5.429   3.893   8.127  0.1580  1.0629 -0.2072
   77SLPC  H11R 6996   5.338   3.836   8.152  0.7668 -0.2593 -0.9318
   77SLPC  H11S 6997   5.406   4.001   8.110  0.8828  1.2760  0.1141
   77SLPC  C212 6998   5.526   3.874   8.243  0.3750 -0.3424  0.2675
   77SLPC  H12R 6999   5.600   3.955   8.254  2.8987 -2.4259 -0.1920
   77SLPC  C213 7000   5.549   3.766   8.315  0.3120 -0.6852  0.0807
   77SLPC  H13R 7001   5.638   3.777   8.378  0.2345  1.0805 -0.0855
   77SLPC  C214 7002   5.485   3.628   8.289  0.4175  0.3286 -0.6666
   77SLPC  H14R 7003   5.467   3.613   8.181 -0.7601  2.0720 -0.7617
   77SLPC  H14S 7004   5.393   3.625   8.352  0.6719  0.5391 -0.2799
   77SLPC  C215 7005   5.578   3.513   8.328 -0.8180 -0.2289  0.0150
   77SLPC  H15R 7006   5.620   3.522   8.431 -2.1986 -1.1865  0.6923
   77SLPC  H15S 7007   5.656   3.504   8.249 -0.5064 -0.2132  0.3138
   77SLPC  C216 7008   5.506   3.381   8.343 -0.5098  0.3433 -0.9845
   77SLPC  H16R 7009   5.443   3.361   8.253 -0.6125 -1.8858 -0.4968
   77SLPC  H16S 7010   5.443   3.380   8.435  1.6799  0.4093  0.5741
   77SLPC  C217 7011   5.606   3.260   8.347 -0.3377  0.5242  0.3039
   77SLPC  H17R 7012   5.695   3.269   8.413  1.2985 -0.3845 -1.6468
   77SLPC  H17S 7013   5.657   3.261   8.248 -0.2553 -0.0848  0.3367
   77SLPC  C218 7014   5.533   3.126   8.371  0.2394  0.3179 -0.7610
   77SLPC  H18R 7015   5.443   3.116   8.307  1.8483 -1.3386 -2.9301
   77SLPC  H18S 7016   5.507   3.114   8.479  0.0149  2.0048 -0.6042
   77SLPC  H18T 7017   5.585   3.031   8.346  0.0471 -0.2223  0.7563
   77SLPC   C33 7018   5.899   4.202   7.103  0.2554 -0.7056  0.6357
   77SLPC   H3X 7019   5.895   4.299   7.049 -0.3759 -0.7987  0.4976
   77SLPC   H3Y 7020   5.933   4.132   7.023  2.5699  1.0133  0.0346
   77SLPC   C34 7021   5.997   4.218   7.216 -0.1506  0.0480 -0.1900
   77SLPC   H4X 7022   5.944   4.285   7.287  0.1652 -0.7125  0.7932
   77SLPC   H4Y 7023   6.093   4.262   7.182  0.7769 -2.6129 -1.2686
   77SLPC   C35 7024   6.046   4.090   7.288 -0.0861  0.0364 -0.4987
   77SLPC   H5X 7025   6.101   4.032   7.211 -0.2755  1.4042 -1.7082
   77SLPC   H5Y 7026   5.964   4.020   7.314  0.5893 -1.1899 -1.5647
   77SLPC   C36 7027   6.136   4.108   7.410 -0.3889  0.6947 -0.1436
   77SLPC   H6X 7028   6.242   4.132   7.385  0.7902 -1.1526  2.5066
   77SLPC   H6Y 7029   6.130   4.015   7.470 -0.9346  0.6032 -0.3401
   77SLPC   C37 7030   6.091   4.218   7.510 -0.3657  0.1000  0.5036
   77SLPC   H7X 7031   5.981   4.224   7.526 -0.2486 -0.4872  1.6408
   77SLPC   H7Y 7032   6.118   4.309   7.453 -1.7869 -0.7611 -1.6554
   77SLPC   C38 7033   6.168   4.215   7.638 -0.1214 -0.4219  0.4973
   77SLPC   H8X 7034   6.277   4.225   7.623 -0.6124  3.9723 -1.8100
   77SLPC   H8Y 7035   6.147   4.116   7.685 -0.4478 -0.1726  0.8907
   77SLPC   C39 7036   6.151   4.327   7.734 -0.3120  0.8263 -1.2515
   77SLPC   H9X 7037   6.045   4.347   7.762  0.3477  1.6078  0.9675
   77SLPC   H9Y 7038   6.200   4.413   7.684  0.7513  0.7910 -0.3088
   77SLPC  C310 7039   6.225   4.296   7.866  0.0422  0.2105  0.4359
   77SLPC  H10X 7040   6.328   4.282   7.829 -0.5526  0.2297 -1.3502
   77SLPC  H10Y 7041   6.193   4.199   7.909 -0.9041 -0.3430 -1.4154
   77SLPC  C311 7042   6.221   4.420   7.959 -0.5404  0.5427 -0.1788
   77SLPC  H11X 7043   6.117   4.451   7.984 -0.7838 -0.9234  0.7597
   77SLPC  H11Y 7044   6.260   4.512   7.911 -1.2713  0.8960 -0.0998
   77SLPC  C312 7045   6.294   4.395   8.093  0.0822  0.0146  0.7343
   77SLPC  H12X 7046   6.364   4.310   8.076  1.0763  1.1040 -0.9898
   77SLPC  H12Y 7047   6.222   4.359   8.169 -2.7486 -0.1532 -1.8441
   77SLPC  C313 7048   6.381   4.517   8.134  0.1093  0.0434  0.1590
   77SLPC  H13X 7049   6.320   4.610   8.139  0.7235  0.5388 -1.0599
   77SLPC  H13Y 7050   6.467   4.530   8.066  1.5553 -0.4123  1.8372
   77SLPC  C314 7051   6.431   4.506   8.279  0.4093 -0.3753 -0.9866
   77SLPC  H14X 7052   6.342   4.521   8.343  2.1467  1.2574  1.2488
   77SLPC  H14Y 7053   6.512   4.577   8.305  0.1502 -0.2228 -0.6027
   77SLPC  C315 7054   6.510   4.382   8.313  0.2987  0.1785  0.3361
   77SLPC  H15X 7055   6.586   4.364   8.235  2.6654 -2.8385  3.0576
   77SLPC  H15Y 7056   6.443   4.293   8.322  1.0348 -0.1958  3.9073
   77SLPC  C316 7057   6.576   4.389   8.452 -0.4117 -0.1642 -0.1065
   77SLPC  H16X 7058   6.647   4.475   8.453  0.1364 -0.3132  5.1993
   77SLPC  H16Y 7059   6.638   4.298   8.469  0.4238  0.4516  0.1903
   77SLPC  C317 7060   6.491   4.414   8.577  0.2706 -0.1640  0.2801
   77SLPC  H17X 7061   6.443   4.315   8.592 -0.6094  0.3165  0.7051
   77SLPC  H17Y 7062   6.408   4.488   8.577 -0.6690 -1.1860 -0.3768
   77SLPC  C318 7063   6.577   4.441   8.703 -0.5429 -0.3013 -0.5506
   77SLPC  H18X 7064   6.624   4.541   8.691 -0.8462 -0.3854 -2.9299
   77SLPC  H18Y 7065   6.652   4.361   8.724  1.3457  1.3307 -0.6877
   77SLPC  H18Z 7066   6.510   4.448   8.791  0.2811 -0.0415  0.0755
   78SLPC     N 7067   0.707   5.564   6.442 -0.0075  0.3830  0.4380
   78SLPC   C13 7068   0.790   5.542   6.323 -0.3126 -0.1212  0.0428
   78SLPC  H13A 7069   0.790   5.622   6.251 -3.6004 -0.3164 -0.3332
   78SLPC  H13B 7070   0.892   5.541   6.357 -0.0981  2.5477 -0.3084
   78SLPC  H13C 7071   0.767   5.458   6.259  0.7197  0.3288 -0.9374
   78SLPC   C14 7072   0.669   5.432   6.495  0.4144  0.0417  1.1079
   78SLPC  H14A 7073   0.635   5.438   6.597 -0.8304  0.1051  0.7088
   78SLPC  H14B 7074   0.598   5.380   6.433  2.5041 -0.0857 -1.3886
   78SLPC  H14C 7075   0.751   5.361   6.491  0.4494 -0.0718  2.9575
   78SLPC   C15 7076   0.577   5.623   6.404 -0.1356 -0.3564 -0.4302
   78SLPC  H15A 7077   0.500   5.610   6.478 -1.9100 -0.9311 -2.2756
   78SLPC  H15B 7078   0.589   5.727   6.379  0.4745 -0.5021 -0.7701
   78SLPC  H15C 7079   0.542   5.572   6.315 -1.1649 -2.6088  1.1620
   78SLPC   C12 7080   0.784   5.649   6.543  0.5303  0.3219  0.4331
   78SLPC  H12A 7081   0.716   5.659   6.626  0.9133 -2.4159  1.1856
   78SLPC  H12B 7082   0.799   5.748   6.504 -1.5346  0.5158  0.0030
   78SLPC   C11 7083   0.918   5.601   6.598  0.2369 -0.4768  0.7247
   78SLPC  H11A 7084   0.910   5.491   6.610  1.6723 -0.5938  0.7546
   78SLPC  H11B 7085   0.937   5.648   6.697 -1.1517  0.9008  0.3754
   78SLPC     P 7086   1.123   5.508   6.475 -0.0230  0.3167  0.4094
   78SLPC   O13 7087   1.041   5.389   6.442  0.1700  0.6381  0.1256
   78SLPC   O14 7088   1.213   5.552   6.369 -0.2624  0.1677  0.1569
   78SLPC   O12 7089   1.026   5.630   6.512 -0.2730  0.5785  0.3693
   78SLPC   O11 7090   1.203   5.494   6.608  0.3904  0.0763  0.4528
   78SLPC    C1 7091   1.269   5.366   6.647  0.5561  0.4330  0.1566
   78SLPC    HA 7092   1.329   5.318   6.566 -0.6150  1.5632 -1.4394
   78SLPC    HB 7093   1.349   5.393   6.719 -0.0130 -2.0175  1.8499
   78SLPC    C2 7094   1.184   5.260   6.715 -0.0678  0.1819  0.6146
   78SLPC    HS 7095   1.138   5.204   6.631 -0.1245  1.3792 -0.1741
   78SLPC   O21 7096   1.079   5.320   6.800 -0.0579  0.0729  0.7383
   78SLPC   C21 7097   0.968   5.259   6.794  0.7658 -0.2825 -0.0856
   78SLPC   O22 7098   0.939   5.162   6.723 -0.0821  0.2495  0.9716
   78SLPC   C22 7099   0.861   5.339   6.864 -0.7474 -0.7311 -0.1105
   78SLPC   H2R 7100   0.861   5.444   6.829  0.1812 -1.4574 -2.4621
   78SLPC   H2S 7101   0.764   5.292   6.836 -0.5324 -2.3358  1.6334
   78SLPC    C3 7102   1.267   5.158   6.806 -0.5840  0.3292 -0.2619
   78SLPC    HX 7103   1.351   5.131   6.739  0.1422  2.4027 -0.2502
   78SLPC    HY 7104   1.213   5.065   6.836  2.1565 -0.4180  2.9188
   78SLPC   O31 7105   1.328   5.217   6.925 -0.4479 -0.4564 -0.6802
   78SLPC   C31 7106   1.249   5.181   7.030  0.2744 -1.0901 -0.5484
   78SLPC   O32 7107   1.149   5.111   7.034 -0.1948  0.2915 -0.3473
   78SLPC   C32 7108   1.299   5.251   7.157  0.4537 -0.0418 -0.0584
   78SLPC   H2X 7109   1.340   5.345   7.115  2.1930 -1.8584 -2.7070
   78SLPC   H2Y 7110   1.374   5.182   7.203 -0.8729 -2.0565 -0.7750
   78SLPC   C23 7111   0.869   5.317   7.014 -0.3723 -0.2309 -0.2604
   78SLPC   H3R 7112   0.965   5.352   7.056 -0.0787  0.0536 -1.1453
   78SLPC   H3S 7113   0.860   5.208   7.035 -0.7568  0.0270  1.0259
   78SLPC   C24 7114   0.754   5.382   7.093  0.5999 -0.7193  0.0231
   78SLPC   H4R 7115   0.661   5.329   7.065 -0.2683  0.6298  0.2754
   78SLPC   H4S 7116   0.742   5.486   7.058  0.0970 -0.8549 -0.2089
   78SLPC   C25 7117   0.759   5.387   7.247  0.2203  0.7752  1.3342
   78SLPC   H5R 7118   0.844   5.447   7.285  0.3420  1.6142 -0.1843
   78SLPC   H5S 7119   0.777   5.284   7.286 -0.2429  0.5495  0.9507
   78SLPC   C26 7120   0.621   5.414   7.318 -0.2916 -0.2297 -0.2936
   78SLPC   H6R 7121   0.547   5.352   7.264 -1.1234  0.4831 -0.0030
   78SLPC   H6S 7122   0.600   5.522   7.298 -0.6207 -0.5951 -2.0600
   78SLPC   C27 7123   0.625   5.381   7.464  0.0213 -0.0549  0.7512
   78SLPC   H7R 7124   0.667   5.278   7.474 -0.4642 -0.4264 -0.8457
   78SLPC   H7S 7125   0.524   5.371   7.508 -1.1832  1.1029 -1.5887
   78SLPC   C28 7126   0.692   5.492   7.551  0.1789 -0.0222 -0.2923
   78SLPC   H8R 7127   0.638   5.586   7.525  0.9546  0.4961 -0.0485
   78SLPC   H8S 7128   0.800   5.499   7.526  0.5395  1.1634  1.4128
   78SLPC   C29 7129   0.673   5.453   7.698  0.2198 -0.3319  0.1755
   78SLPC   H9R 7130   0.575   5.418   7.732 -0.1923  0.5754 -0.0599
   78SLPC  C210 7131   0.771   5.444   7.791 -0.8809  0.5332  0.5292
   78SLPC  H10R 7132   0.749   5.417   7.895 -1.0883 -0.2123  0.2967
   78SLPC  C211 7133   0.914   5.473   7.777 -0.3503  0.0039 -0.1563
   78SLPC  H11R 7134   0.937   5.530   7.685 -2.0392  2.6330  0.9054
   78SLPC  H11S 7135   0.976   5.381   7.778  2.9227  2.0817 -0.1351
   78SLPC  C212 7136   0.961   5.569   7.881 -0.0413  0.2742 -0.9850
   78SLPC  H12R 7137   0.896   5.657   7.887 -2.3125 -1.4208  0.7857
   78SLPC  C213 7138   1.069   5.558   7.969  0.3324 -0.2637  0.0731
   78SLPC  H13R 7139   1.100   5.644   8.031 -0.0772  0.1232 -0.2525
   78SLPC  C214 7140   1.156   5.437   7.997 -0.4777 -0.1693  0.5193
   78SLPC  H14R 7141   1.108   5.349   7.949 -1.8086  0.2154  1.0831
   78SLPC  H14S 7142   1.153   5.413   8.105  1.3041  0.1024  0.6622
   78SLPC  C215 7143   1.313   5.438   7.971  0.1205  0.5514 -0.0728
   78SLPC  H15R 7144   1.367   5.361   8.030 -1.5436  0.7263  1.7945
   78SLPC  H15S 7145   1.337   5.537   8.013 -1.6175  0.7773  0.4814
   78SLPC  C216 7146   1.352   5.426   7.823  0.2471  0.5843 -0.2238
   78SLPC  H16R 7147   1.306   5.509   7.765  0.5359  1.9707  1.4451
   78SLPC  H16S 7148   1.317   5.326   7.791 -2.8736  1.1733  1.0482
   78SLPC  C217 7149   1.501   5.441   7.790 -0.5644  0.1326  0.1442
   78SLPC  H17R 7150   1.560   5.358   7.835 -1.3720 -0.9551 -0.7554
   78SLPC  H17S 7151   1.529   5.536   7.841 -0.3659 -0.1881  0.6460
   78SLPC  C218 7152   1.542   5.430   7.645  0.1707 -0.6964  0.2403
   78SLPC  H18R 7153   1.509   5.335   7.597 -0.0301 -0.8561  0.6853
   78SLPC  H18S 7154   1.647   5.463   7.635 -0.1907  0.0519 -1.3335
   78SLPC  H18T 7155   1.481   5.506   7.592  0.4470 -1.4899 -1.2775
   78SLPC   C33 7156   1.189   5.271   7.270  0.2620 -0.2260 -0.4813
   78SLPC   H3X 7157   1.112   5.349   7.251 -1.0953 -1.3092  0.4384
   78SLPC   H3Y 7158   1.250   5.323   7.348  0.4080  0.5911 -1.1239
   78SLPC   C34 7159   1.126   5.148   7.332  0.3658  0.0092 -1.1319
   78SLPC   H4X 7160   1.204   5.070   7.345 -0.3396 -0.9965 -2.7338
   78SLPC   H4Y 7161   1.044   5.113   7.267  0.6084 -2.2298 -0.3345
   78SLPC   C35 7162   1.079   5.189   7.477 -0.2050 -0.1955  0.2742
   78SLPC   H5X 7163   1.001   5.268   7.469  0.0380  0.0560  0.3731
   78SLPC   H5Y 7164   1.149   5.250   7.538 -0.9824  1.3047 -0.2836
   78SLPC   C36 7165   1.037   5.072   7.569 -0.7283 -0.4284 -0.0446
   78SLPC   H6X 7166   1.118   4.996   7.561 -0.6179 -0.2836 -0.3132
   78SLPC   H6Y 7167   0.941   5.023   7.545 -2.1276  1.5789  1.1542
   78SLPC   C37 7168   1.025   5.123   7.716  0.0867  0.3336  0.7172
   78SLPC   H7X 7169   0.936   5.189   7.708  0.7355  1.1358 -0.2171
   78SLPC   H7Y 7170   1.106   5.192   7.749 -0.5881  1.9452 -0.8290
   78SLPC   C38 7171   1.003   5.009   7.814 -0.2077 -0.2599  0.2428
   78SLPC   H8X 7172   1.100   4.959   7.832  0.9042  1.1839 -1.4686
   78SLPC   H8Y 7173   0.928   4.939   7.770 -0.7982  0.6421 -0.2156
   78SLPC   C39 7174   0.941   5.049   7.946 -0.2175 -1.2805  0.8385
   78SLPC   H9X 7175   0.849   5.102   7.914  1.2741  1.4308  0.7437
   78SLPC   H9Y 7176   1.014   5.122   7.986  0.9546 -1.8524 -0.2033
   78SLPC  C310 7177   0.926   4.932   8.034 -0.9301  0.4891  0.5190
   78SLPC  H10X 7178   1.025   4.888   8.058 -1.3803 -0.4434  0.7143
   78SLPC  H10Y 7179   0.876   4.842   7.991  0.9089 -0.3773  0.0935
   78SLPC  C311 7180   0.858   4.950   8.168 -0.2409  0.1246  0.2254
   78SLPC  H11X 7181   0.819   4.848   8.191 -1.0532  0.4688  0.4261
   78SLPC  H11Y 7182   0.775   5.022   8.150  1.3887  1.9278 -0.4183
   78SLPC  C312 7183   0.931   5.015   8.284  0.0906 -0.3063  0.1916
   78SLPC  H12X 7184   1.019   4.953   8.311  1.1096  1.0500  0.0833
   78SLPC  H12Y 7185   0.863   4.998   8.371 -0.9638 -0.7785 -0.7070
   78SLPC  C313 7186   0.951   5.169   8.272  0.6491 -0.7468 -0.6065
   78SLPC  H13X 7187   0.861   5.213   8.224  0.2778 -1.5925 -0.6866
   78SLPC  H13Y 7188   1.031   5.185   8.197 -0.0665 -0.7929 -1.3941
   78SLPC  C314 7189   0.978   5.241   8.408 -0.1661  0.6848  0.1553
   78SLPC  H14X 7190   1.080   5.212   8.440 -0.8052  0.9557  2.6675
   78SLPC  H14Y 7191   0.913   5.197   8.487 -2.0686  1.0920 -1.1115
   78SLPC  C315 7192   0.973   5.392   8.410 -0.1440  0.5843 -0.3014
   78SLPC  H15X 7193   0.874   5.441   8.397 -0.9931 -1.5247 -2.5577
   78SLPC  H15Y 7194   1.040   5.430   8.330  0.0792 -0.4297 -0.6132
   78SLPC  C316 7195   1.027   5.447   8.540 -0.0254  0.0160 -0.0145
   78SLPC  H16X 7196   1.078   5.361   8.589 -0.5145  0.5796  1.5427
   78SLPC  H16Y 7197   0.945   5.465   8.612  1.8964  0.5731  2.1182
   78SLPC  C317 7198   1.114   5.578   8.550  0.0429  0.2870  0.4704
   78SLPC  H17X 7199   1.126   5.598   8.659 -2.4840  2.9378  0.3745
   78SLPC  H17Y 7200   1.058   5.666   8.511  2.4574  1.9211  0.4676
   78SLPC  C318 7201   1.250   5.561   8.474 -0.1379  0.6999 -0.1252
   78SLPC  H18X 7202   1.319   5.645   8.496  0.8279 -0.2628  0.6441
   78SLPC  H18Y 7203   1.231   5.541   8.367  1.7387 -1.4729 -0.1338
   78SLPC  H18Z 7204   1.304   5.466   8.494  2.7405  2.4799  1.0457
   79SLPC     N 7205   5.126   1.109   6.264  0.4982 -0.1887 -0.1540
   79SLPC   C13 7206   5.217   1.085   6.150  0.3854 -0.4749  0.1270
   79SLPC  H13A 7207   5.194   1.150   6.067  1.3707  0.1053  0.2933
   79SLPC  H13B 7208   5.321   1.105   6.173  0.2221  1.8217 -0.8378
   79SLPC  H13C 7209   5.213   0.983   6.114 -0.8319 -0.0561 -0.9866
   79SLPC   C14 7210   5.172   1.010   6.373  0.1402  0.0021  0.3740
   79SLPC  H14A 7211   5.106   1.027   6.456  2.1694 -2.6024  2.6920
   79SLPC  H14B 7212   5.161   0.911   6.332  1.4471  0.5426 -1.4186
   79SLPC  H14C 7213   5.271   1.033   6.410  0.0263  0.7848  0.2111
   79SLPC   C15 7214   4.990   1.077   6.223  0.4169 -0.0309 -0.1114
   79SLPC  H15A 7215   4.955   1.137   6.140  2.1495 -0.0136 -0.8536
   79SLPC  H15B 7216   4.976   0.974   6.192  0.2048  0.2744 -1.0709
   79SLPC  H15C 7217   4.922   1.092   6.306 -0.1315 -1.3236 -0.2955
   79SLPC   C12 7218   5.142   1.245   6.327  0.0640  0.2112  0.4524
   79SLPC  H12A 7219   5.134   1.315   6.244 -0.3923 -0.7187 -0.3001
   79SLPC  H12B 7220   5.241   1.247   6.370  0.7111 -1.6276 -0.8610
   79SLPC   C11 7221   5.039   1.282   6.440  0.1820  0.1325  0.5069
   79SLPC  H11A 7222   5.061   1.385   6.475  1.9836 -0.1050  0.1426
   79SLPC  H11B 7223   5.049   1.214   6.527 -1.4002 -1.2363 -0.3035
   79SLPC     P 7224   4.781   1.292   6.480 -0.0084 -0.4617  0.2817
   79SLPC   O13 7225   4.704   1.411   6.436  0.0458 -0.8711 -0.0276
   79SLPC   O14 7226   4.701   1.165   6.485  0.2739 -0.3464  0.1598
   79SLPC   O12 7227   4.907   1.274   6.389  0.1067 -0.3804 -0.7808
   79SLPC   O11 7228   4.828   1.310   6.634  0.5695  0.4350 -0.0565
   79SLPC    C1 7229   4.879   1.434   6.678  0.4297  0.3121 -0.3592
   79SLPC    HA 7230   4.976   1.419   6.731 -0.6315 -0.0380  1.5403
   79SLPC    HB 7231   4.891   1.511   6.599  0.3196  0.7717  0.0691
   79SLPC    C2 7232   4.773   1.499   6.771 -0.4554 -0.5673  0.1919
   79SLPC    HS 7233   4.824   1.595   6.795 -1.9159  0.0823  0.8150
   79SLPC   O21 7234   4.740   1.411   6.881  0.0670  0.0422  0.1536
   79SLPC   C21 7235   4.835   1.419   6.977 -0.4916  0.2099  0.3775
   79SLPC   O22 7236   4.920   1.503   6.984  0.1561  0.3025 -0.3068
   79SLPC   C22 7237   4.806   1.315   7.085  0.6677  0.1811 -0.2166
   79SLPC   H2R 7238   4.718   1.259   7.046 -1.1151  1.4930  1.7309
   79SLPC   H2S 7239   4.897   1.251   7.087  0.7660  0.3340  0.2362
   79SLPC    C3 7240   4.642   1.545   6.699  0.2905 -0.0569  0.4193
   79SLPC    HX 7241   4.594   1.464   6.639 -0.4017  0.7379 -0.1265
   79SLPC    HY 7242   4.674   1.615   6.619 -4.0978  2.1421  0.3076
   79SLPC   O31 7243   4.547   1.620   6.783  0.0256  0.3210 -0.2723
   79SLPC   C31 7244   4.452   1.543   6.840  0.4460 -0.4396  0.3123
   79SLPC   O32 7245   4.447   1.422   6.822 -0.2594 -0.2010 -0.2171
   79SLPC   C32 7246   4.369   1.617   6.943 -0.3224  0.2272  0.3730
   79SLPC   H2X 7247   4.336   1.716   6.904 -2.4611 -0.9639 -1.0675
   79SLPC   H2Y 7248   4.436   1.626   7.031  0.3389 -2.9309  0.3056
   79SLPC   C23 7249   4.768   1.397   7.211  0.1035  0.1310 -0.2658
   79SLPC   H3R 7250   4.847   1.473   7.230  0.4161 -0.3660  0.5017
   79SLPC   H3S 7251   4.773   1.333   7.302 -1.6452  1.2120  0.6454
   79SLPC   C24 7252   4.631   1.461   7.199 -0.0354  0.3747 -0.7472
   79SLPC   H4R 7253   4.548   1.392   7.172  0.5106 -0.6631  0.1634
   79SLPC   H4S 7254   4.637   1.528   7.111 -2.6802 -1.0847 -2.1658
   79SLPC   C25 7255   4.593   1.542   7.327 -0.0861  0.3071  0.6701
   79SLPC   H5R 7256   4.499   1.596   7.302 -0.3330 -0.5737 -0.3713
   79SLPC   H5S 7257   4.677   1.615   7.326  0.6923 -0.5596  1.1989
   79SLPC   C26 7258   4.595   1.464   7.453  0.1542 -0.5476  0.2548
   79SLPC   H6R 7259   4.698   1.469   7.495 -0.1075  0.1293  0.8466
   79SLPC   H6S 7260   4.578   1.357   7.431  3.0285 -1.3174  1.3217
   79SLPC   C27 7261   4.501   1.515   7.563  1.1263  0.8815  0.0649
   79SLPC   H7R 7262   4.399   1.509   7.518  1.6839 -1.2412 -1.0965
   79SLPC   H7S 7263   4.512   1.623   7.583 -0.0598  0.9597  0.3637
   79SLPC   C28 7264   4.496   1.441   7.693 -0.4354  0.3425 -0.5362
   79SLPC   H8R 7265   4.483   1.333   7.670 -1.6165  0.4082 -0.2773
   79SLPC   H8S 7266   4.411   1.471   7.758  1.0731 -0.8010  2.1241
   79SLPC   C29 7267   4.630   1.486   7.764 -0.0129 -0.5505 -0.0204
   79SLPC   H9R 7268   4.722   1.473   7.705  0.8756 -2.0830  1.6315
   79SLPC  C210 7269   4.636   1.529   7.888  0.4274  0.2841 -0.9622
   79SLPC  H10R 7270   4.736   1.551   7.929  0.0828 -0.0385  0.0927
   79SLPC  C211 7271   4.520   1.551   7.985 -0.2032  0.0591 -0.2057
   79SLPC  H11R 7272   4.428   1.572   7.926 -0.3932 -1.4590 -0.4973
   79SLPC  H11S 7273   4.533   1.633   8.059 -1.7220  0.7471 -0.6533
   79SLPC  C212 7274   4.498   1.423   8.063  0.4145 -0.1110 -0.4727
   79SLPC  H12R 7275   4.497   1.332   8.000 -1.5004 -0.2172 -0.3438
   79SLPC  C213 7276   4.468   1.419   8.195 -0.3656  0.6268 -0.0891
   79SLPC  H13R 7277   4.462   1.319   8.241 -0.0357 -1.5151 -4.2502
   79SLPC  C214 7278   4.459   1.536   8.290  0.1493 -0.2042  0.2756
   79SLPC  H14R 7279   4.360   1.535   8.340 -0.7835  1.6522 -1.3886
   79SLPC  H14S 7280   4.470   1.637   8.245  0.0409  0.5221  1.8474
   79SLPC  C215 7281   4.569   1.524   8.392 -0.8667  0.0815 -0.5429
   79SLPC  H15R 7282   4.661   1.545   8.333 -1.1295  1.4540 -0.4790
   79SLPC  H15S 7283   4.584   1.424   8.438  0.2855  1.4478  2.2664
   79SLPC  C216 7284   4.553   1.615   8.510 -0.4888  0.1819 -0.1420
   79SLPC  H16R 7285   4.449   1.605   8.548  0.1198  0.6563  1.7342
   79SLPC  H16S 7286   4.557   1.721   8.477  1.2201 -0.4778 -2.3366
   79SLPC  C217 7287   4.659   1.604   8.623  0.2556  0.0439 -0.3708
   79SLPC  H17R 7288   4.760   1.618   8.580  1.3342  3.2526  2.7276
   79SLPC  H17S 7289   4.662   1.503   8.670  3.7787 -0.4391 -1.3749
   79SLPC  C218 7290   4.648   1.717   8.731  0.4834 -0.6626  0.2568
   79SLPC  H18R 7291   4.555   1.708   8.791 -0.4692  0.4632 -0.9868
   79SLPC  H18S 7292   4.644   1.814   8.677  0.8681 -1.2161 -0.7990
   79SLPC  H18T 7293   4.732   1.709   8.803  1.4119  1.5909 -0.4935
   79SLPC   C33 7294   4.245   1.545   6.986 -0.1914  0.4163 -0.1254
   79SLPC   H3X 7295   4.249   1.437   7.011 -1.6883  0.2143 -0.6442
   79SLPC   H3Y 7296   4.173   1.550   6.902 -0.0173 -0.3516 -0.3246
   79SLPC   C34 7297   4.183   1.610   7.115  0.0126 -0.1235  0.8948
   79SLPC   H4X 7298   4.183   1.720   7.104 -0.0389 -0.0254  1.8506
   79SLPC   H4Y 7299   4.249   1.592   7.202  2.7638  0.0823 -1.0124
   79SLPC   C35 7300   4.044   1.549   7.147  0.4915 -0.9366 -0.4144
   79SLPC   H5X 7301   4.050   1.439   7.167 -2.2895 -0.9620  0.8549
   79SLPC   H5Y 7302   3.974   1.572   7.064 -0.4941  0.3618  0.7291
   79SLPC   C36 7303   3.981   1.627   7.266  0.0109  0.5622  0.5804
   79SLPC   H6X 7304   3.871   1.613   7.266 -0.0046  0.6947  1.0711
   79SLPC   H6Y 7305   4.000   1.734   7.244  1.5960  0.6845  2.3741
   79SLPC   C37 7306   4.032   1.581   7.404 -0.8129  0.3377  0.0829
   79SLPC   H7X 7307   4.142   1.572   7.396 -0.5932 -0.9196  3.0126
   79SLPC   H7Y 7308   4.006   1.473   7.404  1.1962 -0.2628 -2.8231
   79SLPC   C38 7309   3.989   1.668   7.524  0.4183 -0.6267 -0.3295
   79SLPC   H8X 7310   3.879   1.667   7.539  0.1496  1.1146 -1.8196
   79SLPC   H8Y 7311   4.013   1.774   7.503  1.6120 -1.0785 -1.3358
   79SLPC   C39 7312   4.058   1.619   7.653  0.1233 -0.0220  0.5665
   79SLPC   H9X 7313   4.164   1.646   7.634 -0.1918  2.1931  1.5536
   79SLPC   H9Y 7314   4.047   1.510   7.667 -0.7471 -0.1349 -0.7862
   79SLPC  C310 7315   4.009   1.717   7.765 -0.3859  0.4784 -0.4120
   79SLPC  H10X 7316   3.898   1.722   7.766 -0.5712 -2.0558 -0.5346
   79SLPC  H10Y 7317   4.043   1.819   7.739 -0.7069  0.5942 -0.3903
   79SLPC  C311 7318   4.066   1.670   7.901 -0.2923  0.1751  0.1661
   79SLPC  H11X 7319   4.177   1.671   7.889 -0.0512 -0.4001  1.9921
   79SLPC  H11Y 7320   4.035   1.565   7.920  2.0456 -0.4833  0.7098
   79SLPC  C312 7321   4.011   1.755   8.017 -0.0399  0.1933  0.4423
   79SLPC  H12X 7322   3.901   1.743   8.010 -0.0248  0.7510 -1.5238
   79SLPC  H12Y 7323   4.047   1.857   7.991  1.1695 -0.9531 -2.8978
   79SLPC  C313 7324   4.062   1.709   8.147  0.3733 -0.3935  1.2046
   79SLPC  H13X 7325   4.173   1.719   8.149  0.2292  1.5659  2.2630
   79SLPC  H13Y 7326   4.035   1.603   8.161 -0.3820 -0.4501 -0.4370
   79SLPC  C314 7327   3.993   1.795   8.257  0.5197  0.4698 -0.3684
   79SLPC  H14X 7328   3.883   1.805   8.244  0.6393 -0.7555 -2.7767
   79SLPC  H14Y 7329   4.032   1.899   8.262 -0.1932  0.7493 -0.4662
   79SLPC  C315 7330   4.036   1.740   8.399 -0.1775 -0.1376 -0.7681
   79SLPC  H15X 7331   4.146   1.736   8.408 -0.3722 -0.5709  4.0099
   79SLPC  H15Y 7332   3.992   1.640   8.419  0.9590 -0.2434  1.4721
   79SLPC  C316 7333   4.009   1.843   8.518  0.4815 -0.5971 -0.0289
   79SLPC  H16X 7334   3.903   1.875   8.508  0.6177  0.2255  0.9366
   79SLPC  H16Y 7335   4.077   1.931   8.522 -1.1775  0.8266 -1.4947
   79SLPC  C317 7336   4.014   1.783   8.658 -0.0957 -0.4523  0.4679
   79SLPC  H17X 7337   3.953   1.691   8.662  4.1236 -3.4923  1.8581
   79SLPC  H17Y 7338   3.976   1.863   8.725  0.6828 -0.5086  0.9906
   79SLPC  C318 7339   4.154   1.741   8.695 -0.3607 -1.0130 -0.2966
   79SLPC  H18X 7340   4.145   1.666   8.777  3.0759 -1.8884 -0.5771
   79SLPC  H18Y 7341   4.223   1.823   8.725 -0.0032 -1.7352  0.9399
   79SLPC  H18Z 7342   4.192   1.692   8.603 -0.8414  0.8521 -1.5433
   80SLPC     N 7343   5.994   5.937   6.113 -0.3439  0.4329  0.0306
   80SLPC   C13 7344   5.992   5.853   6.235  0.0324 -0.1566 -0.4112
   80SLPC  H13A 7345   5.937   5.905   6.313  0.9894 -2.3861  1.9003
   80SLPC  H13B 7346   5.942   5.758   6.223  1.5471 -1.3584  1.9618
   80SLPC  H13C 7347   6.089   5.835   6.279  0.8561  1.7279 -1.3213
   80SLPC   C14 7348   5.853   5.973   6.085 -0.3727  0.0916 -0.1979
   80SLPC  H14A 7349   5.789   5.887   6.076 -1.2519  0.8553 -1.5443
   80SLPC  H14B 7350   5.821   6.031   6.171  1.3534 -0.3675  0.8035
   80SLPC  H14C 7351   5.829   6.034   5.999  1.5035  1.8181  0.4060
   80SLPC   C15 7352   6.043   5.859   5.992  0.3094 -0.7305 -0.6384
   80SLPC  H15A 7353   6.041   5.923   5.906 -1.0813 -1.0259 -0.8447
   80SLPC  H15B 7354   6.144   5.823   6.008  0.3101 -0.5509 -0.2231
   80SLPC  H15C 7355   5.987   5.769   5.973 -1.6487  0.3443 -0.1470
   80SLPC   C12 7356   6.072   6.069   6.144  0.2617  0.4377  0.7542
   80SLPC  H12A 7357   6.066   6.126   6.053  2.6648 -2.1464 -1.1896
   80SLPC  H12B 7358   6.175   6.046   6.167  0.1043 -0.7557  0.3611
   80SLPC   C11 7359   6.019   6.154   6.263 -0.4873 -0.2361  0.1565
   80SLPC  H11A 7360   5.922   6.205   6.245  0.3927  1.0271 -1.3023
   80SLPC  H11B 7361   6.090   6.240   6.259  2.0808 -2.2547 -1.0920
   80SLPC     P 7362   6.159   6.065   6.473  0.2263  0.3708 -0.5079
   80SLPC   O13 7363   6.272   6.110   6.396 -0.3225 -0.2839 -0.0437
   80SLPC   O14 7364   6.140   6.119   6.612 -0.8291 -0.0704 -0.5049
   80SLPC   O12 7365   6.025   6.094   6.392 -0.0439 -0.1644  0.5943
   80SLPC   O11 7366   6.173   5.907   6.483  0.4991 -0.6174 -0.1606
   80SLPC    C1 7367   6.087   5.834   6.566  0.0549 -0.0937  0.3898
   80SLPC    HA 7368   5.983   5.868   6.548  0.1328  0.4470  0.9341
   80SLPC    HB 7369   6.094   5.727   6.535  0.5335  0.1953 -0.5155
   80SLPC    C2 7370   6.116   5.829   6.720 -0.0963 -0.7430  0.2857
   80SLPC    HS 7371   6.097   5.927   6.770  0.1144  0.2919 -1.5685
   80SLPC   O21 7372   6.249   5.783   6.725 -0.3221 -0.2771 -0.3443
   80SLPC   C21 7373   6.312   5.826   6.831 -0.4833  0.1351  0.2473
   80SLPC   O22 7374   6.264   5.893   6.925 -0.0248  0.0854 -0.3597
   80SLPC   C22 7375   6.461   5.784   6.823  0.1991  0.1385  0.5972
   80SLPC   H2R 7376   6.472   5.680   6.786  1.3858  0.5051 -0.1582
   80SLPC   H2S 7377   6.499   5.847   6.740 -2.5801  3.2580  1.4756
   80SLPC    C3 7378   6.008   5.734   6.791 -0.2894  0.6232  0.1431
   80SLPC    HX 7379   6.023   5.631   6.750  1.2983  0.7675  0.3053
   80SLPC    HY 7380   5.905   5.770   6.769 -1.4579 -1.3937  1.8736
   80SLPC   O31 7381   6.020   5.728   6.938  0.1022 -0.1563  0.5853
   80SLPC   C31 7382   5.975   5.834   6.996 -0.1175 -0.4740 -0.1377
   80SLPC   O32 7383   5.922   5.930   6.938 -0.0916  0.4426  0.5338
   80SLPC   C32 7384   6.002   5.837   7.148 -0.2854 -0.3902 -0.4918
   80SLPC   H2X 7385   6.058   5.929   7.175 -1.0330  0.1277 -0.6742
   80SLPC   H2Y 7386   6.058   5.746   7.177  0.6725 -0.0915 -1.3426
   80SLPC   C23 7387   6.548   5.805   6.948 -0.8381 -0.6523  0.0859
   80SLPC   H3R 7388   6.538   5.914   6.968 -2.8369 -0.9558  0.9865
   80SLPC   H3S 7389   6.655   5.797   6.921 -0.6352  1.0738  0.2990
   80SLPC   C24 7390   6.514   5.732   7.070 -0.0492 -0.0776 -0.7326
   80SLPC   H4R 7391   6.404   5.723   7.069  0.0596 -1.6083 -0.2418
   80SLPC   H4S 7392   6.541   5.798   7.155 -3.5738  3.2252 -1.8991
   80SLPC   C25 7393   6.587   5.596   7.090  0.0664  0.2365 -0.5625
   80SLPC   H5R 7394   6.695   5.605   7.066 -0.0070  1.9481 -0.3322
   80SLPC   H5S 7395   6.544   5.514   7.029  1.8609 -2.8943  2.0319
   80SLPC   C26 7396   6.587   5.541   7.238 -0.2329 -0.1922 -1.2850
   80SLPC   H6R 7397   6.648   5.450   7.255  0.2130  0.4541  0.8792
   80SLPC   H6S 7398   6.481   5.516   7.260 -1.0706  0.9903 -3.7149
   80SLPC   C27 7399   6.651   5.638   7.341  0.0127  0.3170 -0.0794
   80SLPC   H7R 7400   6.583   5.726   7.346 -0.8479 -0.3280 -0.1937
   80SLPC   H7S 7401   6.746   5.671   7.295  0.1903  0.6102  0.4899
   80SLPC   C28 7402   6.676   5.575   7.482  0.1214  0.0126 -0.1859
   80SLPC   H8R 7403   6.720   5.475   7.463  0.4548 -0.0020  0.6276
   80SLPC   H8S 7404   6.577   5.545   7.525  0.2138  0.4825  0.3731
   80SLPC   C29 7405   6.761   5.671   7.567  0.0407 -1.0581  0.5366
   80SLPC   H9R 7406   6.847   5.708   7.509 -1.8843  1.9541 -0.6309
   80SLPC  C210 7407   6.724   5.730   7.684 -0.7265 -0.1883  0.0894
   80SLPC  H10R 7408   6.792   5.808   7.722  0.0765 -0.0403 -1.5447
   80SLPC  C211 7409   6.603   5.698   7.763  0.5778 -0.4904  0.1528
   80SLPC  H11R 7410   6.511   5.719   7.705  1.1100  0.6548 -0.3037
   80SLPC  H11S 7411   6.609   5.768   7.848  1.4925  3.0143 -2.5652
   80SLPC  C212 7412   6.572   5.552   7.818 -0.5133 -0.1786  0.8918
   80SLPC  H12R 7413   6.538   5.476   7.746 -0.0998  0.0864  0.4116
   80SLPC  C213 7414   6.584   5.515   7.942  0.3290  0.7052 -0.8513
   80SLPC  H13R 7415   6.546   5.414   7.964 -0.4850  0.2947 -3.8092
   80SLPC  C214 7416   6.616   5.598   8.063  0.0524  0.3168 -0.4432
   80SLPC  H14R 7417   6.656   5.696   8.031  1.0514 -0.5927 -2.1846
   80SLPC  H14S 7418   6.700   5.550   8.117  0.0824 -1.1038 -1.6846
   80SLPC  C215 7419   6.497   5.626   8.155 -0.4102 -0.3300  0.1554
   80SLPC  H15R 7420   6.453   5.532   8.195 -0.7133 -0.7281 -1.0829
   80SLPC  H15S 7421   6.419   5.684   8.103 -0.2367  1.4668  1.7832
   80SLPC  C216 7422   6.538   5.710   8.279  0.0810  0.6145 -0.0366
   80SLPC  H16R 7423   6.570   5.814   8.254  4.2999 -0.5519 -0.3190
   80SLPC  H16S 7424   6.633   5.667   8.317 -0.5547 -0.3237  0.5256
   80SLPC  C217 7425   6.440   5.721   8.395 -0.0910 -0.0559 -0.5194
   80SLPC  H17R 7426   6.494   5.764   8.482  0.0836 -1.1335 -0.0813
   80SLPC  H17S 7427   6.409   5.620   8.430  1.2414  0.1738  1.4794
   80SLPC  C218 7428   6.304   5.784   8.357 -0.1053  0.7963 -0.4949
   80SLPC  H18R 7429   6.235   5.759   8.440  2.5626  1.2749  2.0377
   80SLPC  H18S 7430   6.277   5.746   8.256  2.2655 -0.5223 -0.7096
   80SLPC  H18T 7431   6.315   5.894   8.344 -0.3806  0.5152 -4.0914
   80SLPC   C33 7432   5.870   5.848   7.231  0.5595  0.5001  0.1469
   80SLPC   H3X 7433   5.813   5.930   7.183  1.6240  1.5002  0.5340
   80SLPC   H3Y 7434   5.906   5.882   7.331  1.5967 -2.4175  0.8523
   80SLPC   C34 7435   5.796   5.718   7.243 -0.0128  0.2377  0.2652
   80SLPC   H4X 7436   5.864   5.638   7.280  0.4572 -1.2077 -3.3390
   80SLPC   H4Y 7437   5.772   5.692   7.138  0.5261  2.4786 -0.4579
   80SLPC   C35 7438   5.665   5.717   7.331 -0.2781  0.5163  0.2628
   80SLPC   H5X 7439   5.609   5.623   7.310 -0.0786  0.4671 -0.0608
   80SLPC   H5Y 7440   5.604   5.806   7.304 -1.1643  0.6746  2.6151
   80SLPC   C36 7441   5.698   5.748   7.477  0.6471 -0.0626  0.2779
   80SLPC   H6X 7442   5.729   5.852   7.501 -1.7405  0.2802  2.3359
   80SLPC   H6Y 7443   5.784   5.685   7.507  1.1816  0.2712 -0.5212
   80SLPC   C37 7444   5.589   5.714   7.573 -0.4157  0.6358 -0.2834
   80SLPC   H7X 7445   5.581   5.603   7.571 -0.7596  0.6248  0.7751
   80SLPC   H7Y 7446   5.488   5.755   7.550 -1.5909 -0.9395  1.6816
   80SLPC   C38 7447   5.614   5.758   7.717 -0.7304  0.1782 -0.6654
   80SLPC   H8X 7448   5.513   5.753   7.762 -0.6676 -1.7498 -0.6482
   80SLPC   H8Y 7449   5.652   5.862   7.706 -1.0114  0.3056 -0.4538
   80SLPC   C39 7450   5.717   5.674   7.798  0.2669  0.5913  0.5907
   80SLPC   H9X 7451   5.822   5.709   7.791  1.3425 -1.5198  3.7401
   80SLPC   H9Y 7452   5.713   5.575   7.749 -0.7544  0.6210  0.5969
   80SLPC  C310 7453   5.694   5.675   7.947 -0.1092 -0.0291 -0.0209
   80SLPC  H10X 7454   5.685   5.782   7.974 -0.6538  0.2361 -1.1678
   80SLPC  H10Y 7455   5.778   5.631   8.004  0.2640 -0.0323 -0.5668
   80SLPC  C311 7456   5.566   5.615   8.001  0.1468 -0.1906 -0.0550
   80SLPC  H11X 7457   5.575   5.504   7.999  0.4648 -0.1602 -1.0469
   80SLPC  H11Y 7458   5.484   5.647   7.933  1.2348  1.4703 -0.6650
   80SLPC  C312 7459   5.532   5.666   8.147  0.0493  0.3224  0.0363
   80SLPC  H12X 7460   5.519   5.775   8.130  1.0021  0.2433 -1.4859
   80SLPC  H12Y 7461   5.621   5.646   8.210  0.1543  0.2761 -0.1250
   80SLPC  C313 7462   5.392   5.604   8.197 -0.2624  0.3769 -0.4311
   80SLPC  H13X 7463   5.406   5.496   8.220 -0.6361  0.3748 -0.2195
   80SLPC  H13Y 7464   5.321   5.629   8.116  0.5791  0.0845 -1.2794
   80SLPC  C314 7465   5.350   5.679   8.322  0.1031  0.1440  0.0419
   80SLPC  H14X 7466   5.297   5.768   8.282  1.2096 -0.2022 -2.3800
   80SLPC  H14Y 7467   5.440   5.698   8.384 -0.5309  0.1162  0.9912
   80SLPC  C315 7468   5.247   5.594   8.398 -0.2052  0.3626  0.3694
   80SLPC  H15X 7469   5.268   5.487   8.374  2.6361  0.9875 -0.3452
   80SLPC  H15Y 7470   5.142   5.613   8.370  0.4735  3.6878 -0.2800
   80SLPC  C316 7471   5.274   5.615   8.548 -0.1607  0.1994  1.0840
   80SLPC  H16X 7472   5.227   5.709   8.582 -1.2198 -0.4465  1.4779
   80SLPC  H16Y 7473   5.383   5.609   8.569 -0.2779 -1.1521  1.3853
   80SLPC  C317 7474   5.213   5.500   8.632 -0.1175  0.1063  0.5688
   80SLPC  H17X 7475   5.256   5.522   8.732 -0.2633  1.9383  0.2598
   80SLPC  H17Y 7476   5.242   5.402   8.587  1.8353  0.6495  0.5382
   80SLPC  C318 7477   5.058   5.518   8.641 -0.4857 -0.2625  0.3343
   80SLPC  H18X 7478   5.031   5.621   8.671 -0.9785  0.1083 -1.3202
   80SLPC  H18Y 7479   5.022   5.459   8.728 -2.1187  0.0520 -0.0920
   80SLPC  H18Z 7480   5.012   5.495   8.542 -0.4995  1.4409 -0.0820
   81SAPS     N 7481   5.887   1.103  11.468  0.6031 -0.2383  0.4353
   81SAPS   HN1 7482   5.927   1.073  11.377 -2.5058 -0.3523 -0.9914
   81SAPS   HN2 7483   5.791   1.140  11.454  0.8445  0.1944 -0.0890
   81SAPS   HN3 7484   5.945   1.170  11.522  1.5824  0.6041 -1.5712
   81SAPS   C12 7485   5.879   0.970  11.544  0.1929  0.4326  0.1731
   81SAPS  H12A 7486   5.982   0.943  11.564  0.0999 -0.1778 -0.1395
   81SAPS   C13 7487   5.804   0.971  11.680  0.4707 -0.1043 -0.1154
   81SAPS  O13A 7488   5.756   1.086  11.706 -0.1976  0.3218 -0.1862
   81SAPS  O13B 7489   5.764   0.870  11.738  0.0179 -0.0372  0.2904
   81SAPS   C11 7490   5.801   0.866  11.456  0.5446 -0.1157  0.1206
   81SAPS  H11A 7491   5.697   0.898  11.431 -0.0505 -0.1359  2.3637
   81SAPS  H11B 7492   5.790   0.765  11.501  0.4469 -1.4585 -2.6841
   81SAPS     P 7493   5.990   0.739  11.325  0.3420  0.1394  0.0261
   81SAPS   O13 7494   6.071   0.739  11.444 -0.3949  0.6707  0.1104
   81SAPS   O14 7495   5.934   0.615  11.282  0.4506  0.1416 -0.7326
   81SAPS   O12 7496   5.872   0.840  11.335 -0.5414 -0.1266 -0.7111
   81SAPS   O11 7497   6.069   0.786  11.195 -0.4729  0.2759 -0.9608
   81SAPS    C1 7498   6.001   0.869  11.099 -1.1482 -0.0103 -0.1513
   81SAPS    HA 7499   5.906   0.825  11.063 -1.4915  2.4554 -2.5771
   81SAPS    HB 7500   5.971   0.964  11.148 -0.3363 -0.9547  2.3342
   81SAPS    C2 7501   6.085   0.910  10.979 -0.5524 -0.8114 -0.1747
   81SAPS    HS 7502   6.014   0.971  10.920 -0.7056 -1.0499 -0.2377
   81SAPS   O21 7503   6.136   0.815  10.885  0.3622 -0.3033 -0.7104
   81SAPS   C21 7504   6.042   0.743  10.817 -0.4221 -0.0580  1.2529
   81SAPS   O22 7505   5.923   0.767  10.829  0.1322  0.0704  0.4516
   81SAPS   C22 7506   6.114   0.658  10.711 -0.2067 -0.0951 -0.5084
   81SAPS   H2R 7507   6.215   0.693  10.682  0.7873 -1.7642  0.8203
   81SAPS   H2S 7508   6.120   0.555  10.752 -2.5695 -0.1236 -0.0727
   81SAPS    C3 7509   6.204   1.007  11.016  0.7737 -0.0801 -0.1758
   81SAPS    HX 7510   6.278   0.935  11.057  0.5639 -0.1094  0.1535
   81SAPS    HY 7511   6.169   1.072  11.099  0.8720 -1.1954  0.7588
   81SAPS   O31 7512   6.259   1.074  10.903 -0.1011 -0.1296 -0.4650
   81SAPS   C31 7513   6.370   1.153  10.923 -0.6526 -0.3249 -0.1075
   81SAPS   O32 7514   6.412   1.173  11.036 -0.5310  0.0904  0.4140
   81SAPS   C32 7515   6.424   1.210  10.792  0.2545 -0.4243  0.4210
   81SAPS   H2X 7516   6.534   1.208  10.808  0.4126 -1.6749 -0.7358
   81SAPS   H2Y 7517   6.403   1.320  10.792  3.4928  0.2981  1.0397
   81SAPS   C23 7518   6.023   0.641  10.581  0.5432  0.4044  0.0004
   81SAPS   H3R 7519   5.918   0.620  10.610 -0.2211  1.6631 -1.6526
   81SAPS   H3S 7520   6.062   0.546  10.541 -0.4203 -1.6676  3.5212
   81SAPS   C24 7521   5.998   0.757  10.485  0.2781 -0.1994 -0.3090
   81SAPS   H4R 7522   5.968   0.849  10.540  0.5937 -1.2974  1.8171
   81SAPS   H4S 7523   5.917   0.741  10.411 -0.0745 -2.3771  0.4655
   81SAPS   C25 7524   6.131   0.792  10.421 -0.3807 -0.4285  0.6062
   81SAPS   H5R 7525   6.190   0.862  10.481  1.7964  0.3770 -2.2612
   81SAPS   C26 7526   6.198   0.729  10.323 -0.0604  0.3945 -0.1942
   81SAPS   H6R 7527   6.298   0.759  10.291 -0.6322  0.4100 -2.0677
   81SAPS   C27 7528   6.137   0.606  10.244 -0.3596 -0.1033  0.3821
   81SAPS   H7R 7529   6.055   0.648  10.182  0.0059 -1.3601 -0.9903
   81SAPS   H7S 7530   6.096   0.538  10.321 -1.8421  0.3695  0.0385
   81SAPS   C28 7531   6.252   0.536  10.179  0.3854  0.6333  0.3219
   81SAPS   H8R 7532   6.310   0.466  10.241 -1.2506  0.2778  1.5022
   81SAPS   C29 7533   6.289   0.554  10.047  0.0354  0.1939  0.0450
   81SAPS   H9R 7534   6.386   0.509  10.023  0.7219  2.0904 -0.8614
   81SAPS  C210 7535   6.224   0.635   9.942  0.7027 -0.6000  0.1697
   81SAPS  H10R 7536   6.123   0.598   9.911 -0.4253  0.7434  2.0660
   81SAPS  H10S 7537   6.293   0.625   9.855 -1.4796  0.8672 -1.8813
   81SAPS  C211 7538   6.211   0.783   9.967  0.2854  0.0611  0.2597
   81SAPS  H11R 7539   6.205   0.813  10.072 -3.1436  0.6205  0.0401
   81SAPS  C212 7540   6.209   0.885   9.878 -0.1907  0.3134  0.9345
   81SAPS  H12R 7541   6.180   0.987   9.907  2.4638  1.1678  0.8038
   81SAPS  C213 7542   6.193   0.858   9.730 -0.3058 -0.2811 -0.0053
   81SAPS  H13R 7543   6.118   0.923   9.682 -0.5153 -1.1055 -0.8101
   81SAPS  H13S 7544   6.147   0.757   9.719 -1.5384  0.1267  1.1479
   81SAPS  C214 7545   6.331   0.868   9.668  0.2128  0.1973 -0.0705
   81SAPS  H14R 7546   6.409   0.886   9.743 -1.8222 -0.5874  2.3814
   81SAPS  C215 7547   6.362   0.849   9.541 -0.4139 -0.2297 -0.3143
   81SAPS  H15R 7548   6.461   0.881   9.507  0.4276 -0.4545  1.7668
   81SAPS  C216 7549   6.273   0.819   9.430  0.1825 -0.4189 -1.0919
   81SAPS  H16R 7550   6.164   0.806   9.445  0.1256  0.9159 -0.2028
   81SAPS  H16S 7551   6.300   0.722   9.383  0.6646 -0.5241 -0.6060
   81SAPS  C217 7552   6.290   0.916   9.307  0.1877 -0.3539  0.5208
   81SAPS  H17R 7553   6.396   0.921   9.273  0.8907 -1.7180  2.3505
   81SAPS  H17S 7554   6.270   1.023   9.326 -1.4288  0.2823 -3.6633
   81SAPS  C218 7555   6.192   0.874   9.183  0.4116  0.0520 -0.2101
   81SAPS  H18R 7556   6.085   0.890   9.208 -0.9235 -1.8139 -4.0345
   81SAPS  H18S 7557   6.205   0.765   9.169  1.2097  0.0018  0.7578
   81SAPS  C219 7558   6.232   0.932   9.043 -0.3124 -0.3309 -0.4299
   81SAPS  H19R 7559   6.143   0.918   8.979 -1.4015 -2.9551  1.5026
   81SAPS  H19S 7560   6.322   0.882   9.001  0.3259  0.0911  0.3928
   81SAPS  C220 7561   6.258   1.076   9.040  0.2368 -0.3964 -0.7208
   81SAPS  H20R 7562   6.194   1.116   9.121  1.5689 -1.2135  0.8007
   81SAPS  H20S 7563   6.245   1.122   8.939 -1.9160 -0.1551 -0.3873
   81SAPS  H20T 7564   6.365   1.099   9.059 -0.6929  3.0289  1.1850
   81SAPS   C33 7565   6.398   1.123  10.671  0.0684  0.5875  0.5314
   81SAPS   H3X 7566   6.288   1.115  10.655  0.5528 -1.0934 -2.8541
   81SAPS   H3Y 7567   6.452   1.027  10.668 -0.5584  0.2484 -2.1557
   81SAPS   C34 7568   6.469   1.193  10.551  1.0439  0.3660  0.1360
   81SAPS   H4X 7569   6.578   1.208  10.567  1.5455 -2.5905  0.1310
   81SAPS   H4Y 7570   6.425   1.295  10.549 -0.7696 -0.3640  0.9461
   81SAPS   C35 7571   6.438   1.120  10.423 -0.3252 -0.0519  0.6849
   81SAPS   H5X 7572   6.328   1.109  10.417 -0.2305 -0.4398 -3.2312
   81SAPS   H5Y 7573   6.496   1.025  10.421 -1.8505 -1.0097 -1.4322
   81SAPS   C36 7574   6.486   1.196  10.297 -0.3300  0.9588  0.7795
   81SAPS   H6X 7575   6.581   1.247  10.326  0.8816 -0.8464  0.2132
   81SAPS   H6Y 7576   6.404   1.267  10.272 -2.7598 -2.1774 -0.8379
   81SAPS   C37 7577   6.521   1.107  10.170 -0.2299 -0.0923 -0.7693
   81SAPS   H7X 7578   6.429   1.047  10.152 -0.7731  0.8357 -1.1850
   81SAPS   H7Y 7579   6.605   1.048  10.209 -2.1799 -2.2710  0.3638
   81SAPS   C38 7580   6.559   1.190  10.048  1.4825 -0.1509  0.5350
   81SAPS   H8X 7581   6.666   1.218  10.056  2.1613 -2.5493  0.7924
   81SAPS   H8Y 7582   6.499   1.283  10.040 -1.3565 -1.8521  0.5314
   81SAPS   C39 7583   6.538   1.114   9.912 -0.2468  0.5016  0.2529
   81SAPS   H9X 7584   6.433   1.086   9.888  0.5643 -0.7101 -2.2599
   81SAPS   H9Y 7585   6.594   1.019   9.913  0.5241  0.8687 -2.0274
   81SAPS  C310 7586   6.593   1.200   9.798  0.0638 -0.4058 -0.0846
   81SAPS  H10X 7587   6.699   1.228   9.816  0.0091 -0.6704  0.6760
   81SAPS  H10Y 7588   6.530   1.292   9.801  1.1681  0.3679 -0.0424
   81SAPS  C311 7589   6.585   1.131   9.664 -0.0365 -0.1708  0.6679
   81SAPS  H11X 7590   6.481   1.095   9.648 -0.5293  0.3148  2.5701
   81SAPS  H11Y 7591   6.658   1.048   9.663  1.2722  0.9050 -1.1141
   81SAPS  C312 7592   6.626   1.221   9.551  0.3943  0.4966  0.5540
   81SAPS  H12X 7593   6.727   1.262   9.570  2.3542 -3.9509  1.1094
   81SAPS  H12Y 7594   6.541   1.292   9.545 -0.1974 -0.2164  0.2681
   81SAPS  C313 7595   6.655   1.141   9.420  0.3193  0.0012 -0.3901
   81SAPS  H13X 7596   6.556   1.097   9.395  0.3398 -1.4156  1.7412
   81SAPS  H13Y 7597   6.722   1.054   9.438 -0.5270 -0.4741  0.6197
   81SAPS  C314 7598   6.701   1.230   9.303  0.2953  0.4489  0.2354
   81SAPS  H14X 7599   6.811   1.232   9.293  0.4410  0.2828  1.6088
   81SAPS  H14Y 7600   6.667   1.336   9.313 -0.3143  0.2240  0.5980
   81SAPS  C315 7601   6.644   1.176   9.173 -0.0586  0.2935 -0.3790
   81SAPS  H15X 7602   6.546   1.228   9.172 -0.4957 -0.4353  1.4026
   81SAPS  H15Y 7603   6.629   1.066   9.172  2.1897 -0.0647 -0.8352
   81SAPS  C316 7604   6.737   1.211   9.056 -0.6889 -0.3230  0.2688
   81SAPS  H16X 7605   6.822   1.141   9.069 -0.1853 -0.3651 -2.5939
   81SAPS  H16Y 7606   6.772   1.315   9.073 -2.9421  0.1362  2.7839
   81SAPS  C317 7607   6.665   1.216   8.926  0.0726  0.2187 -0.3783
   81SAPS  H17X 7608   6.579   1.284   8.949  1.3774  2.7378 -2.4186
   81SAPS  H17Y 7609   6.611   1.119   8.916  1.2609 -0.7304  1.7406
   81SAPS  C318 7610   6.741   1.277   8.814 -0.7426  0.2372  0.4015
   81SAPS  H18X 7611   6.824   1.212   8.777 -1.4908 -0.1455 -0.6449
   81SAPS  H18Y 7612   6.787   1.377   8.830  1.0478 -0.5064  0.1159
   81SAPS  H18Z 7613   6.673   1.297   8.728  0.9271  0.1819 -0.9887
   82SAPS     N 7614   6.460   4.820  11.073  0.0126 -0.5648  0.2175
   82SAPS   HN1 7615   6.558   4.822  11.039 -0.6359  0.3122 -1.7379
   82SAPS   HN2 7616   6.434   4.752  11.147  1.4683 -1.0431  0.3163
   82SAPS   HN3 7617   6.401   4.807  10.988 -0.9758 -2.0890  1.0967
   82SAPS   C12 7618   6.453   4.962  11.129 -0.0953 -0.6949 -0.4949
   82SAPS  H12A 7619   6.465   5.031  11.047  4.1346 -1.5857 -0.8752
   82SAPS   C13 7620   6.338   4.997  11.219 -0.1002 -0.2719  0.9681
   82SAPS  O13A 7621   6.235   4.918  11.223 -0.6622  0.2607 -0.2988
   82SAPS  O13B 7622   6.330   5.117  11.264 -0.2576  0.6382  0.0536
   82SAPS   C11 7623   6.583   4.981  11.220 -0.3342  0.6948  0.2910
   82SAPS  H11A 7624   6.581   4.905  11.301 -1.7877  0.0551 -0.3092
   82SAPS  H11B 7625   6.575   5.086  11.254  0.7339  1.4977 -1.7363
   82SAPS     P 7626   6.778   5.089  11.076 -0.0991 -0.0477 -0.0743
   82SAPS   O13 7627   6.681   5.199  11.042 -0.6862  0.3932 -0.4935
   82SAPS   O14 7628   6.890   5.111  11.164  0.1297  0.2069  0.0021
   82SAPS   O12 7629   6.699   4.962  11.133 -0.3507  1.1956 -0.5908
   82SAPS   O11 7630   6.845   5.043  10.943  0.3211 -0.2045  0.1946
   82SAPS    C1 7631   6.785   5.035  10.813  0.2322 -0.1190  0.2795
   82SAPS    HA 7632   6.774   4.928  10.787  0.1309 -0.1279  0.3595
   82SAPS    HB 7633   6.677   5.062  10.808  0.3779  0.2470 -2.5891
   82SAPS    C2 7634   6.858   5.112  10.696 -0.2984  0.0450  0.0869
   82SAPS    HS 7635   6.959   5.070  10.680 -1.3527 -1.5340 -3.3080
   82SAPS   O21 7636   6.861   5.253  10.731 -0.4571 -0.2994 -0.2977
   82SAPS   C21 7637   6.959   5.318  10.676  0.1888  0.3776  0.4887
   82SAPS   O22 7638   7.057   5.272  10.619  0.4625  0.0398 -0.6821
   82SAPS   C22 7639   6.920   5.464  10.691 -0.7363  0.1030  0.1081
   82SAPS   H2R 7640   6.871   5.484  10.788 -0.9891  0.3744 -0.0722
   82SAPS   H2S 7641   7.018   5.514  10.703  0.8213 -2.6755 -0.3005
   82SAPS    C3 7642   6.789   5.084  10.558  0.2597  0.4506 -0.1532
   82SAPS    HX 7643   6.683   5.105  10.584 -0.5720 -1.0425 -2.1243
   82SAPS    HY 7644   6.794   4.976  10.531 -1.5086  0.1499  0.6318
   82SAPS   O31 7645   6.821   5.180  10.450 -0.4146  0.3898  0.8968
   82SAPS   C31 7646   6.887   5.121  10.345  0.4740 -0.1258  0.4140
   82SAPS   O32 7647   6.913   5.004  10.335  0.0774  0.9074 -0.4162
   82SAPS   C32 7648   6.925   5.225  10.240 -0.0867 -0.2290 -0.4990
   82SAPS   H2X 7649   6.941   5.320  10.295 -0.3375  0.7180 -2.0115
   82SAPS   H2Y 7650   6.836   5.243  10.175  0.1099  1.6949 -0.2997
   82SAPS   C23 7651   6.842   5.518  10.572 -0.1258 -0.5850  0.9909
   82SAPS   H3R 7652   6.769   5.441  10.538  1.5957 -1.1168 -1.7321
   82SAPS   H3S 7653   6.908   5.540  10.486  0.7991  0.0925  1.8529
   82SAPS   C24 7654   6.766   5.649  10.609 -0.3949  0.0648 -0.3117
   82SAPS   H4R 7655   6.686   5.620  10.680  1.8541 -2.8047  1.2996
   82SAPS   H4S 7656   6.707   5.684  10.522 -0.6725  1.4447  0.4098
   82SAPS   C25 7657   6.849   5.759  10.669  0.1543  0.1688  0.0118
   82SAPS   H5R 7658   6.873   5.736  10.773 -1.7934  0.9734  0.6858
   82SAPS   C26 7659   6.894   5.875  10.617 -0.2284 -0.3660 -0.8635
   82SAPS   H6R 7660   6.948   5.948  10.679 -1.6302  1.6995 -1.9451
   82SAPS   C27 7661   6.877   5.935  10.479 -0.1225 -0.7992  0.5049
   82SAPS   H7R 7662   6.793   6.007  10.481  2.2946  2.2080  1.1051
   82SAPS   H7S 7663   6.857   5.865  10.395  1.1661  0.6534 -1.1024
   82SAPS   C28 7664   7.004   6.000  10.424  0.0483 -0.6754 -0.1840
   82SAPS   H8R 7665   7.098   5.978  10.478  0.8028 -0.8130 -1.5069
   82SAPS   C29 7666   7.003   6.071  10.311 -0.5969  0.9622 -0.2490
   82SAPS   H9R 7667   7.103   6.103  10.281  1.2126 -2.4636  1.5604
   82SAPS  C210 7668   6.894   6.092  10.221 -0.0538 -0.2568  0.6838
   82SAPS  H10R 7669   6.861   6.198  10.233  0.6261  0.0126  0.2441
   82SAPS  H10S 7670   6.807   6.027  10.242  0.5326 -0.4286  2.7689
   82SAPS  C211 7671   6.951   6.079  10.085 -0.4325  0.7232 -0.4410
   82SAPS  H11R 7672   6.964   5.983  10.034  0.0808  0.9754 -0.7920
   82SAPS  C212 7673   7.002   6.175  10.004 -0.0227 -1.5117 -0.1590
   82SAPS  H12R 7674   7.047   6.134   9.913 -0.3674  0.7007 -1.3901
   82SAPS  C213 7675   7.009   6.321  10.027 -0.4972  0.4571  0.2121
   82SAPS  H13R 7676   6.971   6.343  10.130  1.9050  0.8000  1.0871
   82SAPS  H13S 7677   6.947   6.372   9.951 -0.4537 -2.0747 -1.6494
   82SAPS  C214 7678   7.151   6.375  10.031 -0.1744 -0.2725  0.1269
   82SAPS  H14R 7679   7.220   6.327  10.102  0.4618  1.5352  0.8000
   82SAPS  C215 7680   7.205   6.469   9.946 -0.4135  0.2769  0.9042
   82SAPS  H15R 7681   7.310   6.501   9.957 -0.3053  0.0272  0.6124
   82SAPS  C216 7682   7.124   6.539   9.833 -0.0625 -0.1721 -0.0490
   82SAPS  H16R 7683   7.152   6.646   9.838  0.9312 -0.4324  0.3282
   82SAPS  H16S 7684   7.019   6.536   9.869  0.0233 -0.5208  0.1836
   82SAPS  C217 7685   7.125   6.474   9.690  0.2025 -0.3840 -0.4779
   82SAPS  H17R 7686   7.133   6.363   9.695  0.2060 -0.4024 -0.9113
   82SAPS  H17S 7687   7.215   6.508   9.634 -0.2187 -0.5102 -1.2403
   82SAPS  C218 7688   7.012   6.515   9.594 -0.4413 -0.3614 -0.1144
   82SAPS  H18R 7689   6.989   6.622   9.616 -1.4898 -0.3065 -1.3121
   82SAPS  H18S 7690   6.920   6.457   9.615 -0.7628  0.4032  0.6506
   82SAPS  C219 7691   7.051   6.500   9.445  0.8367 -0.4515  0.2093
   82SAPS  H19R 7692   7.090   6.397   9.427  1.1021 -0.9888  3.2698
   82SAPS  H19S 7693   7.139   6.564   9.425  0.7765 -0.3234  0.3521
   82SAPS  C220 7694   6.948   6.528   9.342  0.3640 -0.5620  0.2159
   82SAPS  H20R 7695   6.901   6.627   9.358 -1.1046 -1.1980  0.0004
   82SAPS  H20S 7696   6.854   6.469   9.339 -0.1211  0.2201 -1.0133
   82SAPS  H20T 7697   6.989   6.519   9.239 -0.1251 -3.6298  0.2056
   82SAPS   C33 7698   7.059   5.181  10.183  0.6201  0.8596  0.4375
   82SAPS   H3X 7699   7.028   5.096  10.119 -3.2856  1.4489  1.2702
   82SAPS   H3Y 7700   7.133   5.167  10.264 -0.1282  2.4388  1.4670
   82SAPS   C34 7701   7.135   5.270  10.083 -0.4213  0.3594  0.5334
   82SAPS   H4X 7702   7.214   5.213  10.030 -0.8114 -0.3315  0.6785
   82SAPS   H4Y 7703   7.178   5.361  10.131  0.2383  1.4756 -1.9986
   82SAPS   C35 7704   7.051   5.319   9.960  0.1274  0.1656 -0.6679
   82SAPS   H5X 7705   7.102   5.400   9.903  0.3816  0.7601  0.3829
   82SAPS   H5Y 7706   6.969   5.371  10.013  0.6461  0.9288 -0.5948
   82SAPS   C36 7707   6.984   5.213   9.870  0.0971 -0.2904  0.0617
   82SAPS   H6X 7708   6.943   5.124   9.921 -0.8564 -0.7430 -1.4338
   82SAPS   H6Y 7709   7.067   5.168   9.812  2.6143  2.4098  1.2799
   82SAPS   C37 7710   6.868   5.269   9.783 -0.3235 -0.4271  0.0611
   82SAPS   H7X 7711   6.787   5.282   9.857 -0.2792  1.4092 -0.1629
   82SAPS   H7Y 7712   6.847   5.186   9.712 -0.9132 -2.1809  2.2146
   82SAPS   C38 7713   6.909   5.398   9.710 -0.8848 -0.6770  0.2105
   82SAPS   H8X 7714   7.006   5.380   9.658 -0.3373  1.8888  0.2053
   82SAPS   H8Y 7715   6.916   5.477   9.787 -2.3141  0.4423 -0.7567
   82SAPS   C39 7716   6.799   5.436   9.604 -0.8654  0.6467 -0.3906
   82SAPS   H9X 7717   6.787   5.546   9.609 -2.9456  0.4070  3.0732
   82SAPS   H9Y 7718   6.702   5.399   9.645 -0.2850  1.1977  1.5949
   82SAPS  C310 7719   6.842   5.407   9.465  0.0494 -0.0914  0.2042
   82SAPS  H10X 7720   6.757   5.421   9.394  0.2307 -0.5891 -0.1144
   82SAPS  H10Y 7721   6.870   5.304   9.435  0.3992  0.4701 -1.5496
   82SAPS  C311 7722   6.963   5.496   9.420 -0.2830 -1.1684  0.5011
   82SAPS  H11X 7723   7.060   5.465   9.464  0.8908 -1.3458 -2.0054
   82SAPS  H11Y 7724   6.935   5.599   9.451 -0.6309 -1.3444  0.7873
   82SAPS  C312 7725   6.989   5.492   9.269  0.6441 -0.6138 -0.5540
   82SAPS  H12X 7726   6.893   5.508   9.214  0.1277 -1.5629  0.0459
   82SAPS  H12Y 7727   7.034   5.397   9.235 -1.6729 -2.9577  2.3130
   82SAPS  C313 7728   7.083   5.602   9.215  0.1888 -0.0603  0.5425
   82SAPS  H13X 7729   7.186   5.571   9.244  0.3275  0.9310  1.1423
   82SAPS  H13Y 7730   7.062   5.699   9.264  2.2781 -0.3024  2.0744
   82SAPS  C314 7731   7.077   5.609   9.061 -0.2460 -0.1175 -0.0720
   82SAPS  H14X 7732   6.970   5.623   9.035 -0.1240 -0.3355 -0.7004
   82SAPS  H14Y 7733   7.104   5.506   9.029  1.7587  0.6815 -1.1452
   82SAPS  C315 7734   7.178   5.696   8.981  0.7416  0.6238 -0.5167
   82SAPS  H15X 7735   7.281   5.667   9.012 -0.2347 -1.8169  0.7320
   82SAPS  H15Y 7736   7.156   5.800   9.014  1.6759  1.0570 -1.1962
   82SAPS  C316 7737   7.155   5.679   8.831  0.3245  0.8418  0.0515
   82SAPS  H16X 7738   7.048   5.695   8.804  1.0475  1.9722 -2.3743
   82SAPS  H16Y 7739   7.178   5.574   8.803 -2.0638 -0.8953  3.6773
   82SAPS  C317 7740   7.237   5.777   8.751 -0.0848  0.7334  0.3879
   82SAPS  H17X 7741   7.227   5.742   8.646 -0.8885  2.0452  0.0130
   82SAPS  H17Y 7742   7.345   5.764   8.776 -0.4714  1.5728  2.7363
   82SAPS  C318 7743   7.206   5.926   8.776  0.1751 -0.4301 -0.3208
   82SAPS  H18X 7744   7.248   5.994   8.700  0.6472  2.6466  2.4532
   82SAPS  H18Y 7745   7.246   5.959   8.874  0.6538 -1.1654 -0.2583
   82SAPS  H18Z 7746   7.096   5.932   8.793  0.4198 -1.1501  1.8910
   83SAPS     N 7747   1.174   6.234  11.454  0.0907 -0.5269 -0.0025
   83SAPS   HN1 7748   1.127   6.327  11.450  0.4090 -0.4135 -1.4312
   83SAPS   HN2 7749   1.210   6.215  11.550 -0.7805  0.6821  0.5967
   83SAPS   HN3 7750   1.238   6.236  11.372 -1.5178 -0.3975 -1.3009
   83SAPS   C12 7751   1.061   6.136  11.440  0.8715  0.5124  0.6558
   83SAPS  H12A 7752   1.115   6.049  11.407 -1.3672 -1.6182  2.3105
   83SAPS   C13 7753   0.983   6.102  11.577  0.3000  0.6503  0.5482
   83SAPS  O13A 7754   1.011   6.164  11.683  0.1824  0.1398  0.8143
   83SAPS  O13B 7755   0.886   6.028  11.569 -0.4325  0.3763  0.0840
   83SAPS   C11 7756   0.972   6.192  11.322 -0.0261 -0.0698 -0.9264
   83SAPS  H11A 7757   0.905   6.108  11.293 -0.9632 -0.3299  1.7219
   83SAPS  H11B 7758   1.024   6.233  11.234  0.6530  0.1199 -0.4449
   83SAPS     P 7759   0.914   6.448  11.394  0.1009  0.1735 -0.7306
   83SAPS   O13 7760   0.802   6.513  11.469  0.5100 -0.0633 -0.4111
   83SAPS   O14 7761   1.051   6.476  11.449  0.0971  0.4571 -0.0364
   83SAPS   O12 7762   0.888   6.293  11.380  0.1235  0.2681 -0.1161
   83SAPS   O11 7763   0.915   6.511  11.248 -0.4802 -0.2023 -0.1388
   83SAPS    C1 7764   0.841   6.457  11.137 -0.1044 -0.1538 -0.0405
   83SAPS    HA 7765   0.873   6.355  11.107  3.1275  0.5299  0.7389
   83SAPS    HB 7766   0.733   6.456  11.166  0.4166 -0.7773  2.0450
   83SAPS    C2 7767   0.866   6.547  11.011 -0.2520 -0.1113  0.2091
   83SAPS    HS 7768   0.824   6.489  10.926  0.9485  0.4426 -0.8047
   83SAPS   O21 7769   1.007   6.569  10.993  0.4488 -0.7194 -0.3565
   83SAPS   C21 7770   1.039   6.599  10.871 -0.2283 -0.5348  0.5412
   83SAPS   O22 7771   0.968   6.600  10.773 -0.0046 -0.3679 -0.0441
   83SAPS   C22 7772   1.176   6.645  10.870 -0.3977  0.3108 -0.8189
   83SAPS   H2R 7773   1.218   6.645  10.973  0.3337 -0.7561 -1.0916
   83SAPS   H2S 7774   1.234   6.574  10.807 -1.6784 -1.5750  0.0382
   83SAPS    C3 7775   0.804   6.689  11.024  0.0264  0.2820  0.9275
   83SAPS    HX 7776   0.853   6.741  11.110  1.3279  0.7474 -0.0680
   83SAPS    HY 7777   0.697   6.677  11.050  0.1230 -2.8128  0.2558
   83SAPS   O31 7778   0.806   6.775  10.903  0.4673  0.6621 -0.0954
   83SAPS   C31 7779   0.735   6.745  10.793  0.2478  0.3898 -0.0938
   83SAPS   O32 7780   0.643   6.670  10.784  0.1297  0.7685 -0.3107
   83SAPS   C32 7781   0.789   6.838  10.680  0.6831  0.0943  0.2630
   83SAPS   H2X 7782   0.898   6.855  10.695  0.6885  0.2935  0.0202
   83SAPS   H2Y 7783   0.737   6.937  10.688  0.9807  0.3121 -0.3884
   83SAPS   C23 7784   1.200   6.790  10.804  0.2358 -0.5259  0.6595
   83SAPS   H3R 7785   1.112   6.844  10.845 -1.1020 -1.7854 -0.4069
   83SAPS   H3S 7786   1.172   6.787  10.696 -4.2916 -0.9359  1.6353
   83SAPS   C24 7787   1.336   6.850  10.821  0.0283  0.4420  0.5659
   83SAPS   H4R 7788   1.366   6.877  10.925 -2.7987 -0.1145  1.5996
   83SAPS   H4S 7789   1.340   6.945  10.764  1.2774 -0.4424 -0.9049
   83SAPS   C25 7790   1.437   6.760  10.761 -1.1363  0.4968  0.9333
   83SAPS   H5R 7791   1.489   6.687  10.825 -2.6940 -1.0978  0.4339
   83SAPS   C26 7792   1.463   6.753  10.623  0.1584  0.1895  0.1650
   83SAPS   H6R 7793   1.544   6.688  10.588 -0.2326 -0.2091 -0.0106
   83SAPS   C27 7794   1.402   6.837  10.510 -0.3982  0.8672  0.1319
   83SAPS   H7R 7795   1.482   6.897  10.460 -1.3621  1.8147 -0.3127
   83SAPS   H7S 7796   1.328   6.909  10.549 -1.7498 -1.3669  1.9274
   83SAPS   C28 7797   1.319   6.752  10.419 -0.8996 -0.3022 -1.2117
   83SAPS   H8R 7798   1.283   6.659  10.465  1.4388 -0.0447  1.3932
   83SAPS   C29 7799   1.299   6.782  10.290  0.6214  0.0638  0.2280
   83SAPS   H9R 7800   1.245   6.710  10.227  1.6760 -0.5556  0.0008
   83SAPS  C210 7801   1.351   6.893  10.205  0.2116  0.2728 -0.0608
   83SAPS  H10R 7802   1.364   6.987  10.263  0.3588  0.1333  0.1358
   83SAPS  H10S 7803   1.272   6.924  10.133 -0.4778 -0.4337  0.3762
   83SAPS  C211 7804   1.479   6.881  10.126 -0.1758 -0.1825 -0.3517
   83SAPS  H11R 7805   1.558   6.865  10.200 -2.0542 -1.7934  1.4284
   83SAPS  C212 7806   1.487   6.872   9.987  0.0438 -0.1827  0.2082
   83SAPS  H12R 7807   1.583   6.859   9.935 -0.9838 -1.8780 -1.3948
   83SAPS  C213 7808   1.372   6.882   9.881  0.5869  0.1626 -0.7388
   83SAPS  H13R 7809   1.276   6.863   9.933  1.3396 -3.4519 -0.4633
   83SAPS  H13S 7810   1.386   6.802   9.805  1.5022  1.2798 -1.7954
   83SAPS  C214 7811   1.348   7.016   9.807 -0.3205  0.3752  0.0401
   83SAPS  H14R 7812   1.430   7.087   9.823  0.4512 -0.7678  1.4258
   83SAPS  C215 7813   1.246   7.052   9.733  0.3257 -0.8914 -0.7828
   83SAPS  H15R 7814   1.249   7.154   9.693  0.7239 -2.1540 -4.2883
   83SAPS  C216 7815   1.122   6.968   9.708 -0.3633  0.2909 -0.0421
   83SAPS  H16R 7816   1.029   7.030   9.709 -0.0435  0.7648  0.7663
   83SAPS  H16S 7817   1.109   6.883   9.778  0.6070  0.8041  0.7957
   83SAPS  C217 7818   1.133   6.912   9.561  0.0295  1.1325  0.8852
   83SAPS  H17R 7819   1.057   6.832   9.549  2.0218 -0.8301  0.8530
   83SAPS  H17S 7820   1.228   6.855   9.561  0.4550  1.8089 -0.1557
   83SAPS  C218 7821   1.111   7.007   9.444  0.4866 -0.3825  0.4097
   83SAPS  H18R 7822   1.175   7.098   9.446  0.7015 -0.5077 -0.6209
   83SAPS  H18S 7823   1.003   7.032   9.443 -0.0562 -2.5678  0.3638
   83SAPS  C219 7824   1.132   6.938   9.309 -0.7141 -0.4622 -0.3590
   83SAPS  H19R 7825   1.047   6.870   9.292  1.0817 -2.5817 -1.4032
   83SAPS  H19S 7826   1.222   6.872   9.309 -1.1590 -1.0693 -0.1001
   83SAPS  C220 7827   1.139   7.028   9.181 -0.4216 -0.2383 -0.0071
   83SAPS  H20R 7828   1.218   7.103   9.203  1.1094 -1.9376  0.5642
   83SAPS  H20S 7829   1.046   7.084   9.156  1.0319  1.4417 -1.9583
   83SAPS  H20T 7830   1.177   6.974   9.092 -2.8865 -2.3478  0.0945
   83SAPS   C33 7831   0.781   6.780  10.539  0.3092  0.1904  0.5233
   83SAPS   H3X 7832   0.688   6.720  10.531  1.6913 -1.8018 -1.9169
   83SAPS   H3Y 7833   0.859   6.704  10.517 -0.2344 -0.5166  0.9802
   83SAPS   C34 7834   0.761   6.895  10.438 -0.6699 -0.8575 -0.3481
   83SAPS   H4X 7835   0.832   6.977  10.462  0.1845 -1.1623 -1.6796
   83SAPS   H4Y 7836   0.656   6.927  10.455  0.1220  0.8593  1.6981
   83SAPS   C35 7837   0.771   6.849  10.293  0.0051  0.1225  1.0107
   83SAPS   H5X 7838   0.704   6.918  10.237 -2.4141 -2.8847 -0.1088
   83SAPS   H5Y 7839   0.727   6.748  10.279  2.2980 -0.8719  0.5674
   83SAPS   C36 7840   0.915   6.841  10.240 -0.1122 -0.1987 -0.3473
   83SAPS   H6X 7841   0.985   6.795  10.312  1.2595 -0.4212 -1.7753
   83SAPS   H6Y 7842   0.950   6.944  10.218  0.7073 -0.5174 -0.5339
   83SAPS   C37 7843   0.921   6.750  10.115  0.8054 -0.0760  0.6013
   83SAPS   H7X 7844   0.874   6.650  10.128  0.6910  0.0662  1.3259
   83SAPS   H7Y 7845   1.025   6.748  10.076  0.9469 -0.0624  0.9740
   83SAPS   C38 7846   0.841   6.801   9.996 -0.4627 -0.1021 -0.7670
   83SAPS   H8X 7847   0.876   6.901   9.961  0.8391 -0.2381  0.0546
   83SAPS   H8Y 7848   0.731   6.795  10.005 -0.3946 -1.6222 -0.8159
   83SAPS   C39 7849   0.857   6.719   9.867  0.3361 -0.3763  0.2963
   83SAPS   H9X 7850   0.819   6.615   9.867 -0.3659 -0.1433 -0.7568
   83SAPS   H9Y 7851   0.962   6.715   9.832  0.7042  5.1442 -0.0342
   83SAPS  C310 7852   0.782   6.780   9.748 -0.7723  0.3867 -0.2527
   83SAPS  H10X 7853   0.833   6.876   9.723 -3.7188  2.5542  1.3478
   83SAPS  H10Y 7854   0.673   6.801   9.758 -1.1538 -0.3354 -2.3441
   83SAPS  C311 7855   0.805   6.692   9.622  0.1030 -0.6654 -0.6031
   83SAPS  H11X 7856   0.760   6.591   9.635 -0.1833 -0.5194 -0.4523
   83SAPS  H11Y 7857   0.911   6.667   9.603  0.3001 -1.9389  1.8461
   83SAPS  C312 7858   0.739   6.747   9.490 -0.8842  0.0577  0.2389
   83SAPS  H12X 7859   0.754   6.856   9.500 -1.8140  0.2277 -0.1061
   83SAPS  H12Y 7860   0.633   6.714   9.496 -1.3644  1.2663 -1.1725
   83SAPS  C313 7861   0.799   6.682   9.364  0.3723 -0.1066 -0.4839
   83SAPS  H13X 7862   0.756   6.580   9.352 -1.6533  0.6992 -0.5398
   83SAPS  H13Y 7863   0.906   6.665   9.386  0.9137  4.1819  1.0273
   83SAPS  C314 7864   0.769   6.761   9.235  0.1062  0.1276 -0.1043
   83SAPS  H14X 7865   0.811   6.863   9.236  0.7365 -0.0999 -1.5394
   83SAPS  H14Y 7866   0.658   6.768   9.226 -0.0342  3.0843  2.3278
   83SAPS  C315 7867   0.822   6.696   9.101  1.0030  0.4322 -0.0165
   83SAPS  H15X 7868   0.789   6.593   9.077  4.0840 -0.9377  1.1571
   83SAPS  H15Y 7869   0.933   6.693   9.107  0.9651 -2.5730  0.5598
   83SAPS  C316 7870   0.773   6.783   8.980 -0.3691 -0.3678 -0.0030
   83SAPS  H16X 7871   0.811   6.887   8.995 -0.9453 -0.1440 -0.0489
   83SAPS  H16Y 7872   0.662   6.792   8.980 -0.2813  1.1748 -0.6381
   83SAPS  C317 7873   0.832   6.741   8.840 -0.3293  0.0579  0.1229
   83SAPS  H17X 7874   0.790   6.809   8.762  0.0157  1.2018  0.9078
   83SAPS  H17Y 7875   0.791   6.642   8.808 -1.2934  0.2743  0.6406
   83SAPS  C318 7876   0.979   6.734   8.833 -0.3539 -0.1501  0.5486
   83SAPS  H18X 7877   1.017   6.661   8.908  0.3160 -0.6846 -0.2942
   83SAPS  H18Y 7878   1.030   6.831   8.848 -1.4182  0.3743  0.8851
   83SAPS  H18Z 7879   1.003   6.683   8.738 -2.8384 -2.6676  1.1284
   84SAPS     N 7880   3.114   2.021  11.420  0.1357  0.0118  0.0119
   84SAPS   HN1 7881   3.101   2.124  11.421  0.8960  0.1334 -1.0034
   84SAPS   HN2 7882   3.100   1.994  11.321 -0.0099  0.4380 -0.0882
   84SAPS   HN3 7883   3.054   1.966  11.485  2.0323  0.5534  2.3728
   84SAPS   C12 7884   3.258   1.993  11.461  0.3069 -0.6879 -0.1317
   84SAPS  H12A 7885   3.314   2.079  11.426 -1.2684  0.8497  0.9928
   84SAPS   C13 7886   3.282   1.981  11.617  0.1982  0.1065  0.5422
   84SAPS  O13A 7887   3.181   1.982  11.689  0.2049 -0.4805  0.3175
   84SAPS  O13B 7888   3.401   2.000  11.659  0.5575 -0.0144 -0.0280
   84SAPS   C11 7889   3.297   1.858  11.387 -0.2659 -0.2870  0.9571
   84SAPS  H11A 7890   3.226   1.783  11.427 -0.1587 -1.8416 -1.5816
   84SAPS  H11B 7891   3.402   1.841  11.420 -0.3012 -1.7466  0.3767
   84SAPS     P 7892   3.220   1.764  11.143 -0.0809  0.2112  0.0857
   84SAPS   O13 7893   3.096   1.720  11.213 -0.3871 -0.3607  0.5534
   84SAPS   O14 7894   3.197   1.833  11.012  0.2363  0.2216  0.2154
   84SAPS   O12 7895   3.294   1.866  11.239  0.3913 -0.2544 -0.0782
   84SAPS   O11 7896   3.316   1.636  11.141 -0.3775  0.6403  0.3963
   84SAPS    C1 7897   3.455   1.638  11.129  0.4955  0.4261 -0.4054
   84SAPS    HA 7898   3.501   1.700  11.210  1.8867  1.9675 -2.2716
   84SAPS    HB 7899   3.500   1.537  11.143  4.0172  2.2315  4.7149
   84SAPS    C2 7900   3.507   1.689  10.996 -0.3952  0.8939 -0.5121
   84SAPS    HS 7901   3.489   1.799  10.997 -1.5905  0.7548 -1.9917
   84SAPS   O21 7902   3.434   1.610  10.897 -0.5559  0.3786 -0.1233
   84SAPS   C21 7903   3.426   1.681  10.787 -0.0075  0.2332 -0.2420
   84SAPS   O22 7904   3.462   1.796  10.779  0.2321  0.0547  0.2923
   84SAPS   C22 7905   3.362   1.602  10.669  0.1082 -0.2532  0.8222
   84SAPS   H2R 7906   3.399   1.499  10.688  0.8127  0.0473  1.1174
   84SAPS   H2S 7907   3.253   1.611  10.689  0.1426  3.3863 -0.0397
   84SAPS    C3 7908   3.660   1.670  10.972  0.0401 -0.1692  0.0772
   84SAPS    HX 7909   3.694   1.744  10.895 -1.3952 -1.1683 -1.6110
   84SAPS    HY 7910   3.667   1.565  10.936  1.6711  0.4928 -1.7000
   84SAPS   O31 7911   3.744   1.693  11.086 -0.1660 -0.0611 -0.2074
   84SAPS   C31 7912   3.755   1.819  11.122  0.9933 -0.4326  0.3755
   84SAPS   O32 7913   3.693   1.916  11.065 -0.8381 -0.0428 -0.0938
   84SAPS   C32 7914   3.844   1.830  11.252  0.0482 -0.5672 -0.1350
   84SAPS   H2X 7915   3.950   1.842  11.224  0.2116 -1.0669  0.2469
   84SAPS   H2Y 7916   3.842   1.726  11.292  0.7456 -0.2150  0.8337
   84SAPS   C23 7917   3.398   1.667  10.538 -0.3783 -0.2779  0.5721
   84SAPS   H3R 7918   3.507   1.659  10.519 -0.3531  0.8376  0.2088
   84SAPS   H3S 7919   3.367   1.773  10.527 -2.0773 -0.8835 -0.9914
   84SAPS   C24 7920   3.330   1.595  10.421  0.3454 -0.5679 -0.0354
   84SAPS   H4R 7921   3.337   1.484  10.431 -0.4542 -0.5310  1.1733
   84SAPS   H4S 7922   3.372   1.629  10.324 -2.0341  1.9715 -0.2851
   84SAPS   C25 7923   3.182   1.619  10.425 -0.7145  0.3624 -0.1373
   84SAPS   H5R 7924   3.137   1.578  10.517 -1.0329 -3.2229 -1.7378
   84SAPS   C26 7925   3.123   1.689  10.329  0.6352 -0.6258 -0.1020
   84SAPS   H6R 7926   3.017   1.717  10.335  1.3248  3.2812 -2.5651
   84SAPS   C27 7927   3.185   1.734  10.198 -0.0810  0.0477 -0.0445
   84SAPS   H7R 7928   3.225   1.645  10.145 -0.9785 -0.9375  0.8786
   84SAPS   H7S 7929   3.269   1.804  10.220 -0.4104  0.0967  1.1371
   84SAPS   C28 7930   3.091   1.823  10.109 -0.6461  0.0235  0.1498
   84SAPS   H8R 7931   3.061   1.912  10.166  0.3664  0.0091  0.7280
   84SAPS   C29 7932   3.037   1.810   9.981 -0.2048  0.1640 -0.3958
   84SAPS   H9R 7933   2.969   1.887   9.941  0.6209  0.8831 -0.4580
   84SAPS  C210 7934   3.063   1.696   9.889  0.7348  0.2260  0.2057
   84SAPS  H10R 7935   3.146   1.633   9.928  0.6017 -0.9416 -1.3421
   84SAPS  H10S 7936   3.100   1.751   9.800 -0.6361  1.4302  0.3258
   84SAPS  C211 7937   2.938   1.619   9.872  0.3955 -0.0731  0.6478
   84SAPS  H11R 7938   2.885   1.590   9.964 -1.8732 -0.9270 -0.8235
   84SAPS  C212 7939   2.874   1.595   9.754  0.8288  0.0495  0.0595
   84SAPS  H12R 7940   2.782   1.535   9.750  0.1035  1.0383  1.3269
   84SAPS  C213 7941   2.929   1.644   9.619 -0.3997 -0.1084 -0.1018
   84SAPS  H13R 7942   3.032   1.687   9.623 -0.5444  0.3368 -1.0303
   84SAPS  H13S 7943   2.867   1.728   9.580 -1.7261 -1.8023 -1.7892
   84SAPS  C214 7944   2.935   1.519   9.536  0.4544  0.8000  0.4539
   84SAPS  H14R 7945   2.965   1.425   9.583  0.0521  0.8332  0.7860
   84SAPS  C215 7946   2.909   1.517   9.406 -0.0881 -0.9328  0.4040
   84SAPS  H15R 7947   2.913   1.421   9.353  0.0351  0.6356 -2.5879
   84SAPS  C216 7948   2.865   1.629   9.310  0.0729 -0.1612 -0.4012
   84SAPS  H16R 7949   2.800   1.699   9.368 -0.4248  1.2754 -2.5790
   84SAPS  H16S 7950   2.810   1.577   9.229 -0.4582 -3.1557  1.7138
   84SAPS  C217 7951   2.992   1.699   9.247  0.3002 -0.4913  0.3437
   84SAPS  H17R 7952   3.057   1.622   9.201  0.8050  0.3097 -0.3357
   84SAPS  H17S 7953   3.048   1.760   9.321  1.0188  0.2401 -0.7650
   84SAPS  C218 7954   2.946   1.784   9.129  0.9372  0.2382  0.1360
   84SAPS  H18R 7955   2.886   1.722   9.058  0.0087  0.5115  0.6607
   84SAPS  H18S 7956   3.039   1.817   9.077  0.1860  1.4517 -0.4944
   84SAPS  C219 7957   2.870   1.910   9.167  0.1040 -0.7363 -0.5755
   84SAPS  H19R 7958   2.927   1.962   9.246 -1.0614 -0.6164  0.2129
   84SAPS  H19S 7959   2.781   1.881   9.227  0.0757  0.2673 -0.1310
   84SAPS  C220 7960   2.829   2.008   9.057 -0.1725 -0.0075 -0.2781
   84SAPS  H20R 7961   2.769   1.946   8.986  0.0378  0.4563 -0.8634
   84SAPS  H20S 7962   2.907   2.052   8.993 -1.6041  2.1744 -0.6296
   84SAPS  H20T 7963   2.768   2.086   9.108 -2.3758 -0.7513 -1.6233
   84SAPS   C33 7964   3.795   1.937  11.352  0.9007 -0.0906  0.3975
   84SAPS   H3X 7965   3.686   1.945  11.376  1.2693  1.2490  1.7707
   84SAPS   H3Y 7966   3.830   2.033  11.308  2.0661 -0.0037  1.4652
   84SAPS   C34 7967   3.856   1.929  11.490  0.2027  0.1974 -0.4878
   84SAPS   H4X 7968   3.965   1.935  11.469  0.3275 -0.3624 -0.0142
   84SAPS   H4Y 7969   3.832   1.836  11.546 -1.5864  0.0911 -1.3426
   84SAPS   C35 7970   3.808   2.045  11.578  0.7733 -0.3039 -0.4220
   84SAPS   H5X 7971   3.697   2.038  11.575  0.8860 -2.9627 -1.3119
   84SAPS   H5Y 7972   3.837   2.139  11.528  0.0640  0.4356  0.5190
   84SAPS   C36 7973   3.856   2.063  11.717 -0.5625  0.5938  0.4059
   84SAPS   H6X 7974   3.828   2.162  11.759 -1.1305  0.0816  1.2650
   84SAPS   H6Y 7975   3.966   2.057  11.705 -0.6644 -0.1874 -0.2572
   84SAPS   C37 7976   3.787   1.964  11.818 -0.0302  0.1576  0.1544
   84SAPS   H7X 7977   3.823   1.867  11.779 -1.1180  0.9515 -3.1939
   84SAPS   H7Y 7978   3.680   1.983  11.793 -0.2829  0.7148  1.5828
   84SAPS   C38 7979   3.824   1.968  11.965  0.2728 -0.5818 -0.6437
   84SAPS   H8X 7980   3.789   2.069  11.996  1.1430 -1.3556  3.5347
   84SAPS   H8Y 7981   3.935   1.966  11.975  0.2472  1.2949  0.4310
   84SAPS   C39 7982   3.752   1.867  12.061 -0.3342 -0.3231  0.1800
   84SAPS   H9X 7983   3.778   1.893  12.166  0.3477  3.8769 -0.8457
   84SAPS   H9Y 7984   3.792   1.764  12.053 -1.9548 -0.9843  0.4297
   84SAPS  C310 7985   3.602   1.860  12.031 -0.7385  0.7738  0.2653
   84SAPS  H10X 7986   3.589   1.812  11.932  4.0108 -0.2800 -0.1015
   84SAPS  H10Y 7987   3.575   1.967  12.042  1.5044  1.4014  0.1975
   84SAPS  C311 7988   3.529   1.773  12.133 -0.8919 -0.3065 -0.6139
   84SAPS  H11X 7989   3.570   1.795  12.234  0.5830 -1.5077 -0.9173
   84SAPS  H11Y 7990   3.545   1.667  12.106 -1.6588 -0.3749 -0.8236
   84SAPS  C312 7991   3.381   1.792  12.127 -0.7081 -0.7261  0.2468
   84SAPS  H12X 7992   3.340   1.766  12.027  0.7044 -0.3940 -0.4460
   84SAPS  H12Y 7993   3.351   1.897  12.147  0.3759 -0.3920  0.1797
   84SAPS  C313 7994   3.301   1.703  12.220 -0.2242  0.8113 -0.3937
   84SAPS  H13X 7995   3.327   1.722  12.326 -1.6627  0.4612  0.0493
   84SAPS  H13Y 7996   3.331   1.596  12.212  0.2286  0.5987  2.7818
   84SAPS  C314 7997   3.150   1.735  12.223  0.0421 -0.6461 -0.1895
   84SAPS  H14X 7998   3.118   1.773  12.124  1.5065  0.5825 -0.2374
   84SAPS  H14Y 7999   3.155   1.831  12.279  1.0693 -0.2708 -0.8944
   84SAPS  C315 8000   3.045   1.657  12.302 -0.8003  0.5229  0.1886
   84SAPS  H15X 8001   2.959   1.719  12.335 -2.4884 -1.4885 -0.2382
   84SAPS  H15Y 8002   3.106   1.620  12.387  1.8806 -0.7406 -2.0985
   84SAPS  C316 8003   2.991   1.529  12.235 -0.5434 -0.7941 -0.0984
   84SAPS  H16X 8004   3.065   1.493  12.159 -0.8144 -0.3149 -0.5900
   84SAPS  H16Y 8005   2.902   1.556  12.175 -0.3086 -1.9540 -1.0114
   84SAPS  C317 8006   2.954   1.421  12.335 -0.1359  0.6180 -0.1926
   84SAPS  H17X 8007   3.050   1.394  12.383 -0.6900 -1.2572 -0.0792
   84SAPS  H17Y 8008   2.928   1.328  12.280  0.4233 -0.8622  1.9117
   84SAPS  C318 8009   2.836   1.464  12.424  0.4144 -1.0734 -0.8421
   84SAPS  H18X 8010   2.821   1.400  12.514  0.7220 -0.6964 -0.5213
   84SAPS  H18Y 8011   2.741   1.466  12.366  0.3808 -3.1541 -0.9424
   84SAPS  H18Z 8012   2.840   1.559  12.481 -2.3230 -1.3203 -0.1051
   85SAPS     N 8013   6.012   1.638  11.298  0.0719  0.3100  0.3556
   85SAPS   HN1 8014   5.941   1.713  11.301 -0.9636 -0.5986 -0.3674
   85SAPS   HN2 8015   6.015   1.602  11.200 -1.7122  1.8689 -0.3297
   85SAPS   HN3 8016   5.979   1.559  11.357  1.2909 -1.4924 -1.1997
   85SAPS   C12 8017   6.145   1.682  11.350  0.4372  0.2879  0.1073
   85SAPS  H12A 8018   6.132   1.693  11.457  2.3426  1.2421  0.2980
   85SAPS   C13 8019   6.263   1.586  11.322  0.9431  0.3409 -0.1054
   85SAPS  O13A 8020   6.239   1.477  11.256  0.0643  0.1053  0.1786
   85SAPS  O13B 8021   6.364   1.611  11.389  0.6451  0.2713  0.0360
   85SAPS   C11 8022   6.185   1.820  11.279 -0.4643  0.4329 -0.3949
   85SAPS  H11A 8023   6.208   1.809  11.171 -0.5649 -1.4305 -0.2514
   85SAPS  H11B 8024   6.280   1.835  11.336 -1.5025  0.1633  1.4997
   85SAPS     P 8025   5.971   1.969  11.217 -0.0880 -0.5532  0.0130
   85SAPS   O13 8026   5.883   1.854  11.214  0.4667  0.1511 -0.0763
   85SAPS   O14 8027   5.912   2.096  11.266 -0.7978 -0.7057 -0.3395
   85SAPS   O12 8028   6.098   1.925  11.311  0.1588 -0.0092 -0.2400
   85SAPS   O11 8029   6.035   1.992  11.073 -0.0552 -0.0421  0.3284
   85SAPS    C1 8030   6.168   2.055  11.053  0.4010 -0.2661 -0.9296
   85SAPS    HA 8031   6.203   2.111  11.143 -0.6330 -0.5701 -0.3150
   85SAPS    HB 8032   6.248   1.987  11.016  2.8306 -0.0700  3.3128
   85SAPS    C2 8033   6.157   2.164  10.938 -0.2725 -0.1650  1.0863
   85SAPS    HS 8034   6.087   2.244  10.970 -1.1375 -0.6033  0.3266
   85SAPS   O21 8035   6.100   2.093  10.826  0.1116 -0.4040  0.0893
   85SAPS   C21 8036   6.037   2.169  10.736  0.9699 -0.6472 -1.6718
   85SAPS   O22 8037   6.020   2.291  10.747  0.3782  0.2333 -0.5202
   85SAPS   C22 8038   5.975   2.080  10.629  0.0254  0.6092 -0.1023
   85SAPS   H2R 8039   6.054   2.014  10.589  0.6233  2.6484 -2.5764
   85SAPS   H2S 8040   5.902   2.017  10.685 -0.4637 -0.2865 -1.6807
   85SAPS    C3 8041   6.279   2.244  10.888  0.4109 -0.2491 -0.1936
   85SAPS    HX 8042   6.312   2.310  10.971  0.1436  0.7376 -0.8577
   85SAPS    HY 8043   6.260   2.316  10.805 -0.3290 -1.6376 -1.2663
   85SAPS   O31 8044   6.389   2.156  10.873  0.1927  0.4302  0.1533
   85SAPS   C31 8045   6.417   2.133  10.742  0.6813  0.0060  0.4054
   85SAPS   O32 8046   6.381   2.214  10.653 -0.0294 -0.4336 -0.2478
   85SAPS   C32 8047   6.512   2.010  10.722 -0.1277  0.1397  0.5215
   85SAPS   H2X 8048   6.489   1.939  10.804 -1.9770  0.5462  0.3882
   85SAPS   H2Y 8049   6.614   2.050  10.743  0.0127  1.7971 -2.7489
   85SAPS   C23 8050   5.915   2.158  10.512  0.4814  0.6765 -0.5444
   85SAPS   H3R 8051   5.839   2.228  10.554 -1.1902 -2.0623  1.3207
   85SAPS   H3S 8052   5.848   2.091  10.455 -0.0203  0.1256  0.6638
   85SAPS   C24 8053   6.007   2.239  10.425 -0.4212 -0.3439  0.0168
   85SAPS   H4R 8054   6.000   2.340  10.472  0.9807  0.1829 -0.8520
   85SAPS   H4S 8055   5.954   2.255  10.328 -1.6172  1.1707  0.8726
   85SAPS   C25 8056   6.149   2.208  10.416 -0.7727 -0.2281  0.7241
   85SAPS   H5R 8057   6.198   2.199  10.514  0.9371  1.0121  0.0286
   85SAPS   C26 8058   6.226   2.180  10.304 -0.1302  0.1934 -0.6098
   85SAPS   H6R 8059   6.335   2.176  10.319 -0.5443  0.7708  3.7058
   85SAPS   C27 8060   6.183   2.182  10.159 -0.2778 -0.0519 -0.0299
   85SAPS   H7R 8061   6.186   2.290  10.132  2.1257  0.0163  0.3222
   85SAPS   H7S 8062   6.076   2.154  10.146  0.5960 -2.8037 -2.2509
   85SAPS   C28 8063   6.262   2.097  10.065 -0.1940 -0.4422  0.7037
   85SAPS   H8R 8064   6.297   2.000  10.104  0.9900 -0.4599 -0.3553
   85SAPS   C29 8065   6.281   2.106   9.931 -0.5361 -0.8192 -0.5324
   85SAPS   H9R 8066   6.331   2.020   9.884 -0.6241 -0.4637 -1.2828
   85SAPS  C210 8067   6.235   2.221   9.839  0.3080  0.1784  0.2327
   85SAPS  H10R 8068   6.203   2.310   9.896  3.4196  1.6388 -0.1068
   85SAPS  H10S 8069   6.139   2.186   9.794  1.2055  0.3623 -1.9254
   85SAPS  C211 8070   6.327   2.261   9.726  0.2331  0.1522  0.3134
   85SAPS  H11R 8071   6.390   2.346   9.756  0.6937  0.8545 -2.3685
   85SAPS  C212 8072   6.347   2.196   9.608  0.6036  0.1372  0.7302
   85SAPS  H12R 8073   6.436   2.224   9.550  1.1434  1.3777  2.0915
   85SAPS  C213 8074   6.265   2.074   9.560 -0.3883  0.2824 -0.4964
   85SAPS  H13R 8075   6.163   2.080   9.604 -0.0849  1.0040  0.1468
   85SAPS  H13S 8076   6.311   1.987   9.610  0.6185 -0.1937 -2.1977
   85SAPS  C214 8077   6.266   2.055   9.412  0.3010 -0.3228  0.2157
   85SAPS  H14R 8078   6.346   1.998   9.363 -0.0166 -0.6832  0.1094
   85SAPS  C215 8079   6.180   2.127   9.330 -0.0368 -0.0915 -0.3668
   85SAPS  H15R 8080   6.177   2.111   9.222 -2.5098 -0.0402 -0.3820
   85SAPS  C216 8081   6.070   2.214   9.359  0.5009 -0.1150 -0.5150
   85SAPS  H16R 8082   6.055   2.215   9.469  1.8882 -1.6155 -0.2606
   85SAPS  H16S 8083   5.980   2.171   9.310  0.0366  0.1308  0.1122
   85SAPS  C217 8084   6.070   2.363   9.308  0.2037 -0.1126  0.0938
   85SAPS  H17R 8085   6.158   2.421   9.344  1.4667 -0.5513 -2.0698
   85SAPS  H17S 8086   5.978   2.419   9.333 -1.7193 -3.3903  0.8786
   85SAPS  C218 8087   6.095   2.365   9.155 -0.4783 -0.1256 -0.0033
   85SAPS  H18R 8088   6.034   2.291   9.100 -0.9967 -1.2386  1.9543
   85SAPS  H18S 8089   6.197   2.331   9.128 -1.3975 -2.8645 -0.3433
   85SAPS  C219 8090   6.055   2.508   9.096 -0.7394 -0.5552 -0.3889
   85SAPS  H19R 8091   6.117   2.581   9.152 -1.1744  0.5831 -1.3606
   85SAPS  H19S 8092   5.948   2.536   9.101 -1.4262 -3.1377  1.7174
   85SAPS  C220 8093   6.102   2.510   8.952 -0.3857 -0.4465  0.2753
   85SAPS  H20R 8094   6.209   2.481   8.957 -0.6815 -1.6286 -0.0226
   85SAPS  H20S 8095   6.090   2.610   8.903  0.2260 -0.4182  0.1762
   85SAPS  H20T 8096   6.053   2.429   8.894 -0.9615  0.5506 -0.6660
   85SAPS   C33 8097   6.509   1.948  10.583 -0.0225  0.1038  0.5044
   85SAPS   H3X 8098   6.403   1.920  10.565  0.3624 -0.1596 -1.6079
   85SAPS   H3Y 8099   6.551   1.846  10.596 -2.6179 -1.2587 -1.0712
   85SAPS   C34 8100   6.588   2.018  10.474 -0.0209 -0.2124 -0.1348
   85SAPS   H4X 8101   6.696   2.011  10.496  0.1687 -0.2171 -1.0285
   85SAPS   H4Y 8102   6.556   2.125  10.475 -0.3827 -0.3233  0.2671
   85SAPS   C35 8103   6.576   1.949  10.343  1.5393 -0.2078 -0.0064
   85SAPS   H5X 8104   6.472   1.952  10.303  2.7778  1.5897 -3.4414
   85SAPS   H5Y 8105   6.586   1.839  10.351 -0.7152 -0.6634 -2.2616
   85SAPS   C36 8106   6.661   2.007  10.224  0.6157  0.0250  0.2197
   85SAPS   H6X 8107   6.768   1.993  10.247  0.6184  0.6735  0.6351
   85SAPS   H6Y 8108   6.642   2.115  10.205  1.3319  0.1503  0.2137
   85SAPS   C37 8109   6.627   1.929  10.093 -0.1899 -0.1830  0.0993
   85SAPS   H7X 8110   6.527   1.881  10.097  0.0222 -0.5821  2.3529
   85SAPS   H7Y 8111   6.705   1.850  10.093  0.8243  0.6888  2.8755
   85SAPS   C38 8112   6.636   2.021   9.964 -0.3892 -0.1265 -0.1791
   85SAPS   H8X 8113   6.739   2.064   9.961  1.0924 -3.2709  1.0439
   85SAPS   H8Y 8114   6.565   2.105   9.977  2.1822  2.0583  0.7923
   85SAPS   C39 8115   6.619   1.940   9.837  0.6765  0.4548  0.5603
   85SAPS   H9X 8116   6.514   1.905   9.834  1.1213 -0.8624 -0.4298
   85SAPS   H9Y 8117   6.677   1.845   9.832  0.9396  0.6419 -0.0598
   85SAPS  C310 8118   6.643   2.022   9.711  0.4378  0.2385 -0.7968
   85SAPS  H10X 8119   6.583   2.115   9.717  0.0327 -0.0102 -0.9991
   85SAPS  H10Y 8120   6.605   1.960   9.628 -0.2394  0.2793 -0.5206
   85SAPS  C311 8121   6.786   2.049   9.697 -0.6529  0.5859 -0.3500
   85SAPS  H11X 8122   6.848   1.957   9.707 -1.2860  0.2473  0.5233
   85SAPS  H11Y 8123   6.835   2.117   9.770  1.6181 -1.8685  0.6023
   85SAPS  C312 8124   6.829   2.106   9.552  0.2163 -0.0965  0.3688
   85SAPS  H12X 8125   6.940   2.118   9.554  0.1124  1.8494 -1.7467
   85SAPS  H12Y 8126   6.808   2.216   9.551  0.2409 -0.0723  1.2678
   85SAPS  C313 8127   6.800   2.024   9.426  0.4142 -0.0140  0.3392
   85SAPS  H13X 8128   6.693   2.013   9.398  0.6020  0.5629 -0.6932
   85SAPS  H13Y 8129   6.819   1.921   9.462 -2.8029  0.2054  3.2046
   85SAPS  C314 8130   6.884   2.057   9.298  0.0566 -0.0933  0.1898
   85SAPS  H14X 8131   6.904   1.959   9.251 -2.9747 -0.8698  0.3334
   85SAPS  H14Y 8132   6.984   2.095   9.330  0.8329  0.3256 -2.5192
   85SAPS  C315 8133   6.805   2.149   9.198 -0.4029  0.0098 -0.3266
   85SAPS  H15X 8134   6.879   2.172   9.119 -3.8624  1.3761 -3.4787
   85SAPS  H15Y 8135   6.767   2.245   9.239 -2.7424 -0.0745 -2.0765
   85SAPS  C316 8136   6.682   2.073   9.134  0.2404  0.0352  0.2744
   85SAPS  H16X 8137   6.603   2.047   9.207  0.2311 -0.0033  0.2505
   85SAPS  H16Y 8138   6.717   1.980   9.084 -0.0063  1.6260 -3.1506
   85SAPS  C317 8139   6.611   2.152   9.023 -0.6870 -0.2774 -0.2672
   85SAPS  H17X 8140   6.682   2.160   8.938  0.1675 -0.3982  0.4225
   85SAPS  H17Y 8141   6.585   2.254   9.057 -0.0799 -0.2529  0.1418
   85SAPS  C318 8142   6.480   2.082   8.976 -0.2505 -0.8501 -0.0219
   85SAPS  H18X 8143   6.487   1.971   8.971  0.2424 -0.7798 -3.2850
   85SAPS  H18Y 8144   6.467   2.119   8.872  0.4358  0.8147  0.4572
   85SAPS  H18Z 8145   6.401   2.122   9.042  0.8004  0.8005  0.2957
   86SAPS     N 8146   2.325   2.995  11.431  0.5932  0.4666 -0.5775
   86SAPS   HN1 8147   2.349   2.971  11.529  1.9039 -0.8642 -1.1839
   86SAPS   HN2 8148   2.248   3.064  11.416  0.6184  0.3973 -1.0487
   86SAPS   HN3 8149   2.305   2.905  11.383  0.0884  1.5684 -2.5427
   86SAPS   C12 8150   2.454   3.047  11.375  0.5465  0.4183 -0.3833
   86SAPS  H12A 8151   2.478   3.141  11.422 -1.4206  0.0772  1.4642
   86SAPS   C13 8152   2.573   2.949  11.386  0.1198  0.0848  0.5703
   86SAPS  O13A 8153   2.550   2.839  11.442  0.2952 -0.2017  0.7110
   86SAPS  O13B 8154   2.683   2.980  11.340 -0.3018  0.2788  0.2167
   86SAPS   C11 8155   2.425   3.090  11.226 -0.0414 -0.6749 -0.1694
   86SAPS  H11A 8156   2.367   3.004  11.186  2.4989 -2.3050 -0.6172
   86SAPS  H11B 8157   2.517   3.093  11.164 -1.7033  1.2118 -2.7503
   86SAPS     P 8158   2.215   3.246  11.223  0.1440  0.0680  0.6646
   86SAPS   O13 8159   2.171   3.212  11.361 -0.2270 -0.7147  0.3478
   86SAPS   O14 8160   2.182   3.382  11.175 -0.4443  0.0333  0.0100
   86SAPS   O12 8161   2.373   3.222  11.217  0.1286  0.0706 -0.0212
   86SAPS   O11 8162   2.152   3.147  11.122  0.3900  0.9570 -0.0614
   86SAPS    C1 8163   2.027   3.075  11.139 -0.1468 -1.0757 -0.0990
   86SAPS    HA 8164   2.031   3.011  11.229  1.5940 -1.5562 -0.4825
   86SAPS    HB 8165   1.938   3.139  11.156 -0.3628 -1.0300 -1.3374
   86SAPS    C2 8166   1.978   2.990  11.016 -0.4015 -0.1937  0.1236
   86SAPS    HS 8167   1.879   2.947  11.044  0.4091 -1.9317  0.4242
   86SAPS   O21 8168   2.070   2.876  10.989 -0.4758  0.3942  0.2342
   86SAPS   C21 8169   2.044   2.776  11.071 -0.6686 -0.1792 -0.7566
   86SAPS   O22 8170   1.965   2.772  11.161  0.1338 -0.5310  0.6241
   86SAPS   C22 8171   2.109   2.651  11.023  0.0508 -0.1883 -0.3300
   86SAPS   H2R 8172   2.178   2.618  11.103  1.8420 -1.5213 -2.3062
   86SAPS   H2S 8173   2.032   2.571  11.014  1.0647 -1.4286  1.5298
   86SAPS    C3 8174   1.974   3.077  10.887  0.2450 -0.1929 -0.4445
   86SAPS    HX 8175   2.065   3.138  10.875  0.5668 -0.7492 -0.9009
   86SAPS    HY 8176   1.883   3.138  10.904  0.4578  0.1963 -0.7000
   86SAPS   O31 8177   1.950   2.992  10.772  0.2399 -0.0243  0.4324
   86SAPS   C31 8178   1.906   3.065  10.671 -0.4399 -0.8571  0.0932
   86SAPS   O32 8179   1.919   3.187  10.662  0.0751  0.3986 -0.2937
   86SAPS   C32 8180   1.838   2.975  10.564  0.4736  0.2941 -0.0498
   86SAPS   H2X 8181   1.743   2.941  10.610  0.7987  0.8349  1.0641
   86SAPS   H2Y 8182   1.902   2.889  10.537  0.9718  0.9012 -0.8837
   86SAPS   C23 8183   2.182   2.671  10.888 -0.3557 -0.0473 -0.4663
   86SAPS   H3R 8184   2.267   2.742  10.900  2.3766 -2.9727 -1.1420
   86SAPS   H3S 8185   2.115   2.710  10.808 -0.4190  1.1331  0.1497
   86SAPS   C24 8186   2.247   2.534  10.837 -0.0960  0.7942 -0.2748
   86SAPS   H4R 8187   2.167   2.458  10.826  0.7277 -0.1109 -0.1992
   86SAPS   H4S 8188   2.312   2.490  10.916  2.9890  4.1359 -0.7191
   86SAPS   C25 8189   2.328   2.547  10.712  0.3418  0.2584 -0.1502
   86SAPS   H5R 8190   2.434   2.558  10.741  0.3217  1.1636 -0.3998
   86SAPS   C26 8191   2.288   2.537  10.587 -0.2444 -0.7263  0.5853
   86SAPS   H6R 8192   2.362   2.547  10.507  1.1943  0.0420  1.9632
   86SAPS   C27 8193   2.153   2.511  10.539  0.3218  0.0440  1.0945
   86SAPS   H7R 8194   2.077   2.527  10.619 -0.6742  1.2104 -0.0478
   86SAPS   H7S 8195   2.156   2.401  10.526 -1.5709  0.1297 -0.4103
   86SAPS   C28 8196   2.098   2.585  10.421  0.4354  0.7184  0.6246
   86SAPS   H8R 8197   2.068   2.688  10.448 -0.6263  0.3764  0.8200
   86SAPS   C29 8198   2.095   2.548  10.297  0.2321  0.1581  0.9773
   86SAPS   H9R 8199   2.032   2.605  10.228 -0.7343 -1.3995  0.5283
   86SAPS  C210 8200   2.147   2.425  10.225  0.0298  0.4345  0.0056
   86SAPS  H10R 8201   2.186   2.341  10.285  1.0727 -0.5157 -1.9186
   86SAPS  H10S 8202   2.237   2.461  10.171  0.8376  0.7451  1.5324
   86SAPS  C211 8203   2.055   2.366  10.118 -0.3568 -0.3925 -0.8567
   86SAPS  H11R 8204   2.030   2.263  10.145  0.6937 -0.0901  1.4930
   86SAPS  C212 8205   2.018   2.414  10.000 -0.3579 -0.7669  0.6933
   86SAPS  H12R 8206   1.956   2.348   9.937 -1.4037 -1.1336  2.0506
   86SAPS  C213 8207   2.060   2.553   9.955  0.8781 -0.0863 -0.3282
   86SAPS  H13R 8208   2.146   2.528   9.888 -0.9567 -1.5521 -2.2713
   86SAPS  H13S 8209   2.096   2.612  10.042 -1.5157  0.2775  0.4752
   86SAPS  C214 8210   1.955   2.642   9.907  0.6522  0.0366 -0.6272
   86SAPS  H14R 8211   1.883   2.659   9.988  0.4291  0.9954 -1.0166
   86SAPS  C215 8212   1.938   2.698   9.790 -0.3382 -0.3596  0.5977
   86SAPS  H15R 8213   1.858   2.773   9.785  0.2675  0.2776  0.3183
   86SAPS  C216 8214   2.025   2.682   9.671 -0.2028  0.3367 -0.5372
   86SAPS  H16R 8215   2.122   2.643   9.708 -0.9008  0.0053  1.0159
   86SAPS  H16S 8216   2.053   2.777   9.619  2.8508  0.5150  1.1841
   86SAPS  C217 8217   1.968   2.580   9.570  0.0020  0.2253  0.2683
   86SAPS  H17R 8218   1.860   2.592   9.550 -0.0112 -0.4292 -0.0717
   86SAPS  H17S 8219   1.974   2.480   9.618 -1.2772  0.5313  1.1028
   86SAPS  C218 8220   2.042   2.590   9.443  0.0144 -0.3526  0.0940
   86SAPS  H18R 8221   2.145   2.551   9.462  0.3155 -0.2943 -1.2900
   86SAPS  H18S 8222   2.048   2.695   9.409  1.3303 -0.3609  0.2257
   86SAPS  C219 8223   1.984   2.508   9.324 -0.0952 -0.0529  0.0038
   86SAPS  H19R 8224   1.894   2.560   9.285 -0.8594 -1.2042  0.1743
   86SAPS  H19S 8225   1.954   2.411   9.368  0.1145  0.0872  0.4575
   86SAPS  C220 8226   2.082   2.493   9.208 -0.1557 -0.8508 -0.4340
   86SAPS  H20R 8227   2.171   2.448   9.257 -0.5834 -1.7513 -0.4646
   86SAPS  H20S 8228   2.112   2.586   9.156  0.2649 -0.2486  0.8322
   86SAPS  H20T 8229   2.040   2.425   9.131 -0.6949  0.8287 -1.6856
   86SAPS   C33 8230   1.804   3.060  10.429 -0.4231 -0.4583  0.0279
   86SAPS   H3X 8231   1.792   3.166  10.459  0.2492 -0.3405 -0.0901
   86SAPS   H3Y 8232   1.709   3.025  10.385 -0.2242  1.0488 -1.7342
   86SAPS   C34 8233   1.924   3.062  10.334  0.4075  1.2823 -0.0406
   86SAPS   H4X 8234   1.972   2.962  10.328  0.2813  0.8912  3.2931
   86SAPS   H4Y 8235   2.000   3.137  10.364 -0.5913  1.3197  2.7409
   86SAPS   C35 8236   1.878   3.101  10.194 -0.3930  0.2803 -0.0823
   86SAPS   H5X 8237   1.825   3.198  10.204 -2.0928 -0.6438  0.2356
   86SAPS   H5Y 8238   1.809   3.018  10.169 -1.4553  0.5941  1.6527
   86SAPS   C36 8239   1.990   3.108  10.092 -0.1827  0.1551 -0.3852
   86SAPS   H6X 8240   2.028   3.009  10.060 -2.0028 -0.1373 -1.8073
   86SAPS   H6Y 8241   2.077   3.167  10.128  1.4081 -1.3365 -1.6261
   86SAPS   C37 8242   1.944   3.166   9.955  0.1232  0.0975 -0.7980
   86SAPS   H7X 8243   1.928   3.276   9.968 -1.9451 -0.1572 -0.8645
   86SAPS   H7Y 8244   1.847   3.113   9.940 -1.3141  2.4173 -0.2766
   86SAPS   C38 8245   2.041   3.139   9.838  0.5723  0.0713  0.2886
   86SAPS   H8X 8246   2.095   3.042   9.834 -0.4136 -0.4556 -0.4486
   86SAPS   H8Y 8247   2.119   3.217   9.853  1.4203 -1.1345  2.7055
   86SAPS   C39 8248   1.953   3.151   9.708  0.5104 -0.2769 -0.3563
   86SAPS   H9X 8249   1.877   3.230   9.721  0.1659 -0.5832 -0.5063
   86SAPS   H9Y 8250   1.910   3.050   9.693 -0.4184  0.2785 -1.6270
   86SAPS  C310 8251   2.049   3.196   9.598  0.0344 -0.0662  0.3945
   86SAPS  H10X 8252   2.125   3.120   9.572  0.6908  1.1868 -1.6028
   86SAPS  H10Y 8253   2.110   3.280   9.639  0.3012 -0.9289  1.8314
   86SAPS  C311 8254   1.970   3.237   9.464 -0.7610  0.4252  0.4237
   86SAPS  H11X 8255   1.886   3.303   9.496 -0.9948  0.9278 -1.1588
   86SAPS  H11Y 8256   1.938   3.142   9.417  0.2675 -0.1780  0.9213
   86SAPS  C312 8257   2.065   3.303   9.368  0.6437  0.2680  0.1383
   86SAPS  H12X 8258   2.149   3.233   9.350 -1.0169 -1.2313 -2.3420
   86SAPS  H12Y 8259   2.100   3.392   9.426 -0.6405  0.6206  0.4049
   86SAPS  C313 8260   1.989   3.348   9.242  0.4891  0.0577  0.0506
   86SAPS  H13X 8261   1.921   3.433   9.262  0.8186 -0.1411  2.2522
   86SAPS  H13Y 8262   1.921   3.267   9.209 -0.4336  1.5165 -1.8020
   86SAPS  C314 8263   2.075   3.374   9.116 -0.1930  0.9402 -0.0882
   86SAPS  H14X 8264   2.135   3.281   9.110 -3.1836 -1.2299  0.8358
   86SAPS  H14Y 8265   2.138   3.463   9.134 -0.2599  0.6571  1.7895
   86SAPS  C315 8266   1.987   3.378   8.994 -0.4970  0.0827  0.4209
   86SAPS  H15X 8267   1.912   3.458   9.012 -0.3234  0.2689  0.3201
   86SAPS  H15Y 8268   1.940   3.282   8.964  0.8163  0.1723 -2.2499
   86SAPS  C316 8269   2.053   3.424   8.854 -0.6923 -0.1964 -0.8553
   86SAPS  H16X 8270   2.108   3.519   8.869 -0.3321 -0.2999 -1.4950
   86SAPS  H16Y 8271   1.962   3.444   8.794 -0.5094  0.1444 -1.0210
   86SAPS  C317 8272   2.147   3.321   8.791 -0.5152  0.3821  0.3042
   86SAPS  H17X 8273   2.092   3.225   8.800  1.2084 -0.4220  3.6595
   86SAPS  H17Y 8274   2.233   3.311   8.860  0.2663  0.0376 -0.6925
   86SAPS  C318 8275   2.195   3.347   8.651  0.6905 -0.1347  0.5384
   86SAPS  H18X 8276   2.231   3.249   8.613  1.4704 -0.1821  1.3746
   86SAPS  H18Y 8277   2.281   3.417   8.646 -0.3299  1.0479 -2.0135
   86SAPS  H18Z 8278   2.125   3.386   8.575  0.3872 -0.5742  0.5861
   87SAPS     N 8279   1.633   3.475  11.245 -0.0985 -0.3448  0.0145
   87SAPS   HN1 8280   1.653   3.573  11.216 -0.0162 -0.8916 -1.9854
   87SAPS   HN2 8281   1.718   3.422  11.215  0.0510  0.1030 -0.3782
   87SAPS   HN3 8282   1.546   3.449  11.194  0.2121 -0.6129 -0.3936
   87SAPS   C12 8283   1.609   3.457  11.389 -0.5606  0.0822  0.1873
   87SAPS  H12A 8284   1.704   3.470  11.438 -0.2356  0.6777 -0.5934
   87SAPS   C13 8285   1.505   3.555  11.459  0.3200 -0.8361 -0.5871
   87SAPS  O13A 8286   1.452   3.649  11.397  0.2764  0.3418  0.0024
   87SAPS  O13B 8287   1.468   3.535  11.579 -0.0547  0.0200 -0.3063
   87SAPS   C11 8288   1.570   3.307  11.405  0.6244 -0.4910 -0.2070
   87SAPS  H11A 8289   1.471   3.289  11.360  1.4816 -2.9296 -1.2593
   87SAPS  H11B 8290   1.573   3.293  11.516  0.0156  0.9585  0.0162
   87SAPS     P 8291   1.662   3.074  11.334 -0.0004 -0.2499  0.5711
   87SAPS   O13 8292   1.769   3.018  11.420  0.1413  0.3707 -0.0942
   87SAPS   O14 8293   1.524   3.028  11.362  0.1819  0.0045 -0.2355
   87SAPS   O12 8294   1.678   3.231  11.346 -0.1006  0.1605 -0.3746
   87SAPS   O11 8295   1.695   3.051  11.180  1.0609 -0.0575  0.5589
   87SAPS    C1 8296   1.628   3.124  11.075  0.6356  0.2575  0.0341
   87SAPS    HA 8297   1.533   3.176  11.100  0.1039 -0.8692  0.4242
   87SAPS    HB 8298   1.700   3.196  11.031  0.1762 -0.3836 -1.8822
   87SAPS    C2 8299   1.564   3.020  10.972 -0.0463 -0.1325 -0.1392
   87SAPS    HS 8300   1.490   2.961  11.031 -2.4336  3.6618  0.9900
   87SAPS   O21 8301   1.669   2.928  10.920  0.1899 -0.0545 -0.1499
   87SAPS   C21 8302   1.621   2.805  10.886  0.0854 -0.1652  0.2925
   87SAPS   O22 8303   1.506   2.769  10.891  0.0378 -0.3980 -0.0067
   87SAPS   C22 8304   1.742   2.717  10.839  0.8835 -0.3656 -0.4817
   87SAPS   H2R 8305   1.793   2.763  10.752  0.9242  0.9803  0.2226
   87SAPS   H2S 8306   1.820   2.710  10.918  1.1906 -0.5949 -0.8050
   87SAPS    C3 8307   1.486   3.092  10.865  0.0674 -0.2377  0.2954
   87SAPS    HX 8308   1.559   3.138  10.795  0.5495 -1.3727  0.0191
   87SAPS    HY 8309   1.427   3.177  10.906  1.3212  0.1585  1.3383
   87SAPS   O31 8310   1.392   3.010  10.788 -0.0531 -0.3544 -0.2417
   87SAPS   C31 8311   1.418   2.974  10.666  0.0262 -0.2260  1.0162
   87SAPS   O32 8312   1.517   3.003  10.600  0.2633 -0.5279  0.2781
   87SAPS   C32 8313   1.307   2.895  10.608  0.0629  0.3121  0.5295
   87SAPS   H2X 8314   1.224   2.965  10.585  0.4151  0.5320 -0.1267
   87SAPS   H2Y 8315   1.286   2.817  10.683 -1.8477  1.1757  0.9488
   87SAPS   C23 8316   1.700   2.570  10.820 -0.0123 -0.5433 -0.3446
   87SAPS   H3R 8317   1.609   2.559  10.757 -1.9969  0.4345  2.1940
   87SAPS   H3S 8318   1.678   2.523  10.918 -1.6014 -1.9761 -1.3437
   87SAPS   C24 8319   1.815   2.492  10.744 -0.2082 -0.0381  0.4823
   87SAPS   H4R 8320   1.905   2.493  10.809 -0.5400 -1.0638  0.9762
   87SAPS   H4S 8321   1.832   2.550  10.651 -0.8523 -0.6982 -0.0601
   87SAPS   C25 8322   1.771   2.355  10.719  0.2846  0.1415  0.4130
   87SAPS   H5R 8323   1.742   2.298  10.809 -0.8415 -0.0622 -0.0582
   87SAPS   C26 8324   1.751   2.296  10.600 -0.2408 -0.7093  1.1222
   87SAPS   H6R 8325   1.725   2.189  10.603  0.7716 -1.0382 -0.8791
   87SAPS   C27 8326   1.768   2.363  10.459  0.5589 -0.1497  0.0258
   87SAPS   H7R 8327   1.771   2.293  10.373  0.5860  1.0474 -0.9807
   87SAPS   H7S 8328   1.856   2.431  10.461  0.8449 -0.3555 -2.5309
   87SAPS   C28 8329   1.651   2.457  10.441 -0.2204  0.3833  0.1355
   87SAPS   H8R 8330   1.599   2.477  10.536 -2.2931 -0.0549 -0.8354
   87SAPS   C29 8331   1.626   2.528  10.323  0.4604  0.6838 -0.3488
   87SAPS   H9R 8332   1.546   2.603  10.314  0.2322  0.4372 -0.3721
   87SAPS  C210 8333   1.706   2.506  10.195 -0.2731 -0.4374  0.1579
   87SAPS  H10R 8334   1.755   2.407  10.177 -0.4642 -0.6253  0.6574
   87SAPS  H10S 8335   1.793   2.575  10.200 -0.3586 -0.4111  1.6227
   87SAPS  C211 8336   1.625   2.533  10.070  0.1921 -0.1249 -0.1810
   87SAPS  H11R 8337   1.599   2.445  10.010  2.3003 -2.8766  2.5430
   87SAPS  C212 8338   1.591   2.662  10.036 -0.6802 -0.5725  0.0385
   87SAPS  H12R 8339   1.535   2.674   9.942  0.2929 -1.7801 -0.7373
   87SAPS  C213 8340   1.625   2.795  10.109  0.4622  0.1431  0.1516
   87SAPS  H13R 8341   1.707   2.843  10.051  0.1505  0.3041 -0.1564
   87SAPS  H13S 8342   1.666   2.770  10.210  0.7451 -1.1656 -0.2556
   87SAPS  C214 8343   1.515   2.886  10.113 -0.1537 -0.1269 -0.2442
   87SAPS  H14R 8344   1.468   2.896  10.212 -1.0351  0.8388 -0.7467
   87SAPS  C215 8345   1.480   2.985  10.027 -0.2113  0.3118  0.4707
   87SAPS  H15R 8346   1.404   3.055  10.066  1.1574  0.6210  2.8151
   87SAPS  C216 8347   1.552   2.992   9.893  0.2353  0.4896 -0.1333
   87SAPS  H16R 8348   1.657   2.954   9.890 -0.3601 -1.2149 -2.2297
   87SAPS  H16S 8349   1.560   3.100   9.869  0.6764  0.4673 -0.0944
   87SAPS  C217 8350   1.468   2.923   9.777  0.5825  0.5034  0.1274
   87SAPS  H17R 8351   1.362   2.953   9.791  0.6449  0.6120  0.3578
   87SAPS  H17S 8352   1.460   2.812   9.780 -1.6185  0.5456 -1.4282
   87SAPS  C218 8353   1.504   2.963   9.630  0.3928  0.0569 -0.6164
   87SAPS  H18R 8354   1.543   3.067   9.639  0.3485  0.0517 -0.3326
   87SAPS  H18S 8355   1.412   2.965   9.569  0.5821  2.6523 -0.9182
   87SAPS  C219 8356   1.616   2.877   9.564  0.4603  0.1982  0.2192
   87SAPS  H19R 8357   1.573   2.775   9.552 -0.6206  0.4684  1.4727
   87SAPS  H19S 8358   1.689   2.865   9.647 -0.0347  2.0420  0.9660
   87SAPS  C220 8359   1.675   2.937   9.429 -0.1287 -0.0974  0.0412
   87SAPS  H20R 8360   1.747   3.016   9.459  1.6959 -1.8756  0.5815
   87SAPS  H20S 8361   1.598   2.981   9.361  0.1388 -0.5585 -0.5662
   87SAPS  H20T 8362   1.718   2.851   9.372 -1.7233  0.2807 -1.8499
   87SAPS   C33 8363   1.340   2.820  10.472 -0.2619 -0.0578  0.0117
   87SAPS   H3X 8364   1.426   2.751  10.487  1.2940  1.1425 -2.6175
   87SAPS   H3Y 8365   1.383   2.884  10.393 -0.0344 -1.5623 -1.1273
   87SAPS   C34 8366   1.217   2.735  10.425 -0.0092  0.4185  0.2003
   87SAPS   H4X 8367   1.123   2.787  10.453 -2.7774 -3.5178 -0.8554
   87SAPS   H4Y 8368   1.211   2.647  10.493  1.2873  0.8423  0.8950
   87SAPS   C35 8369   1.226   2.685  10.280  0.3252 -0.1871 -0.2839
   87SAPS   H5X 8370   1.329   2.644  10.269 -0.1426 -1.4532 -0.0654
   87SAPS   H5Y 8371   1.215   2.783  10.229  0.6995 -0.8636 -1.7091
   87SAPS   C36 8372   1.114   2.589  10.240  0.4046  0.0400 -0.6682
   87SAPS   H6X 8373   1.019   2.646  10.244 -0.1717 -0.5528 -3.6510
   87SAPS   H6Y 8374   1.108   2.512  10.320  0.8257  1.1524  0.4676
   87SAPS   C37 8375   1.148   2.537  10.097  0.0828 -0.1473  0.4577
   87SAPS   H7X 8376   1.069   2.463  10.070  0.0879  0.2238 -0.6104
   87SAPS   H7Y 8377   1.239   2.473  10.103 -0.5053 -1.2059 -1.1077
   87SAPS   C38 8378   1.174   2.642   9.995 -0.4869 -0.4503 -0.0775
   87SAPS   H8X 8379   1.265   2.703  10.013  0.3304 -1.6653  0.0294
   87SAPS   H8Y 8380   1.083   2.706  10.000 -0.6097 -0.6136 -0.2186
   87SAPS   C39 8381   1.179   2.582   9.860 -0.4100  0.6845  0.2785
   87SAPS   H9X 8382   1.094   2.513   9.843 -0.3077  0.6486 -0.0951
   87SAPS   H9Y 8383   1.270   2.520   9.843 -0.8965  0.3827 -1.4025
   87SAPS  C310 8384   1.170   2.687   9.750  0.1005  0.1725  0.3596
   87SAPS  H10X 8385   1.241   2.765   9.783  0.1841 -0.3319  1.4221
   87SAPS  H10Y 8386   1.069   2.734   9.744 -0.3338 -0.7369  0.2134
   87SAPS  C311 8387   1.201   2.651   9.598  0.3774 -0.2033  0.5298
   87SAPS  H11X 8388   1.147   2.558   9.570 -1.5477  1.8014 -3.1921
   87SAPS  H11Y 8389   1.306   2.618   9.587  0.5913  0.6606 -0.2125
   87SAPS  C312 8390   1.183   2.767   9.492 -0.5183  0.2797  0.1932
   87SAPS  H12X 8391   1.268   2.838   9.499  1.4444 -1.2171 -4.5437
   87SAPS  H12Y 8392   1.090   2.826   9.506 -0.1882  0.8467  0.0144
   87SAPS  C313 8393   1.202   2.712   9.347  0.6083  0.5681 -0.3692
   87SAPS  H13X 8394   1.108   2.661   9.317  0.2954  0.4199  0.8132
   87SAPS  H13Y 8395   1.281   2.635   9.337  0.3454  0.4992 -2.5568
   87SAPS  C314 8396   1.228   2.820   9.240 -0.4416  0.3491 -0.0560
   87SAPS  H14X 8397   1.324   2.868   9.269  0.0594 -0.4063 -0.4325
   87SAPS  H14Y 8398   1.160   2.906   9.257 -1.4572 -0.1116 -1.5816
   87SAPS  C315 8399   1.213   2.772   9.096 -0.1676  0.0917  0.8325
   87SAPS  H15X 8400   1.134   2.695   9.085 -0.9175  0.5048  2.8330
   87SAPS  H15Y 8401   1.307   2.725   9.060  0.1486  0.9234  0.5289
   87SAPS  C316 8402   1.172   2.896   9.001 -0.1745  0.2741 -0.6687
   87SAPS  H16X 8403   1.244   2.977   9.026 -0.7806  0.1918  1.5884
   87SAPS  H16Y 8404   1.066   2.915   9.027  0.2971  0.7919  1.0018
   87SAPS  C317 8405   1.185   2.872   8.850 -0.6624  0.1415 -0.3613
   87SAPS  H17X 8406   1.121   2.782   8.837  0.0976 -0.2862 -1.2410
   87SAPS  H17Y 8407   1.289   2.842   8.823 -1.2463 -1.0996 -1.3263
   87SAPS  C318 8408   1.135   2.988   8.766 -0.2241 -0.1287 -0.3255
   87SAPS  H18X 8409   1.200   3.077   8.776 -0.0021 -0.4171  0.9322
   87SAPS  H18Y 8410   1.029   3.009   8.793 -0.5464 -0.7174 -1.0951
   87SAPS  H18Z 8411   1.140   2.960   8.659 -1.0174  0.4618 -0.5250
   88SAPS     N 8412   4.789   1.808  11.358 -0.2665  0.6171 -0.3590
   88SAPS   HN1 8413   4.811   1.849  11.265 -1.8832  0.7112 -0.7413
   88SAPS   HN2 8414   4.695   1.768  11.339 -0.7184  1.3348  0.2933
   88SAPS   HN3 8415   4.773   1.869  11.441 -0.2936 -0.8933  0.8033
   88SAPS   C12 8416   4.878   1.690  11.392  0.5280  0.2034 -0.5245
   88SAPS  H12A 8417   4.974   1.736  11.412 -0.2633  1.3243  0.9950
   88SAPS   C13 8418   4.825   1.601  11.503  0.6183 -0.5893  0.0968
   88SAPS  O13A 8419   4.709   1.624  11.553  0.2644  0.0659 -0.3654
   88SAPS  O13B 8420   4.892   1.501  11.547 -0.5844 -0.7724  0.4227
   88SAPS   C11 8421   4.893   1.602  11.266 -0.1701  0.1819 -0.2027
   88SAPS  H11A 8422   4.792   1.567  11.237 -0.1318 -0.9208  0.9108
   88SAPS  H11B 8423   4.952   1.512  11.294 -0.5116 -0.6873 -2.1603
   88SAPS     P 8424   5.104   1.635  11.110 -0.7624  0.0473 -0.0473
   88SAPS   O13 8425   5.210   1.707  11.190 -0.2556 -0.7319  0.1055
   88SAPS   O14 8426   5.111   1.487  11.115 -0.1518 -0.3092 -0.3248
   88SAPS   O12 8427   4.964   1.680  11.165 -0.1976  0.8324  0.0158
   88SAPS   O11 8428   5.111   1.684  10.957 -0.1691 -0.0794 -0.0211
   88SAPS    C1 8429   4.999   1.659  10.869  0.1330 -0.0517  0.2040
   88SAPS    HA 8430   4.954   1.564  10.906  1.4294  0.6920  4.0723
   88SAPS    HB 8431   4.927   1.742  10.884  0.3031  0.0953  0.2129
   88SAPS    C2 8432   5.038   1.636  10.720 -0.0023  0.2102 -0.6677
   88SAPS    HS 8433   4.950   1.578  10.685 -1.3551  0.3476  2.2150
   88SAPS   O21 8434   5.162   1.566  10.710  0.0129 -0.0847  0.7928
   88SAPS   C21 8435   5.161   1.438  10.744 -0.5604  0.4006  0.1859
   88SAPS   O22 8436   5.072   1.369  10.789 -0.0923  0.1055  0.4679
   88SAPS   C22 8437   5.314   1.401  10.720 -0.7033 -1.2022 -0.0956
   88SAPS   H2R 8438   5.368   1.480  10.663 -2.4918  0.6913  0.6880
   88SAPS   H2S 8439   5.364   1.408  10.819 -1.8602 -1.1187  0.4988
   88SAPS    C3 8440   5.056   1.780  10.657  0.0487 -0.1192 -0.0216
   88SAPS    HX 8441   5.158   1.818  10.678 -0.2401  0.9217 -0.4328
   88SAPS    HY 8442   4.982   1.847  10.707  0.9147  0.5698  0.3618
   88SAPS   O31 8443   5.034   1.768  10.509 -0.2103 -0.2144 -0.5065
   88SAPS   C31 8444   5.132   1.726  10.432 -0.4775 -0.1004 -0.0543
   88SAPS   O32 8445   5.241   1.700  10.471 -0.3039  0.5264  0.5039
   88SAPS   C32 8446   5.086   1.738  10.288  0.1305  0.0168  0.2020
   88SAPS   H2X 8447   5.039   1.837  10.269  0.9285  0.1707 -1.0967
   88SAPS   H2Y 8448   5.000   1.667  10.279  0.2899 -0.0152 -1.2834
   88SAPS   C23 8449   5.323   1.268  10.646  0.1695 -0.4474 -0.2816
   88SAPS   H3R 8450   5.273   1.192  10.710 -0.3575 -1.2309 -1.5829
   88SAPS   H3S 8451   5.428   1.232  10.642  1.0462  1.7505  0.8500
   88SAPS   C24 8452   5.257   1.272  10.505 -0.5924 -0.2774 -0.2069
   88SAPS   H4R 8453   5.149   1.283  10.526 -0.4581 -1.9360  1.6126
   88SAPS   H4S 8454   5.259   1.169  10.465 -0.8309  0.1144 -1.2618
   88SAPS   C25 8455   5.311   1.375  10.410 -0.3289 -0.2750  0.1224
   88SAPS   H5R 8456   5.326   1.477  10.449  0.0360  0.6467 -2.2931
   88SAPS   C26 8457   5.353   1.357  10.285 -0.0754  0.5447 -0.8136
   88SAPS   H6R 8458   5.378   1.442  10.221  1.5356  0.5112 -0.2876
   88SAPS   C27 8459   5.344   1.228  10.204  0.2078 -1.1146 -0.6534
   88SAPS   H7R 8460   5.246   1.220  10.152 -1.2052 -0.9046  1.8122
   88SAPS   H7S 8461   5.356   1.143  10.274 -1.5143  0.6737  1.9714
   88SAPS   C28 8462   5.464   1.219  10.111  0.0242 -0.1915 -0.4940
   88SAPS   H8R 8463   5.559   1.202  10.165 -1.6811 -2.2040  2.1240
   88SAPS   C29 8464   5.470   1.243   9.975  0.4772 -0.7170 -0.9227
   88SAPS   H9R 8465   5.566   1.244   9.920 -0.1100  0.4823 -1.9760
   88SAPS  C210 8466   5.355   1.278   9.887 -1.0214 -0.0577 -0.1667
   88SAPS  H10R 8467   5.358   1.387   9.863 -1.5246  0.5041  2.0774
   88SAPS  H10S 8468   5.264   1.254   9.945 -0.6821 -0.0337  0.3885
   88SAPS  C211 8469   5.349   1.204   9.755 -0.2311 -1.3035  0.3195
   88SAPS  H11R 8470   5.280   1.119   9.755 -1.5835 -0.3746 -2.9884
   88SAPS  C212 8471   5.379   1.249   9.632  0.0195  0.0150  0.4292
   88SAPS  H12R 8472   5.371   1.172   9.555 -4.2871 -0.1347  0.7668
   88SAPS  C213 8473   5.440   1.380   9.596 -0.0372 -0.2289  0.8103
   88SAPS  H13R 8474   5.519   1.378   9.518  0.7884 -0.2358  1.6346
   88SAPS  H13S 8475   5.494   1.420   9.684  0.7721 -1.2889  0.8249
   88SAPS  C214 8476   5.337   1.477   9.547 -0.0102  0.1505  1.0815
   88SAPS  H14R 8477   5.267   1.529   9.615 -0.7866  0.3197  0.1723
   88SAPS  C215 8478   5.318   1.503   9.412 -0.2866 -0.1405  0.4125
   88SAPS  H15R 8479   5.235   1.568   9.381  1.8590  2.6575  0.1788
   88SAPS  C216 8480   5.394   1.434   9.296 -0.1078 -0.4469  0.4502
   88SAPS  H16R 8481   5.428   1.328   9.299  0.2465 -0.3338  0.5697
   88SAPS  H16S 8482   5.484   1.498   9.281 -1.2494  1.3660  1.0679
   88SAPS  C217 8483   5.302   1.436   9.171  0.4325  0.2918 -0.2026
   88SAPS  H17R 8484   5.352   1.415   9.074 -1.4034 -2.3202 -0.6816
   88SAPS  H17S 8485   5.254   1.536   9.164  0.6801  0.4460  0.2651
   88SAPS  C218 8486   5.183   1.338   9.167 -0.2329 -0.5591  0.1352
   88SAPS  H18R 8487   5.099   1.372   9.103  0.5232  0.6904 -0.2448
   88SAPS  H18S 8488   5.149   1.336   9.273 -6.3800 -0.1545 -1.4536
   88SAPS  C219 8489   5.221   1.196   9.122 -0.3106 -0.5064 -0.7389
   88SAPS  H19R 8490   5.142   1.129   9.164 -0.6179  0.5675  0.4543
   88SAPS  H19S 8491   5.317   1.172   9.173 -1.1688 -0.7859  0.8154
   88SAPS  C220 8492   5.239   1.176   8.970  0.1215 -1.1631 -0.1413
   88SAPS  H20R 8493   5.322   1.241   8.935  0.1939  0.0480  2.1200
   88SAPS  H20S 8494   5.147   1.225   8.931  1.8756  2.5841  0.0420
   88SAPS  H20T 8495   5.235   1.067   8.950 -1.8402 -1.4226  1.3246
   88SAPS   C33 8496   5.192   1.706  10.182  0.2679 -0.3632  0.4534
   88SAPS   H3X 8497   5.214   1.597  10.182 -0.2646 -0.4763  0.2513
   88SAPS   H3Y 8498   5.287   1.752  10.215 -0.1256 -0.7650  2.2390
   88SAPS   C34 8499   5.151   1.752  10.041 -0.6495 -0.2931  0.0582
   88SAPS   H4X 8500   5.127   1.859  10.028 -1.3019 -0.4781 -0.3553
   88SAPS   H4Y 8501   5.055   1.702  10.015 -1.8266  1.7212  0.3437
   88SAPS   C35 8502   5.259   1.704   9.934  0.7564  0.3229  0.6759
   88SAPS   H5X 8503   5.294   1.601   9.954 -0.1595 -0.1707 -0.1561
   88SAPS   H5Y 8504   5.347   1.764   9.965  1.3218 -0.8603  1.4295
   88SAPS   C36 8505   5.224   1.733   9.781 -0.2515 -0.4498  0.3280
   88SAPS   H6X 8506   5.142   1.659   9.766 -0.5386 -0.5405  2.1857
   88SAPS   H6Y 8507   5.314   1.694   9.729 -0.9160 -0.7417 -0.6286
   88SAPS   C37 8508   5.181   1.873   9.733  0.3886 -0.1168  0.0504
   88SAPS   H7X 8509   5.251   1.953   9.765 -0.7677  1.5269 -1.3102
   88SAPS   H7Y 8510   5.081   1.889   9.780  1.6886  5.2482  1.7136
   88SAPS   C38 8511   5.164   1.876   9.580  0.6369 -0.3400 -0.5101
   88SAPS   H8X 8512   5.100   1.959   9.543 -0.1104 -0.3692  0.6565
   88SAPS   H8Y 8513   5.120   1.779   9.549 -1.4451  1.0479 -2.1896
   88SAPS   C39 8514   5.299   1.890   9.504 -0.0605  0.6355 -0.5871
   88SAPS   H9X 8515   5.362   1.804   9.536  1.9625  2.1532 -0.2587
   88SAPS   H9Y 8516   5.360   1.972   9.548  0.3534 -0.7533  1.5758
   88SAPS  C310 8517   5.289   1.914   9.355  0.4430 -0.6219 -0.6303
   88SAPS  H10X 8518   5.192   1.962   9.328  0.4018 -1.1219 -1.4116
   88SAPS  H10Y 8519   5.286   1.809   9.319 -3.5915  0.1992 -3.4158
   88SAPS  C311 8520   5.401   1.980   9.283 -0.2397  0.1852  0.2446
   88SAPS  H11X 8521   5.502   1.940   9.307  0.9591  1.5887 -2.0997
   88SAPS  H11Y 8522   5.385   2.086   9.311 -4.1024  0.8532 -3.4652
   88SAPS  C312 8523   5.390   1.976   9.126  0.5158 -0.4660 -0.2735
   88SAPS  H12X 8524   5.441   2.066   9.086 -2.5738  1.2393 -0.6683
   88SAPS  H12Y 8525   5.285   1.988   9.093  0.6970  0.7291 -0.4547
   88SAPS  C313 8526   5.441   1.845   9.069  0.6442  0.5201  0.1280
   88SAPS  H13X 8527   5.384   1.765   9.121  0.6965  2.4824  3.5175
   88SAPS  H13Y 8528   5.545   1.840   9.109  1.6481 -1.3155 -2.4684
   88SAPS  C314 8529   5.429   1.833   8.917  0.0845 -0.5909 -0.0901
   88SAPS  H14X 8530   5.515   1.784   8.867  0.4239  0.7577 -0.8790
   88SAPS  H14Y 8531   5.409   1.933   8.872 -0.7981 -0.4883  0.4960
   88SAPS  C315 8532   5.312   1.741   8.883  0.0786  0.2531  0.4116
   88SAPS  H15X 8533   5.219   1.778   8.932  0.4229  0.8223  0.6401
   88SAPS  H15Y 8534   5.339   1.639   8.917  1.1281 -0.2360 -1.6994
   88SAPS  C316 8535   5.276   1.735   8.731  0.6589  0.3799 -0.5963
   88SAPS  H16X 8536   5.261   1.841   8.700  0.5073  0.2645 -0.9223
   88SAPS  H16Y 8537   5.187   1.670   8.721  0.5452  0.6970 -1.8809
   88SAPS  C317 8538   5.380   1.678   8.636  0.3067  0.4628  0.3150
   88SAPS  H17X 8539   5.433   1.600   8.695  0.0294  1.7521  2.3852
   88SAPS  H17Y 8540   5.454   1.759   8.618  0.8221  0.2527  1.4048
   88SAPS  C318 8541   5.316   1.624   8.502 -0.1292  0.0818 -0.1022
   88SAPS  H18X 8542   5.396   1.569   8.449 -1.1398  0.1122 -1.7006
   88SAPS  H18Y 8543   5.279   1.703   8.433  0.4522  0.0820 -0.4188
   88SAPS  H18Z 8544   5.230   1.560   8.530  0.6375 -0.3565  1.3973
   89SAPS     N 8545   3.672   6.147  11.192 -1.0623 -0.6331  0.9599
   89SAPS   HN1 8546   3.766   6.174  11.227 -2.1061  0.3752  3.1683
   89SAPS   HN2 8547   3.667   6.133  11.089 -1.6910 -0.6811  0.9931
   89SAPS   HN3 8548   3.604   6.220  11.219  0.3114  0.5286  1.4030
   89SAPS   C12 8549   3.653   6.012  11.242 -0.0382  0.7453  0.7390
   89SAPS  H12A 8550   3.755   5.976  11.251 -0.1430  0.8330  2.6967
   89SAPS   C13 8551   3.596   6.002  11.385 -0.4420  0.1058 -0.0028
   89SAPS  O13A 8552   3.582   6.106  11.451 -0.0723 -0.3624 -0.4923
   89SAPS  O13B 8553   3.596   5.886  11.443  0.2509  0.0704 -0.2592
   89SAPS   C11 8554   3.578   5.916  11.141 -0.2336 -0.3269  0.8721
   89SAPS  H11A 8555   3.472   5.948  11.148 -0.2088  0.3440 -1.2874
   89SAPS  H11B 8556   3.594   5.814  11.182  0.2218 -0.4601  0.3685
   89SAPS     P 8557   3.568   5.828  10.903  0.1944 -0.2430  0.5531
   89SAPS   O13 8558   3.443   5.770  10.951 -0.6403 -0.5194 -0.2144
   89SAPS   O14 8559   3.561   5.903  10.778  0.2586  0.8050  0.0664
   89SAPS   O12 8560   3.635   5.927  11.014  0.0355  0.3412  0.2487
   89SAPS   O11 8561   3.683   5.715  10.888 -0.0956 -0.3901 -0.2733
   89SAPS    C1 8562   3.641   5.586  10.931  0.4786  0.7798 -0.4286
   89SAPS    HA 8563   3.644   5.575  11.042 -1.9232  0.6515 -0.3043
   89SAPS    HB 8564   3.541   5.554  10.894  1.5208 -1.2049 -1.7210
   89SAPS    C2 8565   3.738   5.484  10.867 -0.4418 -0.4831 -0.1044
   89SAPS    HS 8566   3.838   5.500  10.913 -0.4519  3.5117 -1.1466
   89SAPS   O21 8567   3.730   5.486  10.727  0.4705 -0.5658  0.0831
   89SAPS   C21 8568   3.843   5.512  10.673  0.1582 -0.2114  0.2772
   89SAPS   O22 8569   3.951   5.509  10.727  0.2574  0.1400 -0.0160
   89SAPS   C22 8570   3.816   5.547  10.524 -1.1846 -0.2085  0.1458
   89SAPS   H2R 8571   3.766   5.460  10.475 -1.5431  0.3167 -0.4448
   89SAPS   H2S 8572   3.753   5.638  10.524  0.1439  0.7454 -0.4156
   89SAPS    C3 8573   3.687   5.335  10.908  0.6072 -0.7622 -0.2824
   89SAPS    HX 8574   3.582   5.321  10.874 -0.1066  0.1052  1.4609
   89SAPS    HY 8575   3.681   5.329  11.019 -1.5617 -1.0927 -0.3573
   89SAPS   O31 8576   3.776   5.234  10.858  0.0193  0.0192  0.2713
   89SAPS   C31 8577   3.898   5.228  10.912  0.6331  0.1675 -0.1479
   89SAPS   O32 8578   3.938   5.301  11.000  0.0711 -0.0212 -0.6977
   89SAPS   C32 8579   3.976   5.105  10.852  0.1279 -0.2592 -0.5813
   89SAPS   H2X 8580   3.990   5.037  10.939  0.1807 -0.1010 -0.4659
   89SAPS   H2Y 8581   4.069   5.154  10.814  1.8277 -1.4727  1.7698
   89SAPS   C23 8582   3.943   5.590  10.444 -0.0591  0.0918  0.2938
   89SAPS   H3R 8583   4.018   5.511  10.466  0.6369  1.1163  1.7595
   89SAPS   H3S 8584   3.978   5.681  10.498  1.1803 -0.2423  0.0827
   89SAPS   C24 8585   3.915   5.588  10.298  0.3610 -0.5363  0.3400
   89SAPS   H4R 8586   3.899   5.483  10.262  0.7525 -0.9641  1.3770
   89SAPS   H4S 8587   4.001   5.635  10.247 -0.0527 -0.1018  0.0432
   89SAPS   C25 8588   3.794   5.661  10.259  0.6411  0.0006  0.2308
   89SAPS   H5R 8589   3.775   5.739  10.335  0.8445  0.0794  0.2028
   89SAPS   C26 8590   3.713   5.652  10.150 -0.2189  0.5391 -0.0428
   89SAPS   H6R 8591   3.625   5.717  10.147 -1.5284 -0.9077  2.6779
   89SAPS   C27 8592   3.728   5.553  10.030  0.0985 -0.9803  0.4806
   89SAPS   H7R 8593   3.631   5.551   9.976  0.5377  0.1620 -0.4013
   89SAPS   H7S 8594   3.740   5.453  10.075  0.1138 -0.3694  1.8647
   89SAPS   C28 8595   3.847   5.582   9.945  0.0077 -0.5257  0.9709
   89SAPS   H8R 8596   3.928   5.635   9.997  0.4310  0.5140 -0.6476
   89SAPS   C29 8597   3.859   5.552   9.810 -0.0233 -0.0980 -0.2366
   89SAPS   H9R 8598   3.956   5.576   9.762 -0.0859  2.1500  0.6147
   89SAPS  C210 8599   3.751   5.478   9.732  0.1572  0.6480  0.1538
   89SAPS  H10R 8600   3.670   5.443   9.800  0.4057 -1.7704 -0.6995
   89SAPS  H10S 8601   3.800   5.388   9.690  1.1117  1.0687  0.3504
   89SAPS  C211 8602   3.684   5.572   9.628  0.2669 -0.9906 -0.3714
   89SAPS  H11R 8603   3.594   5.626   9.662 -0.6379 -1.5927 -1.7123
   89SAPS  C212 8604   3.714   5.589   9.496 -0.0004  1.2381 -0.0866
   89SAPS  H12R 8605   3.671   5.675   9.444  0.4832  1.5932  0.0949
   89SAPS  C213 8606   3.828   5.512   9.429 -0.1979  0.3618  0.0636
   89SAPS  H13R 8607   3.790   5.408   9.415  0.4729  0.1571 -0.2696
   89SAPS  H13S 8608   3.924   5.510   9.485  0.5398 -2.5637 -1.1363
   89SAPS  C214 8609   3.854   5.571   9.292 -0.3403 -0.1074  0.2288
   89SAPS  H14R 8610   3.959   5.603   9.279 -0.0212 -1.0752  0.3411
   89SAPS  C215 8611   3.777   5.571   9.185  0.3068  0.2287  0.1670
   89SAPS  H15R 8612   3.815   5.618   9.093 -1.0359  0.0439 -0.5089
   89SAPS  C216 8613   3.648   5.508   9.152 -0.8291  0.1214  0.0139
   89SAPS  H16R 8614   3.572   5.574   9.107  0.6438  0.8090 -1.5805
   89SAPS  H16S 8615   3.596   5.479   9.246 -1.8363  0.1898 -0.5175
   89SAPS  C217 8616   3.636   5.382   9.059 -0.1542  0.4256  0.1093
   89SAPS  H17R 8617   3.534   5.337   9.059 -0.1813  0.3690 -1.8175
   89SAPS  H17S 8618   3.696   5.302   9.106 -0.2784 -0.4292 -1.1243
   89SAPS  C218 8619   3.680   5.414   8.921  0.2502 -0.1105 -0.4994
   89SAPS  H18R 8620   3.749   5.501   8.935  0.1861 -0.2368  0.7303
   89SAPS  H18S 8621   3.592   5.459   8.870 -0.7254  0.0003  1.1957
   89SAPS  C219 8622   3.743   5.299   8.855 -0.4649  0.0101  0.1195
   89SAPS  H19R 8623   3.722   5.315   8.747  0.8711 -0.1178 -0.1683
   89SAPS  H19S 8624   3.694   5.205   8.886  0.2981 -0.8836 -1.2831
   89SAPS  C220 8625   3.894   5.293   8.879  0.1165 -0.1258 -0.6563
   89SAPS  H20R 8626   3.938   5.194   8.855 -1.2529 -1.4505  1.8307
   89SAPS  H20S 8627   3.915   5.315   8.986  2.9439  0.8522 -1.3226
   89SAPS  H20T 8628   3.954   5.371   8.826  0.5916 -0.8939 -1.2675
   89SAPS   C33 8629   3.911   5.012  10.748 -0.2719  0.0895  0.9782
   89SAPS   H3X 8630   3.801   5.027  10.742  0.0244  2.0499 -1.4423
   89SAPS   H3Y 8631   3.928   4.911  10.790  3.0406 -0.4259 -1.1498
   89SAPS   C34 8632   3.976   5.025  10.604  0.3036 -0.0998  0.1250
   89SAPS   H4X 8633   3.926   4.933  10.569  1.0939  0.3303 -2.2662
   89SAPS   H4Y 8634   4.087   5.027  10.615  0.3503  0.3447 -0.3875
   89SAPS   C35 8635   3.931   5.147  10.534  0.0587 -0.5359  0.1885
   89SAPS   H5X 8636   3.952   5.231  10.604  0.7419 -0.8585  0.3762
   89SAPS   H5Y 8637   3.823   5.148  10.510 -0.0765  0.4901  0.7785
   89SAPS   C36 8638   3.999   5.170  10.395  0.5942  0.6585 -0.1187
   89SAPS   H6X 8639   4.108   5.150  10.393  0.4576 -0.0742 -0.4006
   89SAPS   H6Y 8640   3.999   5.277  10.365  0.8714  0.9792  0.9719
   89SAPS   C37 8641   3.932   5.072  10.286 -0.0017  0.2773  0.1376
   89SAPS   H7X 8642   3.823   5.095  10.285 -0.5101 -1.9060  0.3735
   89SAPS   H7Y 8643   3.952   4.964  10.300  1.3750  0.4410 -0.4424
   89SAPS   C38 8644   3.970   5.119  10.148  0.3243  0.2711  0.3427
   89SAPS   H8X 8645   4.070   5.084  10.114  0.3596  2.7718 -2.6905
   89SAPS   H8Y 8646   3.986   5.229  10.149  2.5507  0.0127  0.0244
   89SAPS   C39 8647   3.866   5.075  10.046 -0.7752 -0.0503  1.2989
   89SAPS   H9X 8648   3.768   5.128  10.048 -2.4052 -2.7437 -0.6618
   89SAPS   H9Y 8649   3.825   4.972  10.054 -2.2244  0.4946  1.1617
   89SAPS  C310 8650   3.919   5.088   9.897  0.4159 -0.6641 -0.3379
   89SAPS  H10X 8651   4.002   5.015   9.891  0.3099 -0.6470 -3.4477
   89SAPS  H10Y 8652   3.962   5.190   9.881 -0.0384 -0.5146 -0.6288
   89SAPS  C311 8653   3.814   5.055   9.795 -0.0559  0.9243 -0.2633
   89SAPS  H11X 8654   3.741   5.138   9.802 -1.7992 -0.3493 -2.0619
   89SAPS  H11Y 8655   3.753   4.965   9.821 -1.6080  2.0017 -0.0762
   89SAPS  C312 8656   3.863   5.067   9.646 -0.3800  0.0838  0.1124
   89SAPS  H12X 8657   3.911   4.973   9.611  0.1598  1.1381 -2.1557
   89SAPS  H12Y 8658   3.932   5.154   9.640 -0.8456  0.3954 -1.1695
   89SAPS  C313 8659   3.746   5.096   9.556  0.2564  0.0531  0.3683
   89SAPS  H13X 8660   3.679   5.175   9.596  0.0122 -0.2819  0.6218
   89SAPS  H13Y 8661   3.689   5.001   9.556  1.1939 -0.5145  0.3285
   89SAPS  C314 8662   3.797   5.123   9.418  0.2082  0.3968  0.7840
   89SAPS  H14X 8663   3.868   5.208   9.433 -0.0589  0.6820  0.4639
   89SAPS  H14Y 8664   3.723   5.169   9.349  0.9959  0.8682  0.2398
   89SAPS  C315 8665   3.873   5.015   9.343 -0.2160 -0.2093  0.2565
   89SAPS  H15X 8666   3.811   4.926   9.318  1.1989 -0.6202 -2.1453
   89SAPS  H15Y 8667   3.952   4.976   9.411 -0.1793 -0.0913  0.2829
   89SAPS  C316 8668   3.941   5.052   9.215 -0.1645  0.2067  0.2364
   89SAPS  H16X 8669   4.024   5.123   9.235 -0.3115 -0.0448  1.8473
   89SAPS  H16Y 8670   3.875   5.110   9.146 -0.7893  0.0650  0.7060
   89SAPS  C317 8671   4.021   4.927   9.149  0.2752  0.0547  0.0010
   89SAPS  H17X 8672   3.955   4.838   9.156 -0.2182  0.3648 -0.5678
   89SAPS  H17Y 8673   4.111   4.913   9.213  0.5393 -1.2487 -0.6176
   89SAPS  C318 8674   4.063   4.951   9.004 -0.7251 -0.5992  0.2353
   89SAPS  H18X 8675   4.102   5.055   9.003  1.1324 -1.2354 -1.2884
   89SAPS  H18Y 8676   3.973   4.957   8.940 -1.7944 -0.8816  1.6722
   89SAPS  H18Z 8677   4.141   4.875   8.981 -0.4207 -0.5107  0.9289
   90SAPS     N 8678   6.309   4.431  10.975 -1.0270 -0.0425  0.1349
   90SAPS   HN1 8679   6.292   4.342  10.924 -0.8772  0.1806 -0.3121
   90SAPS   HN2 8680   6.240   4.501  10.940  0.0234  0.5889 -0.7311
   90SAPS   HN3 8681   6.402   4.473  10.955 -1.9977  1.9829 -0.5177
   90SAPS   C12 8682   6.278   4.401  11.115 -0.4805  0.2537 -0.4463
   90SAPS  H12A 8683   6.322   4.304  11.135 -1.1315 -0.5172 -2.4571
   90SAPS   C13 8684   6.307   4.506  11.226 -0.0319  0.2087  0.0506
   90SAPS  O13A 8685   6.375   4.609  11.196  0.2380 -0.0813 -0.2647
   90SAPS  O13B 8686   6.277   4.485  11.347 -0.0735  0.3407 -0.3669
   90SAPS   C11 8687   6.125   4.394  11.128 -0.0183  0.0679 -0.1654
   90SAPS  H11A 8688   6.072   4.486  11.098  0.1663  0.5523  0.9379
   90SAPS  H11B 8689   6.108   4.368  11.235  0.6305  1.1352  0.2145
   90SAPS     P 8690   5.931   4.233  11.065 -0.2784 -0.0916  0.2367
   90SAPS   O13 8691   5.940   4.087  11.083 -0.4386 -0.2851 -0.3208
   90SAPS   O14 8692   5.862   4.310  11.167  0.3035 -0.7876 -0.0370
   90SAPS   O12 8693   6.078   4.286  11.051  0.0909  0.1341 -0.1893
   90SAPS   O11 8694   5.867   4.273  10.928  0.4547  0.2076 -0.8708
   90SAPS    C1 8695   5.905   4.358  10.830 -0.8252 -0.5204 -0.2765
   90SAPS    HA 8696   5.815   4.411  10.791 -1.1953  0.5350  1.8490
   90SAPS    HB 8697   5.964   4.440  10.877 -1.0427  0.5133 -1.7467
   90SAPS    C2 8698   5.983   4.301  10.709  0.6034  0.2195 -0.3372
   90SAPS    HS 8699   6.075   4.262  10.758  0.8786 -2.6673 -2.8053
   90SAPS   O21 8700   6.007   4.412  10.623  0.4227  0.6396 -0.2793
   90SAPS   C21 8701   6.133   4.407  10.571  0.2211  0.3323  0.9117
   90SAPS   O22 8702   6.230   4.343  10.611 -0.7972  0.0156  0.6472
   90SAPS   C22 8703   6.132   4.484  10.437 -0.7754  0.6903  0.1001
   90SAPS   H2R 8704   6.038   4.450  10.387 -0.5090 -0.9632  0.6806
   90SAPS   H2S 8705   6.120   4.592  10.460  1.0251  0.6431  1.4540
   90SAPS    C3 8706   5.907   4.184  10.639 -0.2353  0.3438 -0.1823
   90SAPS    HX 8707   5.807   4.228  10.620  0.0803  0.5767 -1.3210
   90SAPS    HY 8708   5.900   4.099  10.711 -0.5171  0.0152 -0.5985
   90SAPS   O31 8709   5.963   4.144  10.511 -0.4893  0.1528  0.0022
   90SAPS   C31 8710   6.062   4.052  10.519  0.2514  0.5443  0.0134
   90SAPS   O32 8711   6.099   3.997  10.619  1.2562  0.3242  0.0723
   90SAPS   C32 8712   6.112   4.018  10.384  0.2561  0.5919 -0.7292
   90SAPS   H2X 8713   6.143   4.112  10.334  1.2691 -0.1091 -1.4734
   90SAPS   H2Y 8714   6.018   3.994  10.328 -0.0152 -0.7037  0.2396
   90SAPS   C23 8715   6.261   4.458  10.352  0.4371 -1.1189 -0.0696
   90SAPS   H3R 8716   6.274   4.348  10.343 -1.9354 -1.3767 -1.0871
   90SAPS   H3S 8717   6.347   4.492  10.414 -1.6426 -0.2769  2.5389
   90SAPS   C24 8718   6.249   4.526  10.220 -0.7163 -0.8934 -0.1220
   90SAPS   H4R 8719   6.214   4.626  10.254  0.6785 -0.9788  1.7261
   90SAPS   H4S 8720   6.173   4.471  10.161 -1.4879  0.1808 -0.1770
   90SAPS   C25 8721   6.380   4.545  10.153  0.0761 -0.2806 -0.3260
   90SAPS   H5R 8722   6.460   4.545  10.229  0.0500 -2.8470 -0.2214
   90SAPS   C26 8723   6.410   4.562  10.024  0.5534  0.3236  0.3842
   90SAPS   H6R 8724   6.515   4.577   9.995  0.4189  0.1582 -0.2064
   90SAPS   C27 8725   6.320   4.562   9.908  0.6365 -0.3603 -0.1768
   90SAPS   H7R 8726   6.340   4.649   9.842 -1.1837 -1.4329 -2.3144
   90SAPS   H7S 8727   6.216   4.563   9.947  0.4207  0.8331 -0.7423
   90SAPS   C28 8728   6.344   4.440   9.821  0.4771  0.1357 -0.5536
   90SAPS   H8R 8729   6.335   4.340   9.866 -0.4060 -0.6768 -2.3877
   90SAPS   C29 8730   6.378   4.444   9.682  0.7547 -0.2841 -0.6181
   90SAPS   H9R 8731   6.375   4.349   9.625 -1.1469  0.2501 -1.4628
   90SAPS  C210 8732   6.388   4.568   9.593  0.5470  0.1396 -0.2263
   90SAPS  H10R 8733   6.435   4.653   9.646  1.6007  1.1093 -2.5997
   90SAPS  H10S 8734   6.281   4.589   9.570 -0.0584 -2.1774  0.2550
   90SAPS  C211 8735   6.479   4.536   9.478 -0.0347 -0.2017 -0.1212
   90SAPS  H11R 8736   6.581   4.499   9.500  0.7677  2.2257  0.5546
   90SAPS  C212 8737   6.442   4.539   9.351  0.0424  0.0315 -0.0156
   90SAPS  H12R 8738   6.522   4.525   9.277  1.4170  2.5708  0.8670
   90SAPS  C213 8739   6.312   4.595   9.293  0.2696  0.2104 -0.6838
   90SAPS  H13R 8740   6.232   4.615   9.368  1.1907  1.7012 -0.0525
   90SAPS  H13S 8741   6.278   4.517   9.222 -0.3190 -1.0580  0.9237
   90SAPS  C214 8742   6.314   4.720   9.203 -0.6051  0.8086  0.1697
   90SAPS  H14R 8743   6.273   4.810   9.250  0.9151  2.7013 -1.9378
   90SAPS  C215 8744   6.358   4.737   9.073 -0.7405 -0.3094  0.8535
   90SAPS  H15R 8745   6.347   4.835   9.024 -0.6846 -0.7221  0.0037
   90SAPS  C216 8746   6.408   4.616   8.995  0.1913 -0.7466  0.0699
   90SAPS  H16R 8747   6.412   4.526   9.061  3.6897 -0.2382  0.7597
   90SAPS  H16S 8748   6.509   4.635   8.952 -0.0269 -1.8054 -0.9572
   90SAPS  C217 8749   6.313   4.579   8.883  0.5034 -0.6853  0.6036
   90SAPS  H17R 8750   6.219   4.541   8.930  0.2840 -0.9996 -0.0848
   90SAPS  H17S 8751   6.330   4.486   8.825 -2.3639 -1.4585  0.8643
   90SAPS  C218 8752   6.288   4.688   8.780 -0.4984 -0.3066  0.1440
   90SAPS  H18R 8753   6.381   4.692   8.720 -0.4823 -1.3840  0.0681
   90SAPS  H18S 8754   6.257   4.785   8.823  0.0287  1.0216 -2.2924
   90SAPS  C219 8755   6.185   4.650   8.669 -0.1682 -0.2139 -0.2008
   90SAPS  H19R 8756   6.078   4.666   8.694 -0.6651 -1.8269 -1.1430
   90SAPS  H19S 8757   6.209   4.544   8.645  2.0211  0.3028 -0.5167
   90SAPS  C220 8758   6.215   4.731   8.544  0.5329 -0.1337 -0.8582
   90SAPS  H20R 8759   6.322   4.761   8.534  0.4948  1.0288  1.5307
   90SAPS  H20S 8760   6.154   4.824   8.553  0.6878 -0.1258  0.2674
   90SAPS  H20T 8761   6.173   4.671   8.460 -0.3877 -0.0407 -0.4768
   90SAPS   C33 8762   6.209   3.897  10.379  0.3690 -0.4994 -0.0875
   90SAPS   H3X 8763   6.152   3.809  10.416 -0.1764 -0.5396 -0.9674
   90SAPS   H3Y 8764   6.293   3.918  10.448 -2.1160  1.5328  2.5748
   90SAPS   C34 8765   6.252   3.860  10.238  0.5725 -0.0366 -0.2587
   90SAPS   H4X 8766   6.313   3.945  10.200  1.3546  0.6011  2.2185
   90SAPS   H4Y 8767   6.159   3.855  10.178 -1.1197  0.3555  2.1899
   90SAPS   C35 8768   6.337   3.732  10.233 -0.3353  0.3735  0.5973
   90SAPS   H5X 8769   6.270   3.651  10.270  0.4008 -0.5514 -0.0607
   90SAPS   H5Y 8770   6.425   3.734  10.301 -0.9738 -1.3281  1.5166
   90SAPS   C36 8771   6.381   3.687  10.088  0.1361 -0.3850 -0.1965
   90SAPS   H6X 8772   6.293   3.682  10.020  1.7128 -1.4207 -2.2506
   90SAPS   H6Y 8773   6.420   3.584  10.097  0.0152 -0.3913  0.3249
   90SAPS   C37 8774   6.464   3.795  10.019  0.2318  0.6341 -0.5053
   90SAPS   H7X 8775   6.558   3.812  10.075 -0.3375 -1.0051  1.0278
   90SAPS   H7Y 8776   6.411   3.893  10.018 -0.8918  0.2784  4.0692
   90SAPS   C38 8777   6.514   3.752   9.880 -0.1084 -0.6230 -0.1060
   90SAPS   H8X 8778   6.423   3.744   9.817 -2.3727 -2.3293  3.1268
   90SAPS   H8Y 8779   6.566   3.653   9.885  1.2515  0.0499 -0.3504
   90SAPS   C39 8780   6.609   3.859   9.823 -0.7265 -0.0489  0.0479
   90SAPS   H9X 8781   6.683   3.890   9.899  0.0888  1.2729 -1.2329
   90SAPS   H9Y 8782   6.549   3.950   9.801 -2.0528 -0.3989  1.9575
   90SAPS  C310 8783   6.678   3.803   9.697 -0.1590 -0.0155  0.2108
   90SAPS  H10X 8784   6.599   3.765   9.630 -0.6195  0.0406  0.7119
   90SAPS  H10Y 8785   6.733   3.710   9.725  1.1386  0.3908 -0.9164
   90SAPS  C311 8786   6.771   3.904   9.640  0.5819  0.0287  1.3227
   90SAPS  H11X 8787   6.859   3.924   9.705  0.7617 -0.1709  1.1398
   90SAPS  H11Y 8788   6.720   3.999   9.614  1.7304 -0.1675 -2.2550
   90SAPS  C312 8789   6.823   3.854   9.499 -0.0672  0.2432  0.0723
   90SAPS  H12X 8790   6.735   3.848   9.432 -1.4982  0.2882  1.8814
   90SAPS  H12Y 8791   6.851   3.749   9.521 -2.8651 -0.1813  2.1529
   90SAPS  C313 8792   6.943   3.935   9.445  0.3227  0.0149  0.7019
   90SAPS  H13X 8793   7.021   3.961   9.519  0.7671 -1.9821  0.9840
   90SAPS  H13Y 8794   6.907   4.035   9.410  2.3807 -0.0933 -2.0473
   90SAPS  C314 8795   7.014   3.865   9.326  0.2682  0.5128  0.5577
   90SAPS  H14X 8796   6.946   3.828   9.246  1.5113 -1.9077  0.5352
   90SAPS  H14Y 8797   7.057   3.772   9.368 -1.1055 -0.4728 -0.1707
   90SAPS  C315 8798   7.130   3.945   9.269  0.6422  1.1616  0.4313
   90SAPS  H15X 8799   7.171   3.988   9.363 -1.5597 -0.8867  2.4834
   90SAPS  H15Y 8800   7.093   4.033   9.212 -0.6261  1.5307  1.7566
   90SAPS  C316 8801   7.234   3.874   9.181 -0.1985 -0.3647 -0.1877
   90SAPS  H16X 8802   7.253   3.777   9.230  0.1126 -0.0046  0.4132
   90SAPS  H16Y 8803   7.332   3.928   9.181 -0.1114 -0.5221  0.3986
   90SAPS  C317 8804   7.185   3.866   9.035  0.1140 -1.0127 -0.1320
   90SAPS  H17X 8805   7.171   3.967   8.992  0.2267 -0.6707  0.6205
   90SAPS  H17Y 8806   7.092   3.806   9.036  0.0432 -0.9367  1.8580
   90SAPS  C318 8807   7.292   3.785   8.959  0.1005  0.1289  0.3727
   90SAPS  H18X 8808   7.257   3.783   8.854  0.5977  0.5643  0.1960
   90SAPS  H18Y 8809   7.301   3.686   9.010 -0.2356 -0.6465 -1.0151
   90SAPS  H18Z 8810   7.394   3.826   8.975  0.9468 -1.9153  0.6118
   91SAPS     N 8811   4.058   2.988   6.232 -0.1339 -0.1339  0.1634
   91SAPS   HN1 8812   4.035   3.052   6.310 -1.9326  1.1232 -1.3109
   91SAPS   HN2 8813   4.120   2.906   6.251  0.6283  0.5172  0.5272
   91SAPS   HN3 8814   4.109   3.037   6.155 -1.3824 -0.8244 -1.1592
   91SAPS   C12 8815   3.927   2.926   6.195  0.5136 -0.0237  0.1344
   91SAPS  H12A 8816   3.866   3.006   6.155  0.9741 -0.6908 -2.0217
   91SAPS   C13 8817   3.934   2.825   6.079  0.4312  0.4604  0.0472
   91SAPS  O13A 8818   4.048   2.812   6.016  0.5967  0.4168  0.1525
   91SAPS  O13B 8819   3.833   2.772   6.035 -0.2305 -0.0870 -0.7646
   91SAPS   C11 8820   3.867   2.856   6.320  0.3989  0.3106  0.0439
   91SAPS  H11A 8821   3.764   2.820   6.301  0.7534  0.6967 -3.0496
   91SAPS  H11B 8822   3.846   2.931   6.399 -2.4456 -1.0746  0.7588
   91SAPS     P 8823   3.932   2.610   6.411  0.0977 -0.7511 -0.1772
   91SAPS   O13 8824   3.787   2.585   6.416 -0.0539  0.2170 -0.0118
   91SAPS   O14 8825   4.013   2.518   6.328 -0.2007  0.8286  0.0965
   91SAPS   O12 8826   3.960   2.758   6.374 -0.1261 -0.1228  0.0340
   91SAPS   O11 8827   3.993   2.605   6.560 -0.6955 -0.1284 -0.8985
   91SAPS    C1 8828   3.938   2.535   6.674 -0.5088  0.0319 -0.1178
   91SAPS    HA 8829   3.922   2.427   6.656 -1.8375  0.3137 -0.7674
   91SAPS    HB 8830   4.019   2.531   6.750 -1.5927 -0.4788  1.0409
   91SAPS    C2 8831   3.820   2.613   6.745  0.5204  0.7342  0.2466
   91SAPS    HS 8832   3.742   2.618   6.666  0.6984  1.6315  0.1193
   91SAPS   O21 8833   3.868   2.743   6.776 -0.0256  0.2413  0.1702
   91SAPS   C21 8834   3.783   2.843   6.764  0.3039  0.1197  0.8763
   91SAPS   O22 8835   3.664   2.823   6.738 -0.2818 -0.1434  0.0314
   91SAPS   C22 8836   3.840   2.982   6.799 -0.2346  0.0491  0.6830
   91SAPS   H2R 8837   3.931   2.965   6.861  0.9497 -0.6280 -1.1301
   91SAPS   H2S 8838   3.866   3.036   6.706 -1.8284  2.3286  1.4903
   91SAPS    C3 8839   3.769   2.553   6.875 -0.5797 -0.1211 -0.5665
   91SAPS    HX 8840   3.697   2.470   6.860 -1.6406  0.8477 -1.1018
   91SAPS    HY 8841   3.710   2.635   6.922  0.3041  1.4595 -2.0903
   91SAPS   O31 8842   3.879   2.506   6.961  0.0622 -0.5852  0.0129
   91SAPS   C31 8843   3.921   2.576   7.060  0.0548  0.4935 -0.0950
   91SAPS   O32 8844   3.879   2.691   7.090 -0.0121  0.2845 -0.1046
   91SAPS   C32 8845   4.023   2.496   7.139  0.8965  1.0945 -0.1073
   91SAPS   H2X 8846   4.123   2.537   7.112  1.0657  0.0728 -1.1069
   91SAPS   H2Y 8847   4.009   2.393   7.102 -1.6062  2.2953 -2.9194
   91SAPS   C23 8848   3.738   3.074   6.872 -0.3478  0.2128 -0.3719
   91SAPS   H3R 8849   3.693   3.027   6.962  4.4620 -1.3870  1.5519
   91SAPS   H3S 8850   3.658   3.114   6.807  0.1494  1.6956 -0.1197
   91SAPS   C24 8851   3.800   3.206   6.916  0.3678 -0.5543 -0.1134
   91SAPS   H4R 8852   3.722   3.259   6.974 -0.9698 -1.2757 -1.1851
   91SAPS   H4S 8853   3.836   3.264   6.828  1.2205  0.9231  1.1739
   91SAPS   C25 8854   3.917   3.167   7.009  0.5135 -0.6786 -0.8826
   91SAPS   H5R 8855   4.003   3.116   6.964 -0.0348 -0.6314 -2.0145
   91SAPS   C26 8856   3.927   3.200   7.144 -0.5231  0.1835  0.9241
   91SAPS   H6R 8857   4.021   3.186   7.200 -0.8942 -1.7865  1.1250
   91SAPS   C27 8858   3.818   3.275   7.225  0.3451 -0.3162  0.3698
   91SAPS   H7R 8859   3.714   3.244   7.198  1.4728 -1.6180 -3.1263
   91SAPS   H7S 8860   3.815   3.384   7.203 -1.6498 -0.2543  0.7247
   91SAPS   C28 8861   3.868   3.249   7.370 -0.2521 -0.7234 -0.3388
   91SAPS   H8R 8862   3.967   3.292   7.390 -1.8366  1.6416  3.8102
   91SAPS   C29 8863   3.802   3.187   7.470 -0.2161  0.5660  0.2051
   91SAPS   H9R 8864   3.856   3.174   7.565 -0.9197 -0.8677  0.4372
   91SAPS  C210 8865   3.664   3.139   7.473 -0.2658  0.1187 -0.0879
   91SAPS  H10R 8866   3.606   3.150   7.379  0.8132  2.3281 -0.5603
   91SAPS  H10S 8867   3.606   3.217   7.528  0.6907  0.1683  0.8828
   91SAPS  C211 8868   3.648   3.003   7.522  0.8495 -0.2878 -0.9569
   91SAPS  H11R 8869   3.632   2.928   7.443 -0.1119 -0.5206 -0.5500
   91SAPS  C212 8870   3.623   2.975   7.651  0.8962 -0.0988 -0.4013
   91SAPS  H12R 8871   3.601   2.870   7.678  0.5285 -0.4164 -1.8522
   91SAPS  C213 8872   3.627   3.066   7.766 -0.9866  0.8160 -0.3545
   91SAPS  H13R 8873   3.526   3.113   7.765 -0.9282  0.9318 -1.0264
   91SAPS  H13S 8874   3.708   3.141   7.760  0.3921 -0.4253  1.5907
   91SAPS  C214 8875   3.659   2.979   7.889 -0.7582  0.0044  0.2013
   91SAPS  H14R 8876   3.757   2.933   7.874 -1.2532 -0.0271 -3.8482
   91SAPS  C215 8877   3.573   2.955   7.993  0.2786  0.1079  0.4776
   91SAPS  H15R 8878   3.608   2.897   8.079  1.9020  1.9509  1.1407
   91SAPS  C216 8879   3.431   3.009   8.003 -0.3707 -0.4669  0.2216
   91SAPS  H16R 8880   3.361   2.922   8.008 -1.0716 -0.1296 -2.3181
   91SAPS  H16S 8881   3.400   3.063   7.911  1.0639  0.3197  0.1733
   91SAPS  C217 8882   3.412   3.115   8.117  0.6027 -0.3066 -0.1664
   91SAPS  H17R 8883   3.312   3.161   8.105  0.9719  0.2358 -1.2682
   91SAPS  H17S 8884   3.492   3.191   8.100  0.2635  0.2440  0.6343
   91SAPS  C218 8885   3.418   3.050   8.254 -0.4429  0.1683  0.0758
   91SAPS  H18R 8886   3.512   2.991   8.258  0.1646  1.1796  1.2529
   91SAPS  H18S 8887   3.329   2.984   8.253  1.4044 -2.4581  0.0932
   91SAPS  C219 8888   3.417   3.142   8.373 -0.0557  0.1162 -0.2154
   91SAPS  H19R 8889   3.326   3.206   8.379 -1.3354 -1.1125 -3.7206
   91SAPS  H19S 8890   3.511   3.200   8.360  0.8867 -0.8947  1.6727
   91SAPS  C220 8891   3.444   3.074   8.506 -0.1737  0.9803 -0.5833
   91SAPS  H20R 8892   3.502   2.981   8.487 -3.9753 -1.4802 -1.3490
   91SAPS  H20S 8893   3.348   3.024   8.532 -0.1704 -1.0183 -3.8040
   91SAPS  H20T 8894   3.483   3.140   8.586  3.2895 -0.8329 -0.6242
   91SAPS   C33 8895   4.006   2.508   7.294  0.0463 -0.4595 -0.5811
   91SAPS   H3X 8896   4.012   2.616   7.319 -3.9476  0.3543 -2.3161
   91SAPS   H3Y 8897   4.096   2.459   7.337  1.2440  2.3391  0.3095
   91SAPS   C34 8898   3.884   2.446   7.350 -0.2171  0.9489  0.6816
   91SAPS   H4X 8899   3.855   2.362   7.283 -0.8513  1.4459  0.3138
   91SAPS   H4Y 8900   3.800   2.519   7.347 -1.8856 -0.9341 -0.2389
   91SAPS   C35 8901   3.893   2.412   7.500 -0.0044  0.6531  0.7361
   91SAPS   H5X 8902   3.992   2.365   7.519  0.8253  2.2157  0.4691
   91SAPS   H5Y 8903   3.807   2.347   7.525 -2.4895  2.5171 -2.2118
   91SAPS   C36 8904   3.883   2.545   7.584  0.0989 -0.6468  0.2937
   91SAPS   H6X 8905   3.792   2.608   7.578 -0.4039 -0.6809  4.5220
   91SAPS   H6Y 8906   3.966   2.614   7.557  1.1348 -1.9427  0.0720
   91SAPS   C37 8907   3.902   2.509   7.727 -0.8972 -0.2659  0.1902
   91SAPS   H7X 8908   4.006   2.469   7.732 -0.3299  1.0541 -0.3767
   91SAPS   H7Y 8909   3.824   2.437   7.758 -0.6533 -0.5412  0.1734
   91SAPS   C38 8910   3.897   2.620   7.836 -0.0244 -0.3746  0.9075
   91SAPS   H8X 8911   3.812   2.691   7.820  0.6784  0.1662 -0.5417
   91SAPS   H8Y 8912   3.991   2.678   7.830 -0.7166  0.6144 -1.5054
   91SAPS   C39 8913   3.880   2.558   7.976 -0.0887  0.4177  0.8897
   91SAPS   H9X 8914   3.980   2.519   8.005  0.6748  1.2177 -0.5834
   91SAPS   H9Y 8915   3.810   2.472   7.976  2.4706 -1.8038 -0.1005
   91SAPS  C310 8916   3.861   2.671   8.086 -0.2607  0.0778  1.0876
   91SAPS  H10X 8917   3.755   2.653   8.110  0.0867 -3.2828  0.5786
   91SAPS  H10Y 8918   3.887   2.763   8.030  0.1795 -0.7993 -0.1914
   91SAPS  C311 8919   3.961   2.661   8.205  0.3006 -0.2177  0.0612
   91SAPS  H11X 8920   4.064   2.648   8.167 -1.2666 -3.7580 -3.6770
   91SAPS  H11Y 8921   3.945   2.566   8.261  1.4331 -0.8426 -0.6310
   91SAPS  C312 8922   3.959   2.778   8.307 -0.1102  0.3559  0.3062
   91SAPS  H12X 8923   3.980   2.875   8.257 -1.6517 -0.5588 -2.2928
   91SAPS  H12Y 8924   4.051   2.762   8.367  0.1669 -1.5897 -0.5590
   91SAPS  C313 8925   3.845   2.788   8.397  0.1796  0.1392 -0.1920
   91SAPS  H13X 8926   3.752   2.805   8.339 -0.3217 -2.1976 -0.1749
   91SAPS  H13Y 8927   3.861   2.879   8.460  1.6389  0.0944 -0.4626
   91SAPS  C314 8928   3.815   2.669   8.497  0.1534 -0.4688  0.0299
   91SAPS  H14X 8929   3.908   2.652   8.557  0.1925 -0.1165  0.0669
   91SAPS  H14Y 8930   3.801   2.570   8.447  2.2977  0.2329 -2.1716
   91SAPS  C315 8931   3.696   2.702   8.592  0.2162  0.1143  0.9713
   91SAPS  H15X 8932   3.652   2.604   8.621  2.2722 -1.1250  0.1623
   91SAPS  H15Y 8933   3.620   2.763   8.538  3.2481  2.4409 -1.0093
   91SAPS  C316 8934   3.743   2.787   8.707  0.2632  0.0137 -0.2026
   91SAPS  H16X 8935   3.795   2.877   8.668  2.4658 -0.9072  0.4132
   91SAPS  H16Y 8936   3.804   2.733   8.783  0.4766  2.0233  1.1189
   91SAPS  C317 8937   3.627   2.833   8.793 -0.6172 -0.5030 -0.3299
   91SAPS  H17X 8938   3.574   2.742   8.827  0.9659 -1.6049 -0.6773
   91SAPS  H17Y 8939   3.554   2.893   8.735  0.2228 -1.2389 -2.2280
   91SAPS  C318 8940   3.669   2.929   8.907  0.7477 -0.1208 -0.0285
   91SAPS  H18X 8941   3.589   2.936   8.983 -0.6047 -1.2065 -1.2926
   91SAPS  H18Y 8942   3.690   3.030   8.866  0.2795 -0.0564 -0.1154
   91SAPS  H18Z 8943   3.751   2.889   8.970  0.8544 -0.9805 -0.6941
   92SAPS     N 8944   1.103   5.881   6.542 -0.1920 -0.1357 -0.0491
   92SAPS   HN1 8945   1.099   5.883   6.646 -1.4502 -1.3996 -0.0349
   92SAPS   HN2 8946   1.050   5.797   6.510 -1.1314  1.2320 -2.2886
   92SAPS   HN3 8947   1.203   5.867   6.519  0.0263 -0.3868  0.9761
   92SAPS   C12 8948   1.032   6.005   6.494 -0.3850  0.0356 -1.3032
   92SAPS  H12A 8949   1.104   6.086   6.500  1.6196 -1.7609  0.3508
   92SAPS   C13 8950   0.955   5.998   6.362  0.1442  0.4825  0.6834
   92SAPS  O13A 8951   0.994   5.920   6.269  0.2363 -0.0984  0.4603
   92SAPS  O13B 8952   0.870   6.088   6.336  0.4241  0.3684 -0.0201
   92SAPS   C11 8953   0.927   6.046   6.600 -0.3080 -0.0429  0.1437
   92SAPS  H11A 8954   0.881   6.144   6.577  2.7853  1.9519  1.6912
   92SAPS  H11B 8955   0.968   6.072   6.700  0.1734 -0.6077  0.1038
   92SAPS     P 8956   0.680   6.004   6.677  0.0562  0.1776  0.3853
   92SAPS   O13 8957   0.696   6.132   6.746 -0.4835 -0.0569  0.1167
   92SAPS   O14 8958   0.581   5.998   6.565  0.3050 -0.4914 -0.3773
   92SAPS   O12 8959   0.814   5.958   6.615  0.2635  0.1167  0.0980
   92SAPS   O11 8960   0.641   5.896   6.781 -0.2530 -0.0159  0.2160
   92SAPS    C1 8961   0.742   5.826   6.846 -0.5590 -0.3185  0.4322
   92SAPS    HA 8962   0.709   5.720   6.849  1.2110 -0.9872 -1.5156
   92SAPS    HB 8963   0.842   5.824   6.799 -1.7694  0.3638 -2.4086
   92SAPS    C2 8964   0.758   5.887   6.988  0.2922  0.6896 -0.2311
   92SAPS    HS 8965   0.813   5.983   6.977  2.3684 -0.2463  1.2052
   92SAPS   O21 8966   0.832   5.788   7.071  0.1027  0.0991  0.0946
   92SAPS   C21 8967   0.922   5.840   7.149  0.0020 -0.3136  0.1327
   92SAPS   O22 8968   0.944   5.964   7.147 -0.6316  0.1994 -0.1141
   92SAPS   C22 8969   0.999   5.722   7.220 -0.6415 -0.4387 -0.7828
   92SAPS   H2R 8970   0.929   5.673   7.291  0.3688 -0.1501  0.4502
   92SAPS   H2S 8971   1.030   5.649   7.143  1.7833  0.9198 -1.2026
   92SAPS    C3 8972   0.621   5.911   7.059 -0.0699 -0.3184  0.1070
   92SAPS    HX 8973   0.576   5.814   7.089 -0.4220 -1.0651 -2.5588
   92SAPS    HY 8974   0.545   5.947   6.987 -0.2598 -1.1141 -0.1055
   92SAPS   O31 8975   0.638   5.993   7.171  0.5005  0.2183  0.5380
   92SAPS   C31 8976   0.625   6.125   7.159 -0.1096 -0.5737 -0.4428
   92SAPS   O32 8977   0.603   6.180   7.053 -0.5719  0.0753 -0.5854
   92SAPS   C32 8978   0.630   6.187   7.299  0.7208 -0.4415  0.0745
   92SAPS   H2X 8979   0.525   6.196   7.334 -0.3008 -0.8983 -2.5674
   92SAPS   H2Y 8980   0.679   6.285   7.278 -1.1660  0.5422  0.0882
   92SAPS   C23 8981   1.114   5.782   7.308  0.7747  0.4267  0.5163
   92SAPS   H3R 8982   1.069   5.852   7.382  1.2090  2.0730 -0.7084
   92SAPS   H3S 8983   1.180   5.842   7.242  1.3668 -0.7949 -0.0330
   92SAPS   C24 8984   1.198   5.678   7.384 -0.7721 -0.6673  0.9182
   92SAPS   H4R 8985   1.136   5.597   7.429  0.8156 -1.7251  1.2715
   92SAPS   H4S 8986   1.261   5.723   7.463  3.0776 -1.7702 -1.2630
   92SAPS   C25 8987   1.290   5.616   7.280  0.2384  0.4413 -0.4617
   92SAPS   H5R 8988   1.241   5.550   7.207 -0.3624  1.4483 -0.9792
   92SAPS   C26 8989   1.424   5.633   7.270  0.2223 -0.8907 -0.3398
   92SAPS   H6R 8990   1.472   5.589   7.182 -0.0604  0.2232 -1.0725
   92SAPS   C27 8991   1.512   5.730   7.351  0.3083  0.8324  0.1259
   92SAPS   H7R 8992   1.614   5.687   7.358  0.0484 -0.0905 -1.3231
   92SAPS   H7S 8993   1.477   5.751   7.455 -2.0125  1.0946 -0.6432
   92SAPS   C28 8994   1.533   5.852   7.265  0.0305  0.8631 -0.1543
   92SAPS   H8R 8995   1.533   5.829   7.157  0.3971  0.2798 -0.0371
   92SAPS   C29 8996   1.544   5.977   7.308 -0.4262 -0.8610  0.1083
   92SAPS   H9R 8997   1.569   6.056   7.235 -0.1865 -1.4672 -0.4676
   92SAPS  C210 8998   1.536   6.022   7.459 -0.4169 -0.4997  0.3536
   92SAPS  H10R 8999   1.641   6.017   7.494 -0.7501 -1.2726  1.2867
   92SAPS  H10S 9000   1.483   5.956   7.531  1.9422 -1.5681  1.1962
   92SAPS  C211 9001   1.480   6.163   7.459 -0.2896  0.4992  0.2866
   92SAPS  H11R 9002   1.531   6.220   7.380  1.3247 -2.1002 -0.6861
   92SAPS  C212 9003   1.383   6.217   7.536 -0.0317 -0.0637  0.7181
   92SAPS  H12R 9004   1.359   6.324   7.522  3.1733  0.5494 -0.8705
   92SAPS  C213 9005   1.316   6.149   7.645 -0.5918 -0.5596 -0.4043
   92SAPS  H13R 9006   1.278   6.238   7.699  1.9867  0.4073 -0.0612
   92SAPS  H13S 9007   1.393   6.092   7.701  1.7357  2.9696  0.2631
   92SAPS  C214 9008   1.198   6.058   7.603  0.2903 -0.4440  0.0636
   92SAPS  H14R 9009   1.169   6.072   7.498  2.2292  0.5515 -0.3902
   92SAPS  C215 9010   1.148   5.951   7.672 -0.2469 -0.8403 -0.6406
   92SAPS  H15R 9011   1.059   5.892   7.645 -1.1342 -0.2177  0.8091
   92SAPS  C216 9012   1.202   5.908   7.808 -0.0778  0.3083 -0.9892
   92SAPS  H16R 9013   1.306   5.871   7.794  0.3696  0.2120  1.8660
   92SAPS  H16S 9014   1.143   5.822   7.846  1.2274  0.0498  0.5571
   92SAPS  C217 9015   1.194   6.018   7.914 -0.8378  0.7278 -0.2856
   92SAPS  H17R 9016   1.095   6.067   7.919 -0.5786  1.1596  1.8331
   92SAPS  H17S 9017   1.271   6.094   7.888  0.9850 -0.9615 -0.1049
   92SAPS  C218 9018   1.213   5.965   8.054 -0.2180 -0.0273 -0.3651
   92SAPS  H18R 9019   1.122   5.908   8.079  1.5090 -2.8317 -0.0009
   92SAPS  H18S 9020   1.213   6.055   8.120  0.2009 -1.5902  1.8774
   92SAPS  C219 9021   1.335   5.885   8.087  0.2077 -0.0557  0.2450
   92SAPS  H19R 9022   1.416   5.960   8.078 -0.0857  0.0252 -2.5429
   92SAPS  H19S 9023   1.359   5.816   8.004  0.4641 -0.8663  0.9847
   92SAPS  C220 9024   1.327   5.796   8.207 -0.7523  0.5797  0.0226
   92SAPS  H20R 9025   1.424   5.743   8.207 -0.3291  1.3438 -0.3849
   92SAPS  H20S 9026   1.245   5.721   8.211 -1.5763  1.4590 -0.0731
   92SAPS  H20T 9027   1.319   5.861   8.297  1.3128  0.5563  0.2630
   92SAPS   C33 9028   0.709   6.118   7.404  0.4531 -0.0467 -0.6083
   92SAPS   H3X 9029   0.817   6.111   7.380  0.6441 -1.7073  0.5033
   92SAPS   H3Y 9030   0.667   6.020   7.437  0.4016  0.5089  1.1230
   92SAPS   C34 9031   0.723   6.194   7.538  0.3321  0.2699 -0.2766
   92SAPS   H4X 9032   0.632   6.169   7.596  0.1791  2.1233  0.3543
   92SAPS   H4Y 9033   0.728   6.302   7.512  0.4675 -0.1044 -1.8933
   92SAPS   C35 9034   0.857   6.153   7.604 -0.0676 -0.7625 -0.3808
   92SAPS   H5X 9035   0.943   6.191   7.545 -0.7878 -2.0946 -2.4030
   92SAPS   H5Y 9036   0.860   6.042   7.611  0.2386 -0.7885 -0.9021
   92SAPS   C36 9037   0.864   6.201   7.750  0.2470 -0.3029 -0.1191
   92SAPS   H6X 9038   0.878   6.311   7.748 -3.7730  0.3702 -2.0572
   92SAPS   H6Y 9039   0.954   6.158   7.799  0.0013 -0.6535  0.0274
   92SAPS   C37 9040   0.743   6.170   7.842  0.1864  0.2790  0.0652
   92SAPS   H7X 9041   0.718   6.063   7.835  0.6099  0.2426 -0.9950
   92SAPS   H7Y 9042   0.656   6.224   7.800 -1.1475 -2.4621 -0.8879
   92SAPS   C38 9043   0.755   6.213   7.980 -0.1782 -0.2181  0.1234
   92SAPS   H8X 9044   0.775   6.322   7.980  1.0420 -0.4122 -0.7384
   92SAPS   H8Y 9045   0.849   6.174   8.025  0.5347  1.5010  0.1967
   92SAPS   C39 9046   0.627   6.188   8.060  0.3423  0.2048  0.0593
   92SAPS   H9X 9047   0.569   6.099   8.029  0.6807  0.2185 -0.6518
   92SAPS   H9Y 9048   0.552   6.260   8.020  0.2017 -0.8055 -1.5918
   92SAPS  C310 9049   0.653   6.199   8.211 -0.2348  0.7309  0.1025
   92SAPS  H10X 9050   0.695   6.301   8.225 -0.9904  0.7897  2.0849
   92SAPS  H10Y 9051   0.725   6.124   8.250 -0.8740  0.8050  1.4799
   92SAPS  C311 9052   0.534   6.174   8.304  0.1753 -0.0001  0.3419
   92SAPS  H11X 9053   0.450   6.231   8.257 -2.2031 -0.6345  3.4785
   92SAPS  H11Y 9054   0.560   6.213   8.405 -1.2204 -0.1065  0.7638
   92SAPS  C312 9055   0.497   6.029   8.311  0.2043 -0.0676  1.6309
   92SAPS  H12X 9056   0.572   5.974   8.372  0.9676 -0.1103  0.6816
   92SAPS  H12Y 9057   0.492   5.983   8.209 -0.4619 -0.7336  1.9539
   92SAPS  C313 9058   0.351   6.008   8.377 -0.6957 -0.1005  0.3943
   92SAPS  H13X 9059   0.282   6.047   8.298 -0.3035 -2.0212 -0.9809
   92SAPS  H13Y 9060   0.337   6.066   8.471  0.1269  0.5079  0.1541
   92SAPS  C314 9061   0.323   5.859   8.397  0.2823 -0.1693  0.0345
   92SAPS  H14X 9062   0.366   5.821   8.492  0.7593 -1.1466 -0.5579
   92SAPS  H14Y 9063   0.369   5.788   8.326  1.5289  0.0359  0.6055
   92SAPS  C315 9064   0.173   5.820   8.395 -0.3954 -0.2608 -0.6866
   92SAPS  H15X 9065   0.171   5.714   8.429 -2.0305 -0.5650 -1.6252
   92SAPS  H15Y 9066   0.142   5.837   8.290  1.9900  3.3593 -0.9824
   92SAPS  C316 9067   0.082   5.898   8.494 -0.0562 -0.1532 -0.0151
   92SAPS  H16X 9068  -0.027   5.879   8.485 -0.3027  1.1025  0.1487
   92SAPS  H16Y 9069   0.096   6.007   8.477  0.1726 -0.2747 -0.6139
   92SAPS  C317 9070   0.116   5.879   8.643 -0.4522 -0.3794  0.2271
   92SAPS  H17X 9071   0.215   5.921   8.672 -1.8259  1.5195  2.4893
   92SAPS  H17Y 9072   0.121   5.770   8.664  2.4145 -0.5638 -0.9307
   92SAPS  C318 9073   0.019   5.955   8.730  0.0501 -0.0576 -0.3264
   92SAPS  H18X 9074  -0.085   5.923   8.713 -0.0330  0.6973 -1.3409
   92SAPS  H18Y 9075   0.022   6.065   8.711 -4.7828  0.3897  0.4034
   92SAPS  H18Z 9076   0.046   5.944   8.837 -0.4944  0.0990 -0.1695
   93SAPS     N 9077   3.207   2.123   6.419  0.3523  0.3133 -0.5077
   93SAPS   HN1 9078   3.276   2.093   6.347 -1.3349 -2.1674 -1.1958
   93SAPS   HN2 9079   3.202   2.226   6.437 -0.5559  0.7484 -2.8686
   93SAPS   HN3 9080   3.242   2.086   6.510  1.2085  1.0787 -0.5019
   93SAPS   C12 9081   3.080   2.055   6.381 -0.3570  0.8266  0.8203
   93SAPS  H12A 9082   3.013   2.097   6.454  0.4081  2.3210  0.7161
   93SAPS   C13 9083   3.027   2.095   6.244  0.1059 -0.6234  0.0150
   93SAPS  O13A 9084   3.076   2.190   6.177 -0.4672 -0.0473 -0.1498
   93SAPS  O13B 9085   2.934   2.028   6.188 -0.5005  0.2407  0.1892
   93SAPS   C11 9086   3.098   1.897   6.386  0.2994  0.4169  0.1848
   93SAPS  H11A 9087   3.165   1.859   6.307 -4.0632 -2.0575 -2.7411
   93SAPS  H11B 9088   2.998   1.850   6.376  0.6702 -0.7782  1.6783
   93SAPS     P 9089   3.137   1.727   6.586 -0.3176  0.1071  0.1167
   93SAPS   O13 9090   3.180   1.623   6.491 -0.4841  0.2465 -0.1283
   93SAPS   O14 9091   3.220   1.733   6.706  0.1092 -0.5492  0.2609
   93SAPS   O12 9092   3.151   1.869   6.513  0.1357  0.1265 -0.5981
   93SAPS   O11 9093   2.986   1.701   6.610 -0.1862  0.2413 -0.7334
   93SAPS    C1 9094   2.954   1.606   6.717 -0.3397 -0.0268  0.4227
   93SAPS    HA 9095   2.995   1.507   6.687  0.1828  0.3451 -0.1141
   93SAPS    HB 9096   2.992   1.644   6.814 -0.5888  0.5102  0.3186
   93SAPS    C2 9097   2.804   1.580   6.730 -0.0543  0.2431 -0.1253
   93SAPS    HS 9098   2.771   1.557   6.627  0.4662 -0.5466 -0.1185
   93SAPS   O21 9099   2.748   1.690   6.805 -0.2138  0.3167 -0.1309
   93SAPS   C21 9100   2.614   1.695   6.786  0.3123  0.6886  0.1129
   93SAPS   O22 9101   2.548   1.617   6.719  0.1799  0.1389 -0.0542
   93SAPS   C22 9102   2.555   1.810   6.865 -0.4790 -0.0931  0.9198
   93SAPS   H2R 9103   2.637   1.873   6.906  0.1455 -0.3896  0.1418
   93SAPS   H2S 9104   2.500   1.866   6.786  2.8118  0.2875 -1.2740
   93SAPS    C3 9105   2.781   1.443   6.803  0.6572 -0.1966  0.4808
   93SAPS    HX 9106   2.846   1.370   6.750  0.8467 -0.4834  1.1034
   93SAPS    HY 9107   2.678   1.420   6.770  1.0228 -0.5801 -0.4334
   93SAPS   O31 9108   2.793   1.450   6.950  0.2996 -0.5269  0.4189
   93SAPS   C31 9109   2.907   1.403   7.001 -0.3590 -0.0096  0.0496
   93SAPS   O32 9110   2.997   1.362   6.927 -0.4816 -0.0394 -0.2103
   93SAPS   C32 9111   2.917   1.402   7.151 -0.0006  0.0844 -0.1728
   93SAPS   H2X 9112   2.850   1.317   7.178  0.8222 -0.4648  0.1840
   93SAPS   H2Y 9113   2.882   1.490   7.210 -0.2026 -0.4398  0.5117
   93SAPS   C23 9114   2.468   1.770   6.979  0.3892 -0.3369  0.8562
   93SAPS   H3R 9115   2.372   1.745   6.929  1.7172  1.3422 -2.9095
   93SAPS   H3S 9116   2.452   1.863   7.037  2.2433 -0.3050  1.3702
   93SAPS   C24 9117   2.533   1.678   7.083 -0.1469 -0.5185  0.1500
   93SAPS   H4R 9118   2.548   1.583   7.027 -1.3947 -0.6015 -0.0650
   93SAPS   H4S 9119   2.463   1.658   7.167  0.0697 -1.0981  0.1982
   93SAPS   C25 9120   2.658   1.735   7.138 -0.2432  0.1114  0.0904
   93SAPS   H5R 9121   2.756   1.716   7.092  1.1503  1.7409  2.1942
   93SAPS   C26 9122   2.658   1.831   7.230 -0.2667  0.6513 -0.0677
   93SAPS   H6R 9123   2.756   1.862   7.269  1.0284 -1.4211 -1.4972
   93SAPS   C27 9124   2.530   1.881   7.307 -0.0060 -0.0924 -0.3923
   93SAPS   H7R 9125   2.434   1.828   7.293 -0.5978  1.3407 -2.1441
   93SAPS   H7S 9126   2.502   1.976   7.256 -0.0748  0.0627 -0.0663
   93SAPS   C28 9127   2.537   1.919   7.455  0.3628  0.5204  0.0282
   93SAPS   H8R 9128   2.489   2.015   7.479  0.0445  0.0031  1.5744
   93SAPS   C29 9129   2.595   1.846   7.551 -0.1435  0.4151 -0.7909
   93SAPS   H9R 9130   2.592   1.881   7.655  1.3139 -1.1693 -0.1741
   93SAPS  C210 9131   2.670   1.719   7.535 -0.2685  0.4076  0.5079
   93SAPS  H10R 9132   2.778   1.737   7.558  0.5652 -0.2384 -2.5340
   93SAPS  H10S 9133   2.671   1.685   7.430  0.4811  1.8070  0.0439
   93SAPS  C211 9134   2.626   1.596   7.609 -0.0235  0.0388 -0.8584
   93SAPS  H11R 9135   2.558   1.536   7.546 -0.1047 -0.4871 -0.2771
   93SAPS  C212 9136   2.644   1.570   7.746 -0.2948 -0.3555  0.2776
   93SAPS  H12R 9137   2.597   1.482   7.793 -1.8015 -1.0029 -2.2686
   93SAPS  C213 9138   2.716   1.662   7.842 -0.9893  0.5699  0.0140
   93SAPS  H13R 9139   2.764   1.750   7.795  1.2095 -0.4248  0.2525
   93SAPS  H13S 9140   2.805   1.602   7.869 -2.0372  0.0419  2.6130
   93SAPS  C214 9141   2.635   1.711   7.963 -0.3641  0.2392 -0.7559
   93SAPS  H14R 9142   2.568   1.792   7.932 -1.1372  0.9431  2.4246
   93SAPS  C215 9143   2.654   1.674   8.093  0.1913 -0.0888 -0.6995
   93SAPS  H15R 9144   2.565   1.698   8.153  0.6341  0.9317 -0.4236
   93SAPS  C216 9145   2.753   1.568   8.138  0.1670 -0.2820 -0.1348
   93SAPS  H16R 9146   2.832   1.603   8.208 -0.1220 -1.5517  0.8681
   93SAPS  H16S 9147   2.811   1.522   8.055  1.4630 -1.5139  1.3897
   93SAPS  C217 9148   2.677   1.453   8.202  0.1338  0.3291 -0.1722
   93SAPS  H17R 9149   2.632   1.499   8.293 -0.1690 -1.1372  0.4481
   93SAPS  H17S 9150   2.741   1.368   8.234 -1.3629 -1.8788 -2.6545
   93SAPS  C218 9151   2.563   1.385   8.128 -0.2454 -0.4254  0.2014
   93SAPS  H18R 9152   2.598   1.331   8.038  0.3966 -0.2047  0.3104
   93SAPS  H18S 9153   2.486   1.459   8.095  1.2169  0.1383 -2.1355
   93SAPS  C219 9154   2.477   1.289   8.211 -0.2761 -0.2660  0.1124
   93SAPS  H19R 9155   2.534   1.195   8.225  0.4478  0.1593  0.1240
   93SAPS  H19S 9156   2.382   1.261   8.162 -0.2583 -0.2228  0.0523
   93SAPS  C220 9157   2.426   1.337   8.348 -0.2086  0.7323 -0.9837
   93SAPS  H20R 9158   2.331   1.288   8.377 -0.9471  2.8160  0.3464
   93SAPS  H20S 9159   2.397   1.445   8.344 -0.5388  0.6393 -1.1875
   93SAPS  H20T 9160   2.499   1.315   8.428 -1.7961  1.7511  0.8209
   93SAPS   C33 9161   3.058   1.369   7.194  0.3767 -0.2507  0.6127
   93SAPS   H3X 9162   3.128   1.453   7.180 -0.8265  0.8259  0.8224
   93SAPS   H3Y 9163   3.099   1.283   7.137  3.5564 -0.0193  2.3473
   93SAPS   C34 9164   3.062   1.338   7.346 -0.1124  0.3974 -0.2107
   93SAPS   H4X 9165   2.990   1.257   7.370  0.8221 -0.3260  0.2203
   93SAPS   H4Y 9166   3.029   1.432   7.395  0.1226  1.3808 -1.8381
   93SAPS   C35 9167   3.203   1.297   7.395 -0.5738  0.0902 -0.4757
   93SAPS   H5X 9168   3.279   1.365   7.352  0.5272 -0.6358  0.2657
   93SAPS   H5Y 9169   3.229   1.190   7.380  1.2840  0.2774  1.0940
   93SAPS   C36 9170   3.222   1.321   7.548 -0.1605 -0.0770 -0.5928
   93SAPS   H6X 9171   3.201   1.427   7.574  0.5959 -0.0432 -0.0761
   93SAPS   H6Y 9172   3.327   1.302   7.580 -0.2364 -0.3856 -0.5264
   93SAPS   C37 9173   3.133   1.243   7.644  0.0730  0.8782  0.3049
   93SAPS   H7X 9174   3.139   1.133   7.631 -0.5212  0.9890 -0.9796
   93SAPS   H7Y 9175   3.029   1.268   7.614  0.7466  2.5436 -0.8233
   93SAPS   C38 9176   3.165   1.266   7.791 -0.1180  0.0725 -0.6277
   93SAPS   H8X 9177   3.269   1.229   7.804 -0.6574 -1.1629  0.3430
   93SAPS   H8Y 9178   3.093   1.214   7.858 -0.6723 -0.9480 -1.9634
   93SAPS   C39 9179   3.160   1.419   7.831  0.3064 -0.8758  1.1151
   93SAPS   H9X 9180   3.071   1.481   7.807  1.2062  0.4790  1.1572
   93SAPS   H9Y 9181   3.240   1.463   7.768  0.2545  0.7924  2.1455
   93SAPS  C310 9182   3.194   1.450   7.975 -0.7638  0.4418 -0.7540
   93SAPS  H10X 9183   3.195   1.559   7.995  0.1278  0.6725 -1.9736
   93SAPS  H10Y 9184   3.294   1.408   7.999 -0.2981 -0.5790 -4.0289
   93SAPS  C311 9185   3.102   1.384   8.079  0.9810  0.3539  0.1296
   93SAPS  H11X 9186   3.092   1.274   8.064 -1.5543  0.2196  2.0509
   93SAPS  H11Y 9187   2.999   1.419   8.053  1.2647  1.4515  0.4473
   93SAPS  C312 9188   3.147   1.412   8.221  0.1090  0.7536 -0.5118
   93SAPS  H12X 9189   3.150   1.523   8.223 -1.6322  0.8222  1.4023
   93SAPS  H12Y 9190   3.251   1.373   8.233  1.0555  2.8826 -1.2772
   93SAPS  C313 9191   3.060   1.365   8.338  0.2754 -0.0121 -0.4546
   93SAPS  H13X 9192   3.072   1.258   8.364 -0.1528 -0.1641 -0.8801
   93SAPS  H13Y 9193   2.957   1.396   8.312  0.7415 -0.0188 -2.5072
   93SAPS  C314 9194   3.107   1.436   8.471 -0.1021  0.3160 -0.1337
   93SAPS  H14X 9195   3.077   1.543   8.480  1.7111  0.8424  0.0367
   93SAPS  H14Y 9196   3.218   1.437   8.471 -0.0537 -1.5348  0.2018
   93SAPS  C315 9197   3.055   1.371   8.599  0.0716 -0.0540  0.0381
   93SAPS  H15X 9198   3.085   1.265   8.606 -0.3178 -0.1272  0.7645
   93SAPS  H15Y 9199   2.944   1.376   8.599  0.1185  2.4441  1.4804
   93SAPS  C316 9200   3.112   1.447   8.719 -0.9580  0.8365  0.1131
   93SAPS  H16X 9201   3.090   1.555   8.708 -2.0071  0.6360  0.0542
   93SAPS  H16Y 9202   3.222   1.447   8.703 -1.1240 -1.3094 -1.4907
   93SAPS  C317 9203   3.071   1.390   8.860 -0.2462 -0.1607  0.4565
   93SAPS  H17X 9204   3.102   1.284   8.867  3.1975  0.6755 -0.2529
   93SAPS  H17Y 9205   2.960   1.399   8.854 -0.5081 -2.7906  0.1984
   93SAPS  C318 9206   3.118   1.465   8.982  0.3682 -0.6660 -0.2584
   93SAPS  H18X 9207   3.109   1.407   9.076 -0.0109  1.1327  0.8605
   93SAPS  H18Y 9208   3.054   1.554   9.001  3.2698  1.3914  0.4542
   93SAPS  H18Z 9209   3.221   1.503   8.963 -0.0549  1.8779  2.0140
   94SAPS     N 9210   4.461   4.914   5.955  0.2973  0.2123  0.5158
   94SAPS   HN1 9211   4.549   4.871   5.988  1.0853  1.2954 -0.1058
   94SAPS   HN2 9212   4.449   4.893   5.853  2.2460 -0.9275  0.4789
   94SAPS   HN3 9213   4.469   5.017   5.964 -1.4562  0.1815  3.6181
   94SAPS   C12 9214   4.353   4.867   6.047 -0.2809  0.2877 -0.0384
   94SAPS  H12A 9215   4.367   4.909   6.145 -0.7036  0.0715  0.1192
   94SAPS   C13 9216   4.214   4.919   6.006 -0.4082  0.0467 -0.4376
   94SAPS  O13A 9217   4.202   5.008   5.920 -0.0270 -0.0514 -0.1041
   94SAPS  O13B 9218   4.124   4.903   6.092 -0.3779 -0.6724 -0.0829
   94SAPS   C11 9219   4.356   4.714   6.062  0.2683 -0.2125 -0.4741
   94SAPS  H11A 9220   4.324   4.672   5.964  1.6228 -0.8406 -0.6770
   94SAPS  H11B 9221   4.278   4.679   6.133  0.9305 -0.5886  0.0723
   94SAPS     P 9222   4.552   4.537   6.067  0.2202 -0.3837 -0.0050
   94SAPS   O13 9223   4.560   4.523   5.920  0.3716  0.5365 -0.2021
   94SAPS   O14 9224   4.676   4.522   6.142 -0.2771  0.2761  0.5842
   94SAPS   O12 9225   4.485   4.672   6.107 -0.0030 -0.2347 -0.2195
   94SAPS   O11 9226   4.444   4.436   6.112 -0.0217  0.3922 -0.5002
   94SAPS    C1 9227   4.377   4.438   6.234  0.6883 -0.0553 -0.2013
   94SAPS    HA 9228   4.402   4.522   6.302 -0.2119 -0.6882  0.9574
   94SAPS    HB 9229   4.267   4.443   6.223  0.6658  1.0753  0.4138
   94SAPS    C2 9230   4.401   4.311   6.321  0.7599 -0.2129 -0.8004
   94SAPS    HS 9231   4.395   4.221   6.255  1.8218  2.0612 -4.3021
   94SAPS   O21 9232   4.288   4.304   6.413 -0.3271  0.0991 -0.1511
   94SAPS   C21 9233   4.263   4.192   6.478 -0.0665  0.4540  0.6085
   94SAPS   O22 9234   4.323   4.084   6.465  0.1247 -0.1701  0.3982
   94SAPS   C22 9235   4.132   4.209   6.562  0.1080 -0.1765  1.1853
   94SAPS   H2R 9236   4.059   4.260   6.497  1.8827  0.0345 -0.7475
   94SAPS   H2S 9237   4.098   4.103   6.571  0.4075 -0.5113 -1.0582
   94SAPS    C3 9238   4.535   4.325   6.398 -0.8237  0.0332  0.5309
   94SAPS    HX 9239   4.618   4.322   6.324 -0.3355  2.9997  0.8476
   94SAPS    HY 9240   4.555   4.243   6.470  1.4292  1.0127  1.0858
   94SAPS   O31 9241   4.544   4.452   6.468 -0.2884  0.0997  0.4773
   94SAPS   C31 9242   4.673   4.477   6.514  0.4295  0.2224 -0.0459
   94SAPS   O32 9243   4.769   4.417   6.482 -0.7324  0.1654 -0.4744
   94SAPS   C32 9244   4.668   4.579   6.622 -0.0998 -0.0364  0.3000
   94SAPS   H2X 9245   4.586   4.653   6.614  0.1278  0.1310 -0.6840
   94SAPS   H2Y 9246   4.765   4.632   6.615 -0.9106  1.7180  1.7963
   94SAPS   C23 9247   4.149   4.274   6.695  0.2581 -0.6082  0.2390
   94SAPS   H3R 9248   4.046   4.286   6.735  0.3633 -2.1801  1.0283
   94SAPS   H3S 9249   4.200   4.372   6.679  1.1140 -1.5367 -3.8427
   94SAPS   C24 9250   4.223   4.188   6.807 -0.4420  0.5905 -0.4227
   94SAPS   H4R 9251   4.259   4.261   6.882 -0.9448 -1.4387  1.9325
   94SAPS   H4S 9252   4.321   4.149   6.773 -0.4817  0.4870 -0.4188
   94SAPS   C25 9253   4.164   4.058   6.856 -0.0221 -0.5352 -1.0300
   94SAPS   H5R 9254   4.160   3.978   6.780 -1.8987 -0.3913 -1.1316
   94SAPS   C26 9255   4.110   4.038   6.979  0.9304 -0.2432 -0.1498
   94SAPS   H6R 9256   4.058   3.942   6.999  0.1558  0.0654 -0.6259
   94SAPS   C27 9257   4.108   4.131   7.098  0.4969  0.0790  0.1814
   94SAPS   H7R 9258   4.169   4.222   7.080  0.6884 -0.0865 -0.0088
   94SAPS   H7S 9259   4.148   4.066   7.179 -0.9598 -0.5855  0.4102
   94SAPS   C28 9260   3.967   4.182   7.141  0.2557 -0.4471  0.3978
   94SAPS   H8R 9261   3.923   4.250   7.066 -0.7535 -3.0939 -1.5498
   94SAPS   C29 9262   3.915   4.149   7.262 -0.3513 -0.3576  0.0037
   94SAPS   H9R 9263   3.813   4.186   7.274  0.1446  1.5433 -1.1451
   94SAPS  C210 9264   3.972   4.059   7.371  0.9603 -0.1609 -0.0645
   94SAPS  H10R 9265   4.015   3.965   7.330 -0.9331 -0.8191 -0.6416
   94SAPS  H10S 9266   3.888   4.019   7.432 -1.6567  1.3226 -2.4975
   94SAPS  C211 9267   4.072   4.143   7.452  0.0164  0.0547  0.3770
   94SAPS  H11R 9268   4.136   4.214   7.398 -1.1661  0.5169 -0.4609
   94SAPS  C212 9269   4.106   4.127   7.584 -0.1701  0.0532  0.4801
   94SAPS  H12R 9270   4.180   4.193   7.630 -1.2897  0.2188  2.1578
   94SAPS  C213 9271   4.049   4.020   7.673 -0.6265  0.3483 -0.3020
   94SAPS  H13R 9272   4.127   3.972   7.735 -1.4744 -0.9094 -0.1696
   94SAPS  H13S 9273   4.028   3.933   7.607 -0.0848  0.9865 -1.3527
   94SAPS  C214 9274   3.939   4.055   7.771  0.0624  0.5957  0.4373
   94SAPS  H14R 9275   3.852   4.102   7.724 -1.7194 -2.5444  0.3134
   94SAPS  C215 9276   3.940   4.023   7.904  0.2373  0.3126 -0.2479
   94SAPS  H15R 9277   3.856   4.058   7.967 -1.1893  0.9371 -2.4073
   94SAPS  C216 9278   4.044   3.949   7.986 -0.0744 -0.2085  0.2543
   94SAPS  H16R 9279   4.143   3.993   7.962  0.2905 -1.6048 -0.9888
   94SAPS  H16S 9280   4.048   3.847   7.942 -0.8061  0.4879 -1.5505
   94SAPS  C217 9281   4.005   3.937   8.137 -0.0629 -0.2025 -0.1234
   94SAPS  H17R 9282   3.897   3.911   8.140 -0.1846 -0.0054 -1.6919
   94SAPS  H17S 9283   4.011   4.034   8.190  1.2143  0.2044 -0.9700
   94SAPS  C218 9284   4.083   3.831   8.218 -0.0319 -0.4509 -0.4656
   94SAPS  H18R 9285   4.153   3.883   8.286 -0.7350 -0.0319 -0.0508
   94SAPS  H18S 9286   4.138   3.767   8.145  0.8310 -1.7402  1.2356
   94SAPS  C219 9287   3.993   3.724   8.291  0.3760 -0.4465 -0.4874
   94SAPS  H19R 9288   3.911   3.691   8.223  0.4373 -2.4572  0.3452
   94SAPS  H19S 9289   3.944   3.778   8.374  1.3872  1.4430 -1.0680
   94SAPS  C220 9290   4.072   3.606   8.333  0.5697  0.8190 -0.1694
   94SAPS  H20R 9291   4.149   3.638   8.406 -0.5967 -1.5063  2.2264
   94SAPS  H20S 9292   4.125   3.567   8.243 -0.3602 -0.2484 -0.2756
   94SAPS  H20T 9293   4.011   3.522   8.372  2.2197 -0.4644 -0.2341
   94SAPS   C33 9294   4.669   4.507   6.763 -0.4012  0.0654  0.6437
   94SAPS   H3X 9295   4.688   4.592   6.832 -0.9827 -1.4920  2.8475
   94SAPS   H3Y 9296   4.737   4.420   6.773 -0.2626  0.0345 -0.5040
   94SAPS   C34 9297   4.529   4.456   6.796 -0.1637  0.1898 -0.8210
   94SAPS   H4X 9298   4.496   4.357   6.757 -1.0739  0.7523 -1.5156
   94SAPS   H4Y 9299   4.462   4.528   6.745  0.9475  0.0871 -2.5113
   94SAPS   C35 9300   4.477   4.479   6.939  0.3328 -0.2883  0.0197
   94SAPS   H5X 9301   4.366   4.470   6.936  0.1941  1.4327 -1.3581
   94SAPS   H5Y 9302   4.492   4.586   6.964  1.7538 -0.3194 -0.6145
   94SAPS   C36 9303   4.548   4.394   7.045 -0.0734  0.0260  0.5068
   94SAPS   H6X 9304   4.637   4.451   7.078 -0.2659 -0.8785  2.7200
   94SAPS   H6Y 9305   4.590   4.310   6.987  1.2843  1.0402 -0.0466
   94SAPS   C37 9306   4.464   4.344   7.156  1.3303  0.9194  0.3218
   94SAPS   H7X 9307   4.528   4.281   7.221 -0.8403 -1.8222 -0.0205
   94SAPS   H7Y 9308   4.393   4.273   7.110  2.3274 -0.3808  0.7422
   94SAPS   C38 9309   4.382   4.441   7.244 -0.1255 -0.6588  0.2355
   94SAPS   H8X 9310   4.275   4.413   7.232  0.1288 -0.7504 -2.0921
   94SAPS   H8Y 9311   4.395   4.547   7.212 -1.5888 -1.0439 -1.8374
   94SAPS   C39 9312   4.419   4.419   7.393  0.4596  0.5546  0.5088
   94SAPS   H9X 9313   4.530   4.420   7.401  0.4791  1.3080  0.1989
   94SAPS   H9Y 9314   4.391   4.319   7.434  0.1848  0.2769 -0.3429
   94SAPS  C310 9315   4.369   4.529   7.486 -0.1401 -0.2242 -0.2228
   94SAPS  H10X 9316   4.258   4.526   7.488 -0.1387 -1.0855 -0.7780
   94SAPS  H10Y 9317   4.403   4.620   7.431  0.3309  1.0073  1.9979
   94SAPS  C311 9318   4.415   4.528   7.633 -0.1237  0.0111  0.2076
   94SAPS  H11X 9319   4.382   4.614   7.696 -2.5901 -0.9614  0.3413
   94SAPS  H11Y 9320   4.523   4.539   7.654 -0.2796  1.8282  0.2472
   94SAPS  C312 9321   4.346   4.407   7.703  0.1203  0.5369  0.1789
   94SAPS  H12X 9322   4.349   4.314   7.642  2.1268 -0.7372  2.0425
   94SAPS  H12Y 9323   4.237   4.422   7.715  0.4132  2.1336  1.0843
   94SAPS  C313 9324   4.407   4.360   7.836 -0.1942  0.3485  0.1387
   94SAPS  H13X 9325   4.518   4.365   7.841 -0.1166 -1.1095  0.2120
   94SAPS  H13Y 9326   4.381   4.252   7.834 -1.5224  0.6486  0.4353
   94SAPS  C314 9327   4.351   4.412   7.965  0.1955 -0.0768  0.7447
   94SAPS  H14X 9328   4.247   4.371   7.968 -0.1802  0.7113 -0.5156
   94SAPS  H14Y 9329   4.340   4.521   7.980 -0.1666 -0.1365  0.9442
   94SAPS  C315 9330   4.426   4.362   8.093 -0.4962 -0.1961 -0.2975
   94SAPS  H15X 9331   4.524   4.415   8.088 -1.6523  2.3762  1.7014
   94SAPS  H15Y 9332   4.451   4.254   8.082 -0.0485 -0.2119  0.7468
   94SAPS  C316 9333   4.377   4.387   8.234 -0.9346 -0.4586 -0.4482
   94SAPS  H16X 9334   4.329   4.487   8.232  2.6111  1.3816 -1.7877
   94SAPS  H16Y 9335   4.466   4.400   8.300  0.4149  2.3823 -2.6219
   94SAPS  C317 9336   4.263   4.299   8.292  0.1286  0.2245 -0.8085
   94SAPS  H17X 9337   4.186   4.284   8.213  1.0440 -2.1366 -1.3218
   94SAPS  H17Y 9338   4.218   4.345   8.383 -0.5557 -1.7527 -0.0827
   94SAPS  C318 9339   4.313   4.160   8.321  0.2569  0.6560  0.1204
   94SAPS  H18X 9340   4.228   4.114   8.376 -2.2131  2.5253 -1.8889
   94SAPS  H18Y 9341   4.404   4.162   8.384 -0.7539 -0.7933  1.7062
   94SAPS  H18Z 9342   4.349   4.107   8.230  1.7676 -1.6050  1.9119
   95SAPS     N 9343   6.329   1.569   6.417 -0.5201 -0.4175  0.2454
   95SAPS   HN1 9344   6.322   1.672   6.424 -1.0588 -0.4201 -0.2380
   95SAPS   HN2 9345   6.238   1.529   6.386  0.7738 -2.4394 -1.2359
   95SAPS   HN3 9346   6.355   1.527   6.508  1.0391  1.6516  0.8390
   95SAPS   C12 9347   6.446   1.524   6.335  0.3090 -0.2716  0.6192
   95SAPS  H12A 9348   6.433   1.417   6.331 -0.2223 -0.2477  1.5055
   95SAPS   C13 9349   6.450   1.575   6.191  0.4617  0.0705  0.1661
   95SAPS  O13A 9350   6.349   1.631   6.143  0.5156 -0.1322  0.5566
   95SAPS  O13B 9351   6.547   1.543   6.120 -0.5133  0.3451 -0.3182
   95SAPS   C11 9352   6.571   1.577   6.411  0.4973  0.3069  0.1023
   95SAPS  H11A 9353   6.578   1.687   6.419  1.0309  0.4633 -2.0350
   95SAPS  H11B 9354   6.653   1.551   6.341  0.3025 -0.4538  0.1452
   95SAPS     P 9355   6.684   1.416   6.582  0.1098  0.7710 -0.0058
   95SAPS   O13 9356   6.658   1.296   6.501  0.1747 -0.2703  0.3094
   95SAPS   O14 9357   6.820   1.468   6.580  0.2152 -0.5127  0.8326
   95SAPS   O12 9358   6.586   1.531   6.541  0.6301 -0.0021  0.4315
   95SAPS   O11 9359   6.647   1.379   6.739 -0.0758 -0.2032  0.2280
   95SAPS    C1 9360   6.632   1.475   6.842  0.2336 -0.3935  0.6059
   95SAPS    HA 9361   6.595   1.570   6.797  1.7092  0.9356  2.0126
   95SAPS    HB 9362   6.552   1.450   6.914 -0.6693  1.1420  0.1824
   95SAPS    C2 9363   6.761   1.500   6.920 -0.5617  0.4431  0.5523
   95SAPS    HS 9364   6.833   1.517   6.837  0.4877  0.7367  1.4922
   95SAPS   O21 9365   6.801   1.382   6.997 -0.6117 -0.3053 -0.2585
   95SAPS   C21 9366   6.921   1.382   7.047  0.5222 -0.3568 -0.2412
   95SAPS   O22 9367   7.004   1.473   7.030 -0.0954  0.0789  0.4358
   95SAPS   C22 9368   6.927   1.276   7.165 -1.0099 -0.5724  0.2993
   95SAPS   H2R 9369   6.852   1.196   7.147 -2.0033  0.5710 -0.8903
   95SAPS   H2S 9370   7.027   1.231   7.148 -0.1000  1.9438 -1.7393
   95SAPS    C3 9371   6.760   1.636   6.997  0.2555 -0.0943 -0.3053
   95SAPS    HX 9372   6.747   1.710   6.915 -1.4142  0.8219  0.7238
   95SAPS    HY 9373   6.854   1.665   7.048 -0.9578 -1.0869  2.7453
   95SAPS   O31 9374   6.651   1.635   7.092  0.1030 -0.3255  0.1632
   95SAPS   C31 9375   6.603   1.762   7.112  0.0587  0.4674  0.3785
   95SAPS   O32 9376   6.648   1.863   7.063 -0.2303 -0.0157 -0.0240
   95SAPS   C32 9377   6.473   1.748   7.198 -0.6986  0.2376  0.8031
   95SAPS   H2X 9378   6.404   1.670   7.161  0.2798 -1.1475  1.7872
   95SAPS   H2Y 9379   6.418   1.845   7.187 -1.1252  0.5537  4.3582
   95SAPS   C23 9380   6.922   1.347   7.301 -0.1106  0.7068  0.3395
   95SAPS   H3R 9381   6.838   1.419   7.309 -2.3280 -1.7297  0.1202
   95SAPS   H3S 9382   7.008   1.414   7.323 -0.2559  0.7814  0.6856
   95SAPS   C24 9383   6.911   1.242   7.412 -0.0243 -0.4441  0.0936
   95SAPS   H4R 9384   6.995   1.170   7.417  1.0741  0.8335  0.6086
   95SAPS   H4S 9385   6.814   1.188   7.406 -0.6656  0.7237 -0.3886
   95SAPS   C25 9386   6.918   1.315   7.538 -0.4913  0.3457 -0.4048
   95SAPS   H5R 9387   6.992   1.396   7.536 -0.0471 -0.0643 -1.0765
   95SAPS   C26 9388   6.839   1.296   7.648  0.1077  0.0255  0.0512
   95SAPS   H6R 9389   6.860   1.355   7.738 -0.0690  0.3996 -0.1505
   95SAPS   C27 9390   6.721   1.196   7.656 -0.1737  0.6304 -0.2438
   95SAPS   H7R 9391   6.693   1.149   7.559 -3.2249  0.3064  0.7038
   95SAPS   H7S 9392   6.633   1.258   7.683  1.1088  1.5324  2.1780
   95SAPS   C28 9393   6.764   1.096   7.759 -0.0944  0.4599  0.0995
   95SAPS   H8R 9394   6.829   1.020   7.714 -2.0724 -0.8083 -0.7531
   95SAPS   C29 9395   6.720   1.072   7.888 -0.3130  0.1836 -0.4134
   95SAPS   H9R 9396   6.773   0.997   7.949 -0.9202  0.5187  0.5587
   95SAPS  C210 9397   6.616   1.151   7.963  0.1833  0.5062  0.1803
   95SAPS  H10R 9398   6.595   1.093   8.055 -1.1011  0.5127 -0.0884
   95SAPS  H10S 9399   6.521   1.164   7.907  0.4166  2.1856  0.1109
   95SAPS  C211 9400   6.666   1.285   8.001  0.4280 -0.2584 -0.4320
   95SAPS  H11R 9401   6.712   1.339   7.917  1.6551 -1.5742 -0.6493
   95SAPS  C212 9402   6.658   1.339   8.123  0.4678  0.0497  0.2962
   95SAPS  H12R 9403   6.700   1.440   8.133  0.6637  0.2641 -2.1768
   95SAPS  C213 9404   6.592   1.289   8.245 -0.4373  0.0301 -0.4313
   95SAPS  H13R 9405   6.660   1.308   8.331 -0.1942 -1.9372 -0.1381
   95SAPS  H13S 9406   6.598   1.179   8.254 -1.3623  0.1298  2.0648
   95SAPS  C214 9407   6.446   1.328   8.273 -0.2653 -0.2887 -0.2884
   95SAPS  H14R 9408   6.369   1.290   8.203  0.0901  0.8161 -1.3083
   95SAPS  C215 9409   6.407   1.407   8.377 -0.5938 -0.1676  0.3457
   95SAPS  H15R 9410   6.299   1.420   8.388 -0.5931 -0.4929  0.7604
   95SAPS  C216 9411   6.485   1.470   8.494 -0.2356 -0.0713  0.3502
   95SAPS  H16R 9412   6.487   1.580   8.475 -0.1947 -0.1737 -0.2459
   95SAPS  H16S 9413   6.592   1.443   8.493 -0.1550  0.1349 -2.0628
   95SAPS  C217 9414   6.428   1.444   8.623 -0.7976  0.3116  0.3812
   95SAPS  H17R 9415   6.507   1.460   8.700 -1.1155 -1.0562  1.0403
   95SAPS  H17S 9416   6.413   1.335   8.642 -2.0003  0.3932 -0.0178
   95SAPS  C218 9417   6.307   1.523   8.658  0.0210 -0.0300  0.9036
   95SAPS  H18R 9418   6.239   1.513   8.571 -0.2680 -0.9170  1.2110
   95SAPS  H18S 9419   6.336   1.629   8.667  1.7556 -0.3974 -0.0207
   95SAPS  C219 9420   6.258   1.491   8.798  0.1210  0.0663 -0.1282
   95SAPS  H19R 9421   6.264   1.381   8.813 -3.7335 -0.1614  0.7034
   95SAPS  H19S 9422   6.152   1.525   8.801 -0.5905 -1.8102 -1.9254
   95SAPS  C220 9423   6.354   1.567   8.901 -0.8810  0.2521  0.4389
   95SAPS  H20R 9424   6.332   1.546   9.008  0.1434 -1.6744  0.3147
   95SAPS  H20S 9425   6.334   1.675   8.888 -2.6260 -0.1138 -0.2858
   95SAPS  H20T 9426   6.460   1.555   8.870  0.2394  1.8486  3.2524
   95SAPS   C33 9427   6.513   1.726   7.343  0.2373  0.5614 -0.0539
   95SAPS   H3X 9428   6.412   1.727   7.390  0.4542 -1.0588  0.5087
   95SAPS   H3Y 9429   6.578   1.805   7.389 -0.8742  0.7283  1.3007
   95SAPS   C34 9430   6.569   1.585   7.372 -0.2921  0.7786  0.3735
   95SAPS   H4X 9431   6.667   1.581   7.320  2.2410 -2.7672  4.6322
   95SAPS   H4Y 9432   6.511   1.498   7.334  1.9603 -0.5206 -0.2466
   95SAPS   C35 9433   6.593   1.563   7.523 -0.1474 -0.3683 -0.6665
   95SAPS   H5X 9434   6.660   1.647   7.551 -0.6415 -0.5034  1.0870
   95SAPS   H5Y 9435   6.649   1.467   7.531 -0.3284 -0.5016 -0.9811
   95SAPS   C36 9436   6.456   1.570   7.600  0.1390  0.0204  0.3566
   95SAPS   H6X 9437   6.395   1.479   7.582  1.1394 -0.2872 -1.8114
   95SAPS   H6Y 9438   6.391   1.656   7.578 -0.3536  0.2262  2.4295
   95SAPS   C37 9439   6.479   1.587   7.750  0.1866 -0.7753  0.1365
   95SAPS   H7X 9440   6.530   1.681   7.780  1.7474 -1.8236  0.8956
   95SAPS   H7Y 9441   6.550   1.508   7.782  0.6062  0.0644  1.3745
   95SAPS   C38 9442   6.359   1.579   7.845  0.1637 -0.3892 -0.7177
   95SAPS   H8X 9443   6.301   1.488   7.819 -1.6822  1.0337 -1.7633
   95SAPS   H8Y 9444   6.287   1.662   7.827 -0.1422 -0.5117 -0.0828
   95SAPS   C39 9445   6.397   1.578   7.997 -0.5423 -0.5227 -0.7219
   95SAPS   H9X 9446   6.446   1.481   8.022 -0.9948 -0.3296  1.0669
   95SAPS   H9Y 9447   6.304   1.573   8.059  0.2269 -2.4153  0.3825
   95SAPS  C310 9448   6.474   1.701   8.045  0.5146 -0.2022 -0.2996
   95SAPS  H10X 9449   6.410   1.787   8.018  0.1245 -0.1479  0.7554
   95SAPS  H10Y 9450   6.572   1.706   7.994 -0.0874  0.0977 -1.4514
   95SAPS  C311 9451   6.488   1.708   8.197  0.1322 -0.5047  0.1196
   95SAPS  H11X 9452   6.542   1.616   8.230  2.1579 -1.1245 -4.1442
   95SAPS  H11Y 9453   6.386   1.705   8.240 -0.8982 -0.1206 -2.1354
   95SAPS  C312 9454   6.556   1.836   8.247  0.0117  0.3921  0.1847
   95SAPS  H12X 9455   6.496   1.925   8.218 -0.1065 -0.3776 -2.1663
   95SAPS  H12Y 9456   6.657   1.850   8.203 -0.7272  3.2381 -0.8282
   95SAPS  C313 9457   6.554   1.833   8.401  0.3350  0.9355 -0.3249
   95SAPS  H13X 9458   6.618   1.744   8.420  0.3797  0.7320 -1.4031
   95SAPS  H13Y 9459   6.450   1.809   8.431  0.1919 -0.3876 -1.7733
   95SAPS  C314 9460   6.614   1.951   8.470  0.2972  0.1234 -0.2194
   95SAPS  H14X 9461   6.578   2.044   8.421 -0.8736 -0.1347  0.1116
   95SAPS  H14Y 9462   6.725   1.946   8.467  0.2481 -1.9891  0.1327
   95SAPS  C315 9463   6.558   1.957   8.613  0.6005 -0.0954 -0.4210
   95SAPS  H15X 9464   6.449   1.939   8.601  0.8394 -1.5872 -0.6015
   95SAPS  H15Y 9465   6.581   2.055   8.660 -0.0877 -0.6495  1.1264
   95SAPS  C316 9466   6.606   1.839   8.700  0.0572 -0.3613 -0.1089
   95SAPS  H16X 9467   6.611   1.742   8.646 -2.7096 -0.2788 -0.6623
   95SAPS  H16Y 9468   6.526   1.831   8.777 -0.0077  1.6591  0.0948
   95SAPS  C317 9469   6.729   1.862   8.782  0.6573 -0.2775  0.9047
   95SAPS  H17X 9470   6.711   1.945   8.854 -1.4357 -0.2034  0.3815
   95SAPS  H17Y 9471   6.809   1.892   8.712 -1.0699  0.8572 -0.7061
   95SAPS  C318 9472   6.770   1.744   8.876  0.0553  0.1054  1.1332
   95SAPS  H18X 9473   6.684   1.725   8.943  1.2210 -2.5804  1.9927
   95SAPS  H18Y 9474   6.857   1.777   8.937  0.7492  0.5459 -0.0623
   95SAPS  H18Z 9475   6.806   1.651   8.827  1.6209  1.7443 -0.9954
   96SAPS     N 9476   1.366   2.067   6.117  0.3377 -0.1535  0.9466
   96SAPS   HN1 9477   1.436   2.014   6.174  3.5788  2.3860 -0.3185
   96SAPS   HN2 9478   1.270   2.064   6.156 -1.1036  0.8316 -2.1662
   96SAPS   HN3 9479   1.364   2.035   6.018  0.1792  0.4416  0.7511
   96SAPS   C12 9480   1.404   2.211   6.114  0.8799 -0.6444 -0.5926
   96SAPS  H12A 9481   1.509   2.224   6.095  0.6749 -0.2080 -1.4981
   96SAPS   C13 9482   1.342   2.295   5.996  0.0654  0.5501  0.3402
   96SAPS  O13A 9483   1.266   2.225   5.920  0.5525 -0.5488  0.3434
   96SAPS  O13B 9484   1.382   2.409   5.971  0.2790 -0.0811  0.3164
   96SAPS   C11 9485   1.356   2.279   6.246 -0.0920  0.0756 -0.3935
   96SAPS  H11A 9486   1.249   2.249   6.255  0.0167 -0.6330 -1.2991
   96SAPS  H11B 9487   1.364   2.389   6.234  0.6341  0.1490  0.6954
   96SAPS     P 9488   1.534   2.311   6.434 -0.2529 -0.2220 -0.5342
   96SAPS   O13 9489   1.660   2.307   6.354 -0.0997 -0.7699 -0.7966
   96SAPS   O14 9490   1.476   2.446   6.470 -0.0612 -0.4111 -0.1866
   96SAPS   O12 9491   1.426   2.230   6.361  0.4525  0.2487  0.4193
   96SAPS   O11 9492   1.555   2.233   6.568  0.2645 -0.5967  0.0088
   96SAPS    C1 9493   1.617   2.103   6.576 -0.1516 -0.4845  0.3879
   96SAPS    HA 9494   1.551   2.033   6.520  1.3755 -0.1436 -2.0169
   96SAPS    HB 9495   1.714   2.094   6.523 -0.7033 -0.7585 -0.6003
   96SAPS    C2 9496   1.637   2.061   6.724 -0.2858  0.2135  0.3945
   96SAPS    HS 9497   1.537   2.070   6.772  0.8513  1.3269  2.7325
   96SAPS   O21 9498   1.740   2.144   6.785  0.8002  0.4293  0.0780
   96SAPS   C21 9499   1.737   2.141   6.916 -0.4586 -0.1599  0.4609
   96SAPS   O22 9500   1.644   2.091   6.982 -0.0713  0.2327 -0.4844
   96SAPS   C22 9501   1.858   2.217   6.976 -0.2153 -0.8929 -0.0708
   96SAPS   H2R 9502   1.954   2.198   6.924 -0.9368  0.5544 -2.0416
   96SAPS   H2S 9503   1.831   2.323   6.959  0.4376 -1.2188 -3.8499
   96SAPS    C3 9504   1.695   1.915   6.714  0.1844 -0.7418  0.0390
   96SAPS    HX 9505   1.789   1.910   6.655 -0.4067 -0.5902 -0.9521
   96SAPS    HY 9506   1.618   1.856   6.660  0.2443 -1.7679  1.0341
   96SAPS   O31 9507   1.720   1.852   6.836  0.1711  0.1315 -0.1484
   96SAPS   C31 9508   1.614   1.791   6.894  0.7416 -0.8228 -0.1066
   96SAPS   O32 9509   1.503   1.784   6.842  0.9813  0.0516  0.2013
   96SAPS   C32 9510   1.653   1.726   7.021  0.7596 -0.0334 -0.4590
   96SAPS   H2X 9511   1.753   1.681   7.006  1.2638  1.4238 -1.8460
   96SAPS   H2Y 9512   1.575   1.649   7.033 -0.2316  0.8037 -1.2923
   96SAPS   C23 9513   1.893   2.169   7.119  0.1804 -0.4688 -0.2773
   96SAPS   H3R 9514   1.918   2.062   7.110 -0.8665 -0.7038 -0.5681
   96SAPS   H3S 9515   1.812   2.159   7.194  1.2120  0.0345  0.9498
   96SAPS   C24 9516   2.011   2.239   7.179 -0.8273  0.2724  0.7470
   96SAPS   H4R 9517   2.086   2.264   7.100  1.7529 -0.9424  2.6491
   96SAPS   H4S 9518   2.063   2.170   7.250 -0.7781  0.3615  0.7975
   96SAPS   C25 9519   1.976   2.367   7.242  0.1335 -0.3901 -0.5653
   96SAPS   H5R 9520   1.994   2.456   7.180 -0.1105  0.2077  0.2080
   96SAPS   C26 9521   1.946   2.378   7.369  0.0664 -0.1640 -0.1629
   96SAPS   H6R 9522   1.917   2.476   7.408  0.2945 -0.1879  0.0764
   96SAPS   C27 9523   1.940   2.275   7.479 -0.6085  0.0982 -0.9676
   96SAPS   H7R 9524   2.004   2.317   7.560 -0.0980  0.3846 -1.5048
   96SAPS   H7S 9525   2.007   2.191   7.451  1.5302  1.4779 -0.2859
   96SAPS   C28 9526   1.796   2.231   7.503 -0.2240  0.5019 -0.1820
   96SAPS   H8R 9527   1.748   2.200   7.410  0.7280  1.5336 -1.0469
   96SAPS   C29 9528   1.733   2.214   7.626 -0.1479  0.9494  0.1471
   96SAPS   H9R 9529   1.631   2.175   7.638  0.7502 -1.3240  1.0245
   96SAPS  C210 9530   1.798   2.246   7.762 -0.5529  0.3718 -0.8186
   96SAPS  H10R 9531   1.841   2.348   7.773  0.8640 -0.3808  1.0398
   96SAPS  H10S 9532   1.887   2.181   7.756  0.3357  1.6009 -1.4164
   96SAPS  C211 9533   1.725   2.195   7.881 -0.3596  0.2782  0.4668
   96SAPS  H11R 9534   1.634   2.137   7.861 -0.3472  0.4964 -0.2365
   96SAPS  C212 9535   1.763   2.201   8.007  0.3487 -0.6365  0.2573
   96SAPS  H12R 9536   1.698   2.148   8.078 -1.6287  0.9226 -0.2764
   96SAPS  C213 9537   1.885   2.265   8.072 -0.1741  0.1297  0.1655
   96SAPS  H13R 9538   1.844   2.351   8.129  0.3636  1.4306 -1.3330
   96SAPS  H13S 9539   1.949   2.310   7.992  0.2797  1.5559  1.2820
   96SAPS  C214 9540   1.971   2.171   8.152 -0.3116  0.1511 -0.5259
   96SAPS  H14R 9541   2.038   2.105   8.095 -0.2566 -0.2125 -0.0450
   96SAPS  C215 9542   1.975   2.149   8.287  0.0763 -0.3149  0.8081
   96SAPS  H15R 9543   2.035   2.067   8.331 -0.2492 -0.8149  0.3182
   96SAPS  C216 9544   1.899   2.221   8.393 -0.6969  0.0958  0.0303
   96SAPS  H16R 9545   1.855   2.311   8.343 -0.8299 -0.8358 -1.6078
   96SAPS  H16S 9546   1.978   2.260   8.460  1.9855 -1.0894 -2.2250
   96SAPS  C217 9547   1.794   2.136   8.476  0.1401 -0.0252  0.0114
   96SAPS  H17R 9548   1.860   2.054   8.513 -2.3178 -2.9046 -1.5191
   96SAPS  H17S 9549   1.713   2.094   8.412 -0.2452  1.3106 -0.4126
   96SAPS  C218 9550   1.731   2.203   8.606 -0.0397 -0.8251 -0.4499
   96SAPS  H18R 9551   1.651   2.276   8.580 -0.3307 -0.5654  1.0212
   96SAPS  H18S 9552   1.806   2.272   8.650 -0.4796 -0.4742 -0.2315
   96SAPS  C219 9553   1.666   2.096   8.698  0.2597 -0.1150 -0.7336
   96SAPS  H19R 9554   1.675   2.002   8.640 -0.4100  1.0020 -2.7217
   96SAPS  H19S 9555   1.556   2.110   8.709  0.2227 -0.5722 -0.4792
   96SAPS  C220 9556   1.725   2.063   8.835  0.2933 -0.4423  0.7096
   96SAPS  H20R 9557   1.835   2.065   8.818  0.1254  1.7404 -0.4243
   96SAPS  H20S 9558   1.700   1.963   8.877 -0.7568 -0.4149  0.1630
   96SAPS  H20T 9559   1.701   2.144   8.907  1.5480  1.8132 -1.2848
   96SAPS   C33 9560   1.664   1.825   7.141  0.2085  0.0825  0.0865
   96SAPS   H3X 9561   1.582   1.900   7.136  0.7840  0.7082 -0.0911
   96SAPS   H3Y 9562   1.765   1.870   7.136  0.0434  0.3978 -0.5382
   96SAPS   C34 9563   1.637   1.751   7.275  0.9280 -0.4230 -0.6220
   96SAPS   H4X 9564   1.731   1.701   7.308  1.1134  0.1354 -0.2804
   96SAPS   H4Y 9565   1.560   1.672   7.271  0.9374 -0.4140 -0.9693
   96SAPS   C35 9566   1.591   1.855   7.379  0.1557 -0.0296  0.3866
   96SAPS   H5X 9567   1.507   1.921   7.347  1.3908  1.3364 -0.1640
   96SAPS   H5Y 9568   1.664   1.931   7.414 -1.9279  2.0182  0.5280
   96SAPS   C36 9569   1.527   1.796   7.503 -0.4794  0.0489 -0.4418
   96SAPS   H6X 9570   1.607   1.743   7.560 -2.0883 -0.9458  0.9862
   96SAPS   H6Y 9571   1.463   1.712   7.468 -0.0504  0.4984 -2.4352
   96SAPS   C37 9572   1.439   1.885   7.590 -0.6648  0.3665  0.0918
   96SAPS   H7X 9573   1.364   1.937   7.527 -1.2123  0.3750  0.7428
   96SAPS   H7Y 9574   1.487   1.966   7.650 -0.7609  0.9115 -0.5509
   96SAPS   C38 9575   1.352   1.809   7.693 -0.3934  0.3800  0.3159
   96SAPS   H8X 9576   1.327   1.705   7.660 -0.1802  0.5453 -0.3849
   96SAPS   H8Y 9577   1.259   1.869   7.691  0.3411  1.5327 -0.7575
   96SAPS   C39 9578   1.406   1.812   7.840 -0.3426 -0.8831  0.2020
   96SAPS   H9X 9579   1.424   1.918   7.870  0.3958 -1.1364  0.6687
   96SAPS   H9Y 9580   1.496   1.747   7.849  1.1439  1.2828  2.1510
   96SAPS  C310 9581   1.307   1.742   7.935 -0.1073  0.8251 -0.2150
   96SAPS  H10X 9582   1.275   1.642   7.899 -0.9970  0.4536  1.4936
   96SAPS  H10Y 9583   1.223   1.815   7.933 -0.5719  0.2734 -1.6472
   96SAPS  C311 9584   1.361   1.732   8.079  0.1774  0.0214  0.1066
   96SAPS  H11X 9585   1.408   1.824   8.120 -0.5838 -0.3912  2.0065
   96SAPS  H11Y 9586   1.446   1.661   8.081 -0.1646 -0.4212  2.2911
   96SAPS  C312 9587   1.262   1.688   8.179  0.6212  0.5808 -0.4008
   96SAPS  H12X 9588   1.216   1.592   8.147 -2.3277  2.3572 -1.8462
   96SAPS  H12Y 9589   1.177   1.757   8.195  1.2070  0.7582  2.7386
   96SAPS  C313 9590   1.321   1.673   8.329 -0.1521 -0.3853  0.2972
   96SAPS  H13X 9591   1.338   1.778   8.362  0.9923 -0.7282  0.8471
   96SAPS  H13Y 9592   1.422   1.627   8.325 -0.6665 -1.5618  0.4127
   96SAPS  C314 9593   1.231   1.605   8.425 -0.1490  0.0961 -0.0995
   96SAPS  H14X 9594   1.208   1.503   8.391 -1.6843  0.3738  0.0293
   96SAPS  H14Y 9595   1.141   1.666   8.446 -1.1744 -0.9286 -1.3860
   96SAPS  C315 9596   1.302   1.572   8.555  0.1382 -0.0210 -0.3683
   96SAPS  H15X 9597   1.364   1.656   8.590  0.1563 -0.5883  1.0062
   96SAPS  H15Y 9598   1.371   1.488   8.537 -0.9015 -1.0869  0.4304
   96SAPS  C316 9599   1.191   1.533   8.659  0.5296  0.0158 -0.5580
   96SAPS  H16X 9600   1.124   1.453   8.621  1.5850 -0.7845 -0.7513
   96SAPS  H16Y 9601   1.133   1.627   8.674 -0.7516 -0.6498 -1.1336
   96SAPS  C317 9602   1.236   1.488   8.790  0.2255 -0.9358 -0.3821
   96SAPS  H17X 9603   1.294   1.568   8.842 -0.2631 -0.4155 -0.6239
   96SAPS  H17Y 9604   1.301   1.399   8.782 -0.7529 -1.6478 -0.5475
   96SAPS  C318 9605   1.115   1.439   8.878 -0.1928  0.5045  0.7651
   96SAPS  H18X 9606   1.074   1.341   8.847 -1.2813  1.1374  0.1310
   96SAPS  H18Y 9607   1.031   1.513   8.886 -1.5710 -1.0759  1.5955
   96SAPS  H18Z 9608   1.162   1.433   8.978  0.1431  1.4652  0.6789
   97SAPS     N 9609   1.603   0.318   6.464  0.4295  0.4644 -0.3890
   97SAPS   HN1 9610   1.616   0.365   6.372  1.7234  2.0334  0.5376
   97SAPS   HN2 9611   1.560   0.225   6.443  1.6552  0.3578 -2.7413
   97SAPS   HN3 9612   1.537   0.377   6.518  0.0846  0.6403 -0.9939
   97SAPS   C12 9613   1.735   0.301   6.527 -0.4292  0.6393  0.3467
   97SAPS  H12A 9614   1.797   0.237   6.465  2.2672  4.6770 -1.5777
   97SAPS   C13 9615   1.819   0.433   6.530  0.0930 -0.2495  0.3417
   97SAPS  O13A 9616   1.776   0.553   6.507  0.0492 -0.7923  0.3015
   97SAPS  O13B 9617   1.943   0.412   6.559 -0.1530 -0.7625  0.3701
   97SAPS   C11 9618   1.715   0.238   6.666 -0.7520  0.0881  0.0441
   97SAPS  H11A 9619   1.657   0.315   6.723 -2.6445 -2.2848  1.5531
   97SAPS  H11B 9620   1.814   0.233   6.716 -1.1577  1.1106  1.0130
   97SAPS     P 9621   1.723  -0.023   6.694 -0.1621  0.2873 -0.0995
   97SAPS   O13 9622   1.623  -0.135   6.709 -0.1986 -0.4634 -0.7484
   97SAPS   O14 9623   1.829  -0.039   6.593  0.0083 -0.0209 -0.1075
   97SAPS   O12 9624   1.644   0.113   6.668  0.3046  0.7541 -0.0500
   97SAPS   O11 9625   1.797  -0.006   6.838  0.4993 -0.3614  0.3406
   97SAPS    C1 9626   1.715   0.022   6.952  0.5191  0.3905 -0.0530
   97SAPS    HA 9627   1.619   0.069   6.921  0.6036  0.3503 -0.3855
   97SAPS    HB 9628   1.689  -0.068   7.012  0.1263  0.5469  0.0147
   97SAPS    C2 9629   1.783   0.125   7.053  0.3386  0.2287  0.1429
   97SAPS    HS 9630   1.810   0.207   6.984  2.7839 -1.3985 -0.9714
   97SAPS   O21 9631   1.895   0.055   7.105 -0.0425  0.1372  0.6618
   97SAPS   C21 9632   1.998   0.132   7.142 -0.0219 -0.5992 -0.4716
   97SAPS   O22 9633   1.999   0.251   7.141  0.1514 -0.1853 -1.0947
   97SAPS   C22 9634   2.113   0.038   7.175 -0.0281 -0.9535 -0.0369
   97SAPS   H2R 9635   2.088  -0.070   7.164  0.3084 -1.0994  0.5347
   97SAPS   H2S 9636   2.189   0.071   7.101 -0.4997 -0.9242 -0.5093
   97SAPS    C3 9637   1.689   0.177   7.157  0.1647  1.2812 -1.0836
   97SAPS    HX 9638   1.609   0.245   7.119 -0.9988  0.4267 -0.2560
   97SAPS    HY 9639   1.759   0.243   7.212  1.7243 -0.1694 -1.2569
   97SAPS   O31 9640   1.630   0.076   7.248  0.0080 -0.2401 -0.4466
   97SAPS   C31 9641   1.504   0.051   7.223 -0.2006 -0.2983  0.0854
   97SAPS   O32 9642   1.431   0.104   7.146  0.0596 -0.6472  0.0370
   97SAPS   C32 9643   1.451  -0.053   7.324 -0.5183  0.4079 -0.8693
   97SAPS   H2X 9644   1.538  -0.118   7.348 -2.5081 -1.7781  0.8911
   97SAPS   H2Y 9645   1.375  -0.114   7.271  1.2350 -0.4646 -2.5071
   97SAPS   C23 9646   2.178   0.068   7.305 -0.2158  0.2870 -0.3027
   97SAPS   H3R 9647   2.204   0.176   7.319 -1.9301  0.7203 -0.2144
   97SAPS   H3S 9648   2.271   0.009   7.300  0.5051  1.3883 -0.2355
   97SAPS   C24 9649   2.105   0.020   7.433 -0.1178  0.6325  0.2126
   97SAPS   H4R 9650   2.183   0.007   7.511  0.2227  1.5750  0.0397
   97SAPS   H4S 9651   2.066  -0.077   7.398  1.0336  0.8342 -1.7796
   97SAPS   C25 9652   1.997   0.117   7.474  0.1359  0.5707 -0.3161
   97SAPS   H5R 9653   1.908   0.105   7.410  2.7015 -3.7150 -3.6286
   97SAPS   C26 9654   1.998   0.183   7.587 -0.4496 -0.8204  0.1958
   97SAPS   H6R 9655   1.908   0.245   7.601 -0.6082 -1.1945  0.9298
   97SAPS   C27 9656   2.111   0.189   7.688  0.2311  0.3637 -0.1099
   97SAPS   H7R 9657   2.201   0.240   7.649 -0.3371  2.2359  0.9109
   97SAPS   H7S 9658   2.139   0.083   7.706 -0.1594  0.4793  1.3463
   97SAPS   C28 9659   2.068   0.256   7.817 -0.6620  0.0488  0.3375
   97SAPS   H8R 9660   2.070   0.364   7.796  0.8211 -0.2579 -1.3445
   97SAPS   C29 9661   2.029   0.193   7.933  0.4673 -0.0343  1.0388
   97SAPS   H9R 9662   2.007   0.258   8.019  0.1371 -0.3372  1.1871
   97SAPS  C210 9663   2.031   0.042   7.961 -0.3287 -0.6587 -0.3258
   97SAPS  H10R 9664   2.024  -0.021   7.870  0.8815 -2.1213  0.5544
   97SAPS  H10S 9665   1.941   0.011   8.018 -0.9109  0.2286 -0.7257
   97SAPS  C211 9666   2.165  -0.002   8.024  0.2746  1.0817  0.2722
   97SAPS  H11R 9667   2.253   0.008   7.959  1.4530 -2.0561  1.1968
   97SAPS  C212 9668   2.175  -0.061   8.143 -0.2994  0.8207 -0.1527
   97SAPS  H12R 9669   2.280  -0.069   8.177 -0.3246  1.3584  0.0588
   97SAPS  C213 9670   2.069  -0.096   8.241 -0.5005 -0.3221 -0.0455
   97SAPS  H13R 9671   2.108  -0.166   8.318 -2.5002 -1.1086  0.3295
   97SAPS  H13S 9672   1.987  -0.158   8.200 -0.4104 -0.7307  0.3772
   97SAPS  C214 9673   2.011   0.027   8.320 -0.0373 -0.0706  0.4019
   97SAPS  H14R 9674   2.049   0.124   8.287  2.0841 -0.9661 -0.0049
   97SAPS  C215 9675   1.919   0.021   8.416 -0.7680  0.1008 -0.2341
   97SAPS  H15R 9676   1.894   0.117   8.464  1.4622  0.1029  1.0442
   97SAPS  C216 9677   1.853  -0.098   8.475 -0.9281 -0.2040  0.1403
   97SAPS  H16R 9678   1.894  -0.197   8.445  1.6531  1.3720 -1.9713
   97SAPS  H16S 9679   1.744  -0.098   8.454 -0.8042  0.7261 -0.5526
   97SAPS  C217 9680   1.862  -0.098   8.634  0.6281 -0.0960  0.7277
   97SAPS  H17R 9681   1.810  -0.187   8.675  1.0973 -0.8341 -0.2161
   97SAPS  H17S 9682   1.797  -0.026   8.688  1.3796 -0.4610  2.1611
   97SAPS  C218 9683   1.998  -0.090   8.699  0.5943 -0.0928  0.9183
   97SAPS  H18R 9684   2.026   0.013   8.728  1.0049 -0.5190  2.1287
   97SAPS  H18S 9685   2.075  -0.138   8.636  1.1321  0.1156  1.4103
   97SAPS  C219 9686   2.001  -0.171   8.826 -0.0868 -0.1094 -0.2139
   97SAPS  H19R 9687   1.968  -0.274   8.798 -1.1735  0.1478  0.0959
   97SAPS  H19S 9688   1.943  -0.122   8.906  1.9137 -0.0176  1.2748
   97SAPS  C220 9689   2.145  -0.165   8.887 -0.9390  1.1959 -0.4204
   97SAPS  H20R 9690   2.201  -0.219   8.808  0.1403 -0.0733  1.1511
   97SAPS  H20S 9691   2.165  -0.231   8.974 -0.9673 -0.4864 -1.6397
   97SAPS  H20T 9692   2.190  -0.064   8.898  0.3489  0.4965  1.2630
   97SAPS   C33 9693   1.401   0.013   7.457  0.4228 -0.0514 -0.0815
   97SAPS   H3X 9694   1.341   0.102   7.429 -1.8752 -1.0227  1.4413
   97SAPS   H3Y 9695   1.489   0.056   7.510 -0.8874  0.6671  1.5736
   97SAPS   C34 9696   1.336  -0.092   7.548 -0.8026 -0.8569  0.1489
   97SAPS   H4X 9697   1.414  -0.170   7.560 -0.4337 -0.7049 -1.0625
   97SAPS   H4Y 9698   1.245  -0.131   7.497 -0.3526  0.5525 -1.8262
   97SAPS   C35 9699   1.308  -0.015   7.681 -0.2148 -0.6585 -0.1022
   97SAPS   H5X 9700   1.246   0.070   7.647  1.7285  0.5376 -0.8676
   97SAPS   H5Y 9701   1.401   0.039   7.708 -0.3776 -0.1678 -0.5031
   97SAPS   C36 9702   1.249  -0.125   7.773  0.0126 -0.6200  0.0274
   97SAPS   H6X 9703   1.316  -0.150   7.858  1.5682  1.6719 -0.4341
   97SAPS   H6Y 9704   1.215  -0.209   7.709  1.6049 -0.4903 -1.0383
   97SAPS   C37 9705   1.120  -0.070   7.846  0.4276 -0.0800 -0.3709
   97SAPS   H7X 9706   1.049  -0.036   7.767 -1.4070  3.6034  2.5595
   97SAPS   H7Y 9707   1.141   0.024   7.901  0.9653 -0.1509 -0.4500
   97SAPS   C38 9708   1.042  -0.171   7.936  0.6270 -0.2332 -0.3842
   97SAPS   H8X 9709   1.002  -0.248   7.867  0.7991  0.4217 -1.2401
   97SAPS   H8Y 9710   0.966  -0.115   7.995  1.6770  1.8569 -0.8968
   97SAPS   C39 9711   1.134  -0.231   8.038 -0.2815  0.1411  0.0728
   97SAPS   H9X 9712   1.186  -0.166   8.111 -0.5888 -2.0813  2.4207
   97SAPS   H9Y 9713   1.210  -0.294   7.988  1.6204  1.8377  0.6929
   97SAPS  C310 9714   1.047  -0.333   8.117 -0.4569 -0.6382 -0.1898
   97SAPS  H10X 9715   1.022  -0.419   8.052 -1.3504 -0.7040  0.2265
   97SAPS  H10Y 9716   0.952  -0.283   8.145 -1.5450 -1.9721 -1.3625
   97SAPS  C311 9717   1.110  -0.366   8.253  0.1290 -0.0088  0.7144
   97SAPS  H11X 9718   1.101  -0.286   8.329  0.2031  0.4422  0.2579
   97SAPS  H11Y 9719   1.211  -0.404   8.227 -0.0098 -0.0599  0.2251
   97SAPS  C312 9720   1.041  -0.485   8.314  0.3514  0.0973 -0.0542
   97SAPS  H12X 9721   0.993  -0.539   8.229 -2.0385  0.6694  0.8562
   97SAPS  H12Y 9722   0.965  -0.447   8.386 -1.4677 -1.3147 -1.1287
   97SAPS  C313 9723   1.144  -0.578   8.386 -0.1246 -0.3517 -0.0710
   97SAPS  H13X 9724   1.207  -0.520   8.457  0.8147 -2.5486  0.9758
   97SAPS  H13Y 9725   1.210  -0.631   8.314  1.5814  0.3184  0.9483
   97SAPS  C314 9726   1.073  -0.690   8.476 -0.3250  0.4446  0.1425
   97SAPS  H14X 9727   1.147  -0.760   8.520 -0.9318  0.3726  1.0785
   97SAPS  H14Y 9728   1.010  -0.754   8.411  1.3471  0.2657 -1.3851
   97SAPS  C315 9729   0.998  -0.623   8.596  0.2434  0.3613  0.0931
   97SAPS  H15X 9730   0.903  -0.575   8.566  0.6077  0.9808 -0.1120
   97SAPS  H15Y 9731   1.058  -0.537   8.635  0.1471  0.0275  0.9832
   97SAPS  C316 9732   0.981  -0.730   8.706  0.4669 -0.0365  0.4671
   97SAPS  H16X 9733   1.076  -0.742   8.762  0.7557 -0.8858 -0.1844
   97SAPS  H16Y 9734   0.973  -0.832   8.661  0.8573 -0.4107  1.2277
   97SAPS  C317 9735   0.853  -0.725   8.798  0.3349 -1.0212 -0.1905
   97SAPS  H17X 9736   0.848  -0.818   8.858 -1.3959 -0.6587  0.3049
   97SAPS  H17Y 9737   0.758  -0.729   8.740 -0.3234 -2.6895  0.9434
   97SAPS  C318 9738   0.848  -0.600   8.890 -0.8441 -0.7559 -0.5847
   97SAPS  H18X 9739   0.840  -0.505   8.834  1.1269 -0.2275 -0.0473
   97SAPS  H18Y 9740   0.938  -0.601   8.956 -1.3052 -1.3664  0.0487
   97SAPS  H18Z 9741   0.774  -0.622   8.970  2.2298  0.3961  2.8696
   98SAPS     N 9742   6.472   1.115   6.591  0.4503  0.6111  0.2466
   98SAPS   HN1 9743   6.522   1.196   6.548  0.8334  0.3667  0.2305
   98SAPS   HN2 9744   6.474   1.145   6.691 -1.8492 -0.2788  0.6355
   98SAPS   HN3 9745   6.529   1.029   6.585 -0.4702 -0.1979  2.0548
   98SAPS   C12 9746   6.337   1.112   6.542  0.2186  0.2645 -0.3789
   98SAPS  H12A 9747   6.284   1.038   6.599 -1.9275  1.9446 -0.0729
   98SAPS   C13 9748   6.267   1.251   6.556  0.3740 -0.2450  0.0314
   98SAPS  O13A 9749   6.328   1.359   6.576 -0.0388 -0.2389 -0.4051
   98SAPS  O13B 9750   6.150   1.252   6.509 -0.2948 -0.0755  0.5606
   98SAPS   C11 9751   6.344   1.050   6.401 -0.8044  0.2656  0.3782
   98SAPS  H11A 9752   6.414   1.114   6.344 -2.8436  1.2592 -1.1236
   98SAPS  H11B 9753   6.252   1.061   6.341 -0.4006 -2.7384 -0.9912
   98SAPS     P 9754   6.287   0.793   6.378 -0.3654  0.0038  0.1503
   98SAPS   O13 9755   6.189   0.835   6.281  0.2612  0.5484  0.0507
   98SAPS   O14 9756   6.353   0.659   6.351 -0.1482  0.0921  0.6453
   98SAPS   O12 9757   6.394   0.910   6.396  1.0499 -0.4586 -0.1294
   98SAPS   O11 9758   6.217   0.787   6.512  0.6735  0.2097 -0.2130
   98SAPS    C1 9759   6.281   0.746   6.631 -0.0684  0.3297  0.2045
   98SAPS    HA 9760   6.333   0.651   6.605 -1.2030 -0.4518  0.6995
   98SAPS    HB 9761   6.354   0.820   6.670  0.7730 -1.0924  1.4512
   98SAPS    C2 9762   6.191   0.710   6.755  0.4800 -0.0809 -0.5698
   98SAPS    HS 9763   6.115   0.636   6.724 -0.2917 -0.0488  1.1152
   98SAPS   O21 9764   6.130   0.834   6.793 -0.4494  0.1491 -0.4207
   98SAPS   C21 9765   6.003   0.852   6.746  0.2734  0.5829 -0.5589
   98SAPS   O22 9766   5.941   0.776   6.676  0.3752 -0.7981  0.3010
   98SAPS   C22 9767   5.954   0.985   6.788  0.2657  0.4539  0.3450
   98SAPS   H2R 9768   6.015   1.022   6.873  1.6761  0.9627 -0.8382
   98SAPS   H2S 9769   5.952   1.041   6.691 -1.5389 -3.2335 -1.9520
   98SAPS    C3 9770   6.271   0.652   6.873  0.0629  0.2002  0.3595
   98SAPS    HX 9771   6.342   0.727   6.913  1.1858 -0.6298 -0.0431
   98SAPS    HY 9772   6.341   0.573   6.836 -1.2274 -0.6722 -0.3260
   98SAPS   O31 9773   6.175   0.605   6.976 -0.6933  0.0302  0.1249
   98SAPS   C31 9774   6.146   0.482   6.970  0.3216 -0.8311 -0.3804
   98SAPS   O32 9775   6.180   0.398   6.892 -0.2833  0.1403  0.1706
   98SAPS   C32 9776   6.063   0.459   7.101  0.2498  0.0204  0.6722
   98SAPS   H2X 9777   6.084   0.546   7.167 -3.0154  0.9943  0.6076
   98SAPS   H2Y 9778   6.106   0.366   7.143 -2.9338 -1.3209  1.2417
   98SAPS   C23 9779   5.810   0.969   6.841 -0.4120 -0.9783  0.7958
   98SAPS   H3R 9780   5.761   0.875   6.809  0.2671 -0.1168 -3.2183
   98SAPS   H3S 9781   5.754   1.057   6.802 -0.5548 -1.7594 -0.8166
   98SAPS   C24 9782   5.813   0.970   6.998 -0.0281  0.1077  0.4612
   98SAPS   H4R 9783   5.706   0.983   7.028 -0.9617  1.3867 -2.9406
   98SAPS   H4S 9784   5.860   1.068   7.022 -0.6235  0.3050  0.8562
   98SAPS   C25 9785   5.872   0.860   7.081  0.0280 -1.0962  0.6475
   98SAPS   H5R 9786   5.967   0.822   7.040  0.5232  0.5381  0.2211
   98SAPS   C26 9787   5.826   0.822   7.200 -0.9050 -0.6531 -0.2413
   98SAPS   H6R 9788   5.880   0.743   7.253  0.1743  1.3312  1.7864
   98SAPS   C27 9789   5.707   0.871   7.278  0.7100 -0.4785 -0.7667
   98SAPS   H7R 9790   5.639   0.782   7.279  0.3957 -0.2412 -0.7385
   98SAPS   H7S 9791   5.659   0.955   7.223  0.3470  0.9118  1.5403
   98SAPS   C28 9792   5.744   0.913   7.417 -0.7555 -0.0984  0.0041
   98SAPS   H8R 9793   5.850   0.941   7.429 -0.7796 -0.2048  0.5004
   98SAPS   C29 9794   5.664   0.896   7.527 -0.7921 -0.4075 -0.0685
   98SAPS   H9R 9795   5.703   0.932   7.623  1.4895  0.5267 -1.2476
   98SAPS  C210 9796   5.530   0.833   7.533  0.0214 -0.5382 -0.4021
   98SAPS  H10R 9797   5.511   0.765   7.619 -1.4475 -0.3297 -0.5305
   98SAPS  H10S 9798   5.519   0.772   7.441  0.1066 -0.5416 -0.4101
   98SAPS  C211 9799   5.422   0.947   7.520  0.4154 -0.6895 -0.2062
   98SAPS  H11R 9800   5.441   1.027   7.447 -0.2285  0.2354  0.6190
   98SAPS  C212 9801   5.318   0.964   7.602 -0.2399 -0.1626  0.6811
   98SAPS  H12R 9802   5.246   1.043   7.576  0.3659  0.2623  0.2563
   98SAPS  C213 9803   5.271   0.870   7.718 -0.3838 -0.3380  0.0427
   98SAPS  H13R 9804   5.360   0.859   7.782 -0.7581 -0.0654  0.6212
   98SAPS  H13S 9805   5.239   0.771   7.679  0.9077 -2.4180  3.7528
   98SAPS  C214 9806   5.163   0.936   7.808  0.6317  0.0849  0.2755
   98SAPS  H14R 9807   5.068   0.952   7.755  0.0788  2.2128  1.7821
   98SAPS  C215 9808   5.176   0.978   7.935  0.1125  0.1411  0.4423
   98SAPS  H15R 9809   5.085   1.017   7.984  0.4607  1.0313  0.3923
   98SAPS  C216 9810   5.289   0.960   8.039 -0.1022 -0.1945 -0.7634
   98SAPS  H16R 9811   5.287   1.043   8.112 -1.5257  1.1573 -2.2391
   98SAPS  H16S 9812   5.386   0.976   7.988  1.1838  0.7820  1.8307
   98SAPS  C217 9813   5.302   0.819   8.099  0.2900  0.2138  0.5721
   98SAPS  H17R 9814   5.398   0.821   8.156  0.5815  0.1662  0.0895
   98SAPS  H17S 9815   5.304   0.736   8.026  0.4296 -2.8239  3.7817
   98SAPS  C218 9816   5.181   0.789   8.187 -0.0585 -0.3124  0.9733
   98SAPS  H18R 9817   5.174   0.679   8.195 -1.3136 -0.2937  0.3350
   98SAPS  H18S 9818   5.088   0.822   8.136 -0.5428  0.5158  2.3331
   98SAPS  C219 9819   5.198   0.847   8.329 -0.3871  0.2853 -0.8345
   98SAPS  H19R 9820   5.223   0.955   8.324  0.5473  0.0906 -0.6195
   98SAPS  H19S 9821   5.286   0.801   8.380 -0.3457 -0.5972 -1.6514
   98SAPS  C220 9822   5.082   0.823   8.421  0.4528  0.2165  0.2789
   98SAPS  H20R 9823   4.992   0.875   8.381  1.2780  0.7234 -0.9687
   98SAPS  H20S 9824   5.085   0.866   8.524 -2.6570  1.3761  0.0015
   98SAPS  H20T 9825   5.057   0.715   8.426 -0.7715  0.4997  0.8642
   98SAPS   C33 9826   5.914   0.433   7.072 -0.4331  0.0460  0.0416
   98SAPS   H3X 9827   5.907   0.396   6.967  0.6706 -1.7369  0.5617
   98SAPS   H3Y 9828   5.848   0.522   7.081 -1.2027 -0.3810 -1.1451
   98SAPS   C34 9829   5.859   0.313   7.153 -1.0287 -0.2085  0.5711
   98SAPS   H4X 9830   5.881   0.323   7.262 -1.0931 -0.9517  0.6599
   98SAPS   H4Y 9831   5.900   0.213   7.126 -0.8608 -0.1999  0.7868
   98SAPS   C35 9832   5.709   0.305   7.122  0.6517  0.1255 -0.1085
   98SAPS   H5X 9833   5.673   0.202   7.143  1.3834 -0.1479 -0.1510
   98SAPS   H5Y 9834   5.687   0.333   7.016  3.1763  0.2544 -0.6559
   98SAPS   C36 9835   5.616   0.402   7.196  0.7336 -0.6892 -0.0011
   98SAPS   H6X 9836   5.520   0.399   7.140  0.6973  2.6456 -0.3039
   98SAPS   H6Y 9837   5.649   0.508   7.193 -1.5477  0.1174  0.5770
   98SAPS   C37 9838   5.604   0.353   7.341  0.6477 -0.0317  0.8143
   98SAPS   H7X 9839   5.699   0.371   7.396 -0.0139 -2.3242  2.9028
   98SAPS   H7Y 9840   5.584   0.243   7.343 -1.6092  0.2120 -2.1926
   98SAPS   C38 9841   5.487   0.424   7.405  1.0095 -0.0695  0.4033
   98SAPS   H8X 9842   5.403   0.407   7.334  1.8170  0.0980 -0.6191
   98SAPS   H8Y 9843   5.498   0.533   7.425  1.6954  0.1252 -0.9564
   98SAPS   C39 9844   5.439   0.362   7.542 -0.0497 -0.1311  0.2316
   98SAPS   H9X 9845   5.508   0.386   7.626 -1.2292 -2.0363  1.8402
   98SAPS   H9Y 9846   5.439   0.252   7.529  1.8972 -0.0874 -0.4567
   98SAPS  C310 9847   5.298   0.416   7.582 -0.3612 -0.0514  0.1686
   98SAPS  H10X 9848   5.230   0.410   7.494 -0.9268  0.0818  0.5879
   98SAPS  H10Y 9849   5.317   0.523   7.606 -1.8237 -0.1222  1.8895
   98SAPS  C311 9850   5.231   0.353   7.702 -0.0885  0.1892  0.0455
   98SAPS  H11X 9851   5.241   0.242   7.691 -1.5237  0.2413 -2.4244
   98SAPS  H11Y 9852   5.122   0.373   7.710 -0.2871 -0.8583  0.1344
   98SAPS  C312 9853   5.298   0.388   7.834 -0.4663 -0.0620 -0.0339
   98SAPS  H12X 9854   5.323   0.496   7.841  1.1708 -0.4926  1.8903
   98SAPS  H12Y 9855   5.385   0.320   7.851 -0.0951 -0.4524 -2.9705
   98SAPS  C313 9856   5.214   0.361   7.967 -0.1545 -0.3001  0.9731
   98SAPS  H13X 9857   5.181   0.256   7.983  1.3662 -0.9692 -0.0234
   98SAPS  H13Y 9858   5.123   0.423   7.976  1.6321  2.2493  3.7136
   98SAPS  C314 9859   5.288   0.405   8.095  0.2258  1.1863 -0.0562
   98SAPS  H14X 9860   5.300   0.513   8.116 -0.3461  0.8801  2.1023
   98SAPS  H14Y 9861   5.391   0.365   8.084  0.0134  0.4650  0.5323
   98SAPS  C315 9862   5.238   0.335   8.221 -0.1081  0.8441 -0.3504
   98SAPS  H15X 9863   5.236   0.225   8.211 -1.4038  0.6744  1.3227
   98SAPS  H15Y 9864   5.130   0.349   8.242 -0.1826 -0.0266 -0.1282
   98SAPS  C316 9865   5.311   0.371   8.353 -0.0438  0.0768  0.0121
   98SAPS  H16X 9866   5.320   0.482   8.356 -0.8421  0.1512  0.0037
   98SAPS  H16Y 9867   5.412   0.326   8.343 -0.0437 -0.1924  1.0732
   98SAPS  C317 9868   5.240   0.322   8.481  0.0772 -0.2995 -0.0144
   98SAPS  H17X 9869   5.312   0.280   8.554 -0.3045 -1.3693 -0.2293
   98SAPS  H17Y 9870   5.178   0.232   8.460  0.5467 -0.8618  0.9339
   98SAPS  C318 9871   5.135   0.419   8.540 -0.4802 -0.8179 -0.4866
   98SAPS  H18X 9872   5.184   0.516   8.563  0.7322 -0.6764 -3.2276
   98SAPS  H18Y 9873   5.091   0.388   8.637  0.2941 -0.6590 -0.0765
   98SAPS  H18Z 9874   5.057   0.437   8.463 -0.7512  0.5585  0.0920
   99SAPS     N 9875   6.362   5.563   6.156 -0.2744 -0.8453 -0.0303
   99SAPS   HN1 9876   6.410   5.570   6.064  0.3488 -1.0889  0.2742
   99SAPS   HN2 9877   6.339   5.659   6.188  1.7965 -0.9775  2.0287
   99SAPS   HN3 9878   6.429   5.529   6.227 -0.7568 -0.8910  0.4096
   99SAPS   C12 9879   6.248   5.467   6.159 -0.0168  0.5157 -0.7859
   99SAPS  H12A 9880   6.188   5.476   6.248 -0.5625 -2.4271 -0.7672
   99SAPS   C13 9881   6.161   5.494   6.036  0.0551 -0.3537  0.6197
   99SAPS  O13A 9882   6.210   5.543   5.932  0.5866  0.1136 -0.0666
   99SAPS  O13B 9883   6.043   5.447   6.022 -0.1304  0.2930  0.3776
   99SAPS   C11 9884   6.309   5.323   6.156 -0.0467  0.5315  0.2359
   99SAPS  H11A 9885   6.376   5.319   6.067  0.2979 -1.9112  0.5260
   99SAPS  H11B 9886   6.228   5.249   6.139 -0.2912  0.7301  0.5540
   99SAPS     P 9887   6.446   5.176   6.314 -0.1030 -0.3752 -0.0703
   99SAPS   O13 9888   6.331   5.089   6.334  0.1778 -0.0074  0.2207
   99SAPS   O14 9889   6.541   5.132   6.210 -0.2038 -0.1090 -0.5212
   99SAPS   O12 9890   6.386   5.312   6.278 -0.0333 -0.1403 -0.2739
   99SAPS   O11 9891   6.518   5.196   6.448 -0.9390  0.4877  0.6781
   99SAPS    C1 9892   6.587   5.315   6.488  0.0558  0.3541 -0.2549
   99SAPS    HA 9893   6.691   5.287   6.517 -0.5632 -2.3831 -0.3842
   99SAPS    HB 9894   6.578   5.397   6.415 -0.0479  0.0170 -0.6251
   99SAPS    C2 9895   6.539   5.365   6.619  0.5603  0.7883 -0.3321
   99SAPS    HS 9896   6.587   5.461   6.650 -0.8166  1.2106  0.6131
   99SAPS   O21 9897   6.551   5.275   6.731 -0.2073  0.3646 -0.0314
   99SAPS   C21 9898   6.678   5.254   6.770  0.7441 -0.0177  0.0091
   99SAPS   O22 9899   6.779   5.318   6.734  0.2148  0.1719 -0.0088
   99SAPS   C22 9900   6.655   5.176   6.911 -0.2998  0.8389  0.1086
   99SAPS   H2R 9901   6.755   5.170   6.959  0.2554  1.6212 -0.9045
   99SAPS   H2S 9902   6.580   5.240   6.963 -1.0241 -0.1686  0.3218
   99SAPS    C3 9903   6.383   5.402   6.603 -0.9753  0.4354  0.0082
   99SAPS    HX 9904   6.345   5.301   6.578 -0.7897  0.3467  0.0798
   99SAPS    HY 9905   6.369   5.470   6.517  1.1563  1.4675  0.3943
   99SAPS   O31 9906   6.335   5.457   6.734 -0.3400  0.2991 -0.0888
   99SAPS   C31 9907   6.224   5.402   6.775  0.1003  0.0704 -0.4658
   99SAPS   O32 9908   6.163   5.317   6.710 -0.4912 -0.4195 -0.3412
   99SAPS   C32 9909   6.200   5.442   6.921 -0.5576  0.1836  0.3044
   99SAPS   H2X 9910   6.093   5.461   6.940 -0.0426  1.1364  2.5718
   99SAPS   H2Y 9911   6.248   5.541   6.934 -0.8416  0.1668  1.7094
   99SAPS   C23 9912   6.584   5.039   6.899  0.1374 -0.6202 -0.2797
   99SAPS   H3R 9913   6.639   4.954   6.855 -1.1676 -0.8985 -1.4467
   99SAPS   H3S 9914   6.494   5.062   6.839 -1.3022 -1.4574  1.4648
   99SAPS   C24 9915   6.523   4.984   7.034  0.3896 -0.0314 -0.3095
   99SAPS   H4R 9916   6.470   5.070   7.080 -0.3701 -0.2969 -0.6698
   99SAPS   H4S 9917   6.612   4.972   7.100  0.5019 -0.2622 -0.4997
   99SAPS   C25 9918   6.437   4.856   7.019 -0.4393 -0.1896 -0.2547
   99SAPS   H5R 9919   6.490   4.769   6.978  2.7146  1.8994 -0.9968
   99SAPS   C26 9920   6.306   4.844   7.042 -0.2526  0.7718 -0.3050
   99SAPS   H6R 9921   6.250   4.753   7.015 -0.1106  0.1955  1.2133
   99SAPS   C27 9922   6.207   4.940   7.092  0.9511 -0.4690  0.8441
   99SAPS   H7R 9923   6.256   5.019   7.152  0.8470 -0.8875  1.4908
   99SAPS   H7S 9924   6.135   4.893   7.162  2.1283 -2.7833  0.5926
   99SAPS   C28 9925   6.141   5.004   6.962 -0.8787  0.2032 -0.5666
   99SAPS   H8R 9926   6.172   4.968   6.863  1.3318  0.8450 -0.1699
   99SAPS   C29 9927   6.025   5.074   6.970  0.1486  0.5288 -0.1161
   99SAPS   H9R 9928   5.969   5.100   6.879 -0.8519 -0.4956  0.1817
   99SAPS  C210 9929   5.955   5.112   7.096 -0.0113  0.6615 -0.0606
   99SAPS  H10R 9930   6.013   5.131   7.189 -0.8003 -2.3275  1.1733
   99SAPS  H10S 9931   5.890   5.026   7.121  2.7849 -1.4439  0.4725
   99SAPS  C211 9932   5.856   5.226   7.078  0.2582 -1.1709 -0.9704
   99SAPS  H11R 9933   5.853   5.275   6.979 -2.1813 -1.5498 -1.1391
   99SAPS  C212 9934   5.780   5.280   7.179  0.1995 -0.0730 -0.0189
   99SAPS  H12R 9935   5.719   5.369   7.160 -0.3592 -0.3122  0.6021
   99SAPS  C213 9936   5.778   5.233   7.326  0.1453 -0.2460  0.4526
   99SAPS  H13R 9937   5.876   5.207   7.371 -0.0284 -1.1378  0.3316
   99SAPS  H13S 9938   5.747   5.127   7.322  2.4190 -0.9313 -1.7089
   99SAPS  C214 9939   5.678   5.300   7.415  0.2620 -0.0072  0.5174
   99SAPS  H14R 9940   5.607   5.361   7.356 -0.8476 -2.1518 -0.4840
   99SAPS  C215 9941   5.666   5.312   7.547 -0.2583  0.0689 -0.4768
   99SAPS  H15R 9942   5.574   5.357   7.588 -1.3614 -1.2582 -1.3910
   99SAPS  C216 9943   5.756   5.259   7.654  0.5274  0.8544  0.1127
   99SAPS  H16R 9944   5.852   5.315   7.661  1.5607 -0.9021  0.6946
   99SAPS  H16S 9945   5.787   5.155   7.633  0.2676  0.7092  0.4466
   99SAPS  C217 9946   5.688   5.277   7.796 -0.2537  0.3786 -0.7813
   99SAPS  H17R 9947   5.585   5.236   7.786  0.1474 -0.9504  0.1943
   99SAPS  H17S 9948   5.688   5.382   7.832  0.9660 -0.6455  2.6122
   99SAPS  C218 9949   5.772   5.188   7.892  0.2193 -0.4245  0.1438
   99SAPS  H18R 9950   5.877   5.223   7.883 -0.0671  0.5355  0.4245
   99SAPS  H18S 9951   5.772   5.083   7.855  0.5065  0.5341 -2.7938
   99SAPS  C219 9952   5.741   5.211   8.039  0.2597 -0.0739  0.0709
   99SAPS  H19R 9953   5.641   5.164   8.050 -0.2098  0.6687 -0.9143
   99SAPS  H19S 9954   5.717   5.317   8.062 -1.1973 -0.6204  1.2725
   99SAPS  C220 9955   5.838   5.153   8.144 -0.0489 -0.6643 -0.1479
   99SAPS  H20R 9956   5.849   5.045   8.121  0.6885 -0.7749  0.6496
   99SAPS  H20S 9957   5.778   5.154   8.237 -0.3022 -0.0545 -0.3098
   99SAPS  H20T 9958   5.933   5.212   8.142 -0.9123  1.0527 -5.2104
   99SAPS   C33 9959   6.263   5.344   7.018 -0.0856 -0.1228  0.4809
   99SAPS   H3X 9960   6.369   5.314   7.009 -0.2438 -1.0753  1.5590
   99SAPS   H3Y 9961   6.208   5.249   7.008  0.5103 -0.2430 -2.2125
   99SAPS   C34 9962   6.234   5.389   7.167 -1.1730 -0.1350  0.6871
   99SAPS   H4X 9963   6.126   5.412   7.174 -1.4207 -1.3742  1.2493
   99SAPS   H4Y 9964   6.288   5.483   7.192  0.8561 -1.1465  0.3571
   99SAPS   C35 9965   6.287   5.295   7.278  0.3759  0.2802 -0.3287
   99SAPS   H5X 9966   6.397   5.286   7.271  0.3675 -0.1314 -0.0304
   99SAPS   H5Y 9967   6.239   5.195   7.272  0.1839  0.1676  2.1125
   99SAPS   C36 9968   6.230   5.334   7.426  0.0424 -0.1076  0.4978
   99SAPS   H6X 9969   6.237   5.244   7.491  1.9174 -0.2298  0.1992
   99SAPS   H6Y 9970   6.122   5.357   7.420  0.2185  0.5084 -0.7131
   99SAPS   C37 9971   6.313   5.452   7.489  0.2846  0.0745  0.3595
   99SAPS   H7X 9972   6.322   5.540   7.422 -1.2040  0.6453  0.8760
   99SAPS   H7Y 9973   6.416   5.415   7.511  0.6211  0.5114 -0.4145
   99SAPS   C38 9974   6.241   5.505   7.611  0.4495 -0.9407 -0.3601
   99SAPS   H8X 9975   6.139   5.538   7.583  0.8064  1.5540  0.9200
   99SAPS   H8Y 9976   6.285   5.601   7.645 -2.1536  0.1363  0.2280
   99SAPS   C39 9977   6.236   5.408   7.729  0.0202 -0.8003  0.2840
   99SAPS   H9X 9978   6.337   5.365   7.742 -0.2956 -2.0276 -1.0440
   99SAPS   H9Y 9979   6.169   5.321   7.710 -1.1519 -0.2947  1.8985
   99SAPS  C310 9980   6.169   5.470   7.857  0.2001  0.8917 -0.1043
   99SAPS  H10X 9981   6.063   5.487   7.826 -0.1148 -0.1436  0.3544
   99SAPS  H10Y 9982   6.225   5.558   7.896  0.3210  0.1241  1.5503
   99SAPS  C311 9983   6.165   5.374   7.978 -0.5380  0.1969 -0.3008
   99SAPS  H11X 9984   6.264   5.323   7.977  1.0149  3.0191 -0.1465
   99SAPS  H11Y 9985   6.092   5.290   7.970 -0.6594  0.1751  0.8617
   99SAPS  C312 9986   6.139   5.440   8.115 -0.2836  0.5531 -0.7463
   99SAPS  H12X 9987   6.230   5.501   8.134  0.3096 -0.3155 -0.7508
   99SAPS  H12Y 9988   6.124   5.371   8.201 -0.9231  3.6953  1.8657
   99SAPS  C313 9989   6.017   5.536   8.110 -0.2362  0.8633 -0.6610
   99SAPS  H13X 9990   5.941   5.489   8.044 -0.8860  2.1710 -0.8707
   99SAPS  H13Y 9991   6.054   5.624   8.053  1.8142  1.1808  1.0509
   99SAPS  C314 9992   5.966   5.585   8.243 -0.4144 -0.0422  0.0813
   99SAPS  H14X 9993   5.895   5.670   8.232 -2.2130 -1.7931 -4.3337
   99SAPS  H14Y 9994   6.052   5.620   8.304 -0.5739  1.4808 -0.5057
   99SAPS  C315 9995   5.884   5.482   8.322 -0.4126  0.4125  0.1076
   99SAPS  H15X 9996   5.952   5.402   8.358  0.7511  1.3679  0.1226
   99SAPS  H15Y 9997   5.811   5.447   8.247 -1.0520  0.7232  0.5710
   99SAPS  C316 9998   5.804   5.553   8.438 -0.1350 -0.7137 -0.3856
   99SAPS  H16X 9999   5.730   5.626   8.398 -0.3978  0.0399  1.3815
   99SAPS  H16Y10000   5.882   5.611   8.491 -1.5796 -0.9940  2.2041
   99SAPS  C31710001   5.736   5.452   8.534  0.2998 -0.7706 -0.2159
   99SAPS  H17X10002   5.739   5.508   8.630  0.3600 -2.6792  0.9355
   99SAPS  H17Y10003   5.795   5.359   8.548  2.6756  0.8943  1.4147
   99SAPS  C31810004   5.593   5.428   8.485  0.0187 -0.3624 -0.1105
   99SAPS  H18X10005   5.527   5.381   8.561  1.5090  0.0079  1.4776
   99SAPS  H18Y10006   5.602   5.361   8.396 -0.9020 -1.6836  0.7524
   99SAPS  H18Z10007   5.541   5.522   8.460 -0.2133  0.5867  3.4884
  100SAPS     N10008   6.546   0.493   6.478  0.9229 -0.5493 -0.2296
  100SAPS   HN110009   6.574   0.549   6.561  0.5790  1.6316 -1.5007
  100SAPS   HN210010   6.489   0.555   6.416 -1.3054  0.2723  2.4382
  100SAPS   HN310011   6.488   0.417   6.519 -0.1544  0.6475  0.5760
  100SAPS   C1210012   6.668   0.440   6.418  0.9492 -0.5776 -0.5570
  100SAPS  H12A10013   6.632   0.350   6.371  0.3632  0.0861 -1.4084
  100SAPS   C1310014   6.745   0.529   6.317  0.4959  0.1437  0.5956
  100SAPS  O13A10015   6.683   0.619   6.262  0.4826 -0.6458  0.4095
  100SAPS  O13B10016   6.837   0.466   6.254  0.0998  0.2165 -0.0566
  100SAPS   C1110017   6.772   0.394   6.524  0.3689  0.2846 -0.5523
  100SAPS  H11A10018   6.813   0.481   6.580  1.1302  0.9032 -2.0136
  100SAPS  H11B10019   6.857   0.344   6.474  0.3753  0.6078 -0.8691
  100SAPS     P10020   6.750   0.155   6.613 -0.2244  0.1365 -0.1870
  100SAPS   O1310021   6.715   0.094   6.482  0.1088  0.0714 -0.0159
  100SAPS   O1410022   6.890   0.141   6.664  0.6381 -0.0022  1.2022
  100SAPS   O1210023   6.707   0.304   6.617  0.4507  0.5514  0.2499
  100SAPS   O1110024   6.659   0.102   6.734 -0.1901  0.3935  0.3441
  100SAPS    C110025   6.611   0.186   6.841 -0.0620 -0.2099  0.1778
  100SAPS    HA10026   6.700   0.236   6.885  0.5932  0.4802 -1.8205
  100SAPS    HB10027   6.555   0.269   6.793  1.1430  0.1284 -0.7020
  100SAPS    C210028   6.530   0.116   6.947  0.5173  0.3077 -1.0372
  100SAPS    HS10029   6.444   0.069   6.894 -0.4432 -0.7611  1.3539
  100SAPS   O2110030   6.491   0.226   7.039 -0.0009  0.5075  0.1476
  100SAPS   C2110031   6.395   0.195   7.122  0.1258 -0.2946 -0.0353
  100SAPS   O2210032   6.311   0.107   7.110 -0.7084  0.6950  0.7573
  100SAPS   C2210033   6.382   0.295   7.245  0.1158 -0.2912  0.5988
  100SAPS   H2R10034   6.484   0.296   7.289 -0.3631  0.4275  1.7451
  100SAPS   H2S10035   6.361   0.391   7.193 -1.6505 -0.7250  0.4363
  100SAPS    C310036   6.626   0.018   7.020 -0.1628  0.0827 -0.5923
  100SAPS    HX10037   6.715   0.075   7.053 -0.0786  0.7662 -1.9328
  100SAPS    HY10038   6.651  -0.062   6.946  1.3655  0.7686 -0.8422
  100SAPS   O3110039   6.573  -0.037   7.148 -0.2632 -1.0350  0.2644
  100SAPS   C3110040   6.484  -0.126   7.136 -0.0387 -0.3064  0.2089
  100SAPS   O3210041   6.452  -0.190   7.034 -0.2801  0.0981  0.2935
  100SAPS   C3210042   6.421  -0.163   7.281  0.4506 -0.9503  0.5186
  100SAPS   H2X10043   6.400  -0.272   7.280 -3.0772 -0.3707  0.4608
  100SAPS   H2Y10044   6.322  -0.113   7.277  0.8300 -0.2372 -0.2285
  100SAPS   C2310045   6.270   0.265   7.347  0.7713 -0.1918 -0.0463
  100SAPS   H3R10046   6.297   0.175   7.407  0.2933 -0.5682 -0.3942
  100SAPS   H3S10047   6.172   0.247   7.300 -0.0403 -0.7032  1.7336
  100SAPS   C2410048   6.253   0.378   7.452  0.9364  0.1196  0.0896
  100SAPS   H4R10049   6.232   0.472   7.398  0.5395 -0.9842 -1.7657
  100SAPS   H4S10050   6.343   0.384   7.517 -0.1279  1.1007  1.5549
  100SAPS   C2510051   6.119   0.350   7.527  0.3724 -0.0189 -0.3886
  100SAPS   H5R10052   6.026   0.394   7.488 -1.9140 -3.4104  0.7977
  100SAPS   C2610053   6.108   0.269   7.637 -0.1132  0.2793 -0.6248
  100SAPS   H6R10054   6.013   0.259   7.691  1.0480 -0.5632  1.3724
  100SAPS   C2710055   6.221   0.196   7.713  0.2158  0.2551 -0.1059
  100SAPS   H7R10056   6.296   0.164   7.638  0.9550  0.2091  0.6450
  100SAPS   H7S10057   6.189   0.097   7.750  1.1036  0.6055  1.6908
  100SAPS   C2810058   6.279   0.285   7.818 -0.1857 -0.5562  0.0118
  100SAPS   H8R10059   6.358   0.352   7.781  1.3036 -1.3452  1.5900
  100SAPS   C2910060   6.242   0.282   7.951  0.1736 -0.6715 -0.2092
  100SAPS   H9R10061   6.289   0.357   8.016  0.9241 -0.8709 -0.5064
  100SAPS  C21010062   6.138   0.190   8.017 -0.7584  0.3385 -0.0602
  100SAPS  H10R10063   6.173   0.085   8.009  1.0648  0.6386  2.7167
  100SAPS  H10S10064   6.046   0.184   7.955 -0.3274 -1.3170 -0.5922
  100SAPS  C21110065   6.099   0.226   8.153 -0.6567  0.0214 -0.1394
  100SAPS  H11R10066   6.152   0.164   8.226  1.3344  1.7504 -0.0206
  100SAPS  C21210067   6.005   0.315   8.195 -0.1652 -0.1995 -0.2516
  100SAPS  H12R10068   5.994   0.341   8.301 -1.9488  1.0414 -0.7004
  100SAPS  C21310069   5.909   0.401   8.109 -0.5492 -0.2307 -0.8438
  100SAPS  H13R10070   5.908   0.358   8.007 -0.1055  0.3775 -1.1036
  100SAPS  H13S10071   5.951   0.503   8.101 -0.3112 -0.2316  0.1482
  100SAPS  C21410072   5.767   0.383   8.153  0.1965  0.0093 -0.2410
  100SAPS  H14R10073   5.747   0.300   8.222 -1.8551  2.7211  2.7391
  100SAPS  C21510074   5.674   0.478   8.154  0.2388 -0.0920  0.1341
  100SAPS  H15R10075   5.573   0.452   8.186  1.0863 -1.5034  1.7891
  100SAPS  C21610076   5.665   0.621   8.103 -0.4123  0.3221  1.0670
  100SAPS  H16R10077   5.771   0.650   8.087 -0.2046 -1.3256 -0.9915
  100SAPS  H16S10078   5.624   0.687   8.182  2.4804  2.5071  0.8915
  100SAPS  C21710079   5.572   0.643   7.978 -0.0569  0.1588  0.3234
  100SAPS  H17R10080   5.577   0.754   7.971  2.5554  0.1732  1.3572
  100SAPS  H17S10081   5.465   0.613   7.987  0.5432 -2.1591  0.2266
  100SAPS  C21810082   5.628   0.569   7.853 -0.0036  0.1993  0.0655
  100SAPS  H18R10083   5.562   0.596   7.768 -1.4993 -0.2306  1.0423
  100SAPS  H18S10084   5.626   0.460   7.871  1.4379 -0.0795 -1.2180
  100SAPS  C21910085   5.774   0.601   7.815  0.4401  0.4171 -0.2980
  100SAPS  H19R10086   5.844   0.594   7.901  0.1333 -2.7551 -0.1890
  100SAPS  H19S10087   5.775   0.707   7.782  1.8383  0.5646  0.1441
  100SAPS  C22010088   5.823   0.501   7.705 -0.6156 -0.8142 -0.5106
  100SAPS  H20R10089   5.822   0.399   7.748 -2.6191 -0.3991  0.5318
  100SAPS  H20S10090   5.928   0.526   7.676 -0.4877  2.1581  1.9391
  100SAPS  H20T10091   5.751   0.516   7.622  0.7471  2.9150 -1.2181
  100SAPS   C3310092   6.505  -0.117   7.398 -0.3657  0.7429  0.5582
  100SAPS   H3X10093   6.479  -0.011   7.415 -0.6436  0.6118  0.9582
  100SAPS   H3Y10094   6.615  -0.128   7.380 -0.5092  1.3420 -0.8546
  100SAPS   C3410095   6.476  -0.213   7.509 -0.0704 -0.2796  0.0713
  100SAPS   H4X10096   6.524  -0.311   7.488  1.3544  0.3203  0.3917
  100SAPS   H4Y10097   6.372  -0.251   7.507  0.8861 -3.1820  0.5043
  100SAPS   C3510098   6.520  -0.159   7.643  0.6649  0.0026 -0.2352
  100SAPS   H5X10099   6.454  -0.075   7.676  1.7920  0.6365  0.4761
  100SAPS   H5Y10100   6.629  -0.140   7.649  0.9478 -1.5286 -0.3373
  100SAPS   C3610101   6.481  -0.259   7.752  0.0944 -0.0262 -0.5359
  100SAPS   H6X10102   6.561  -0.335   7.766 -0.5310 -0.7771 -1.0023
  100SAPS   H6Y10103   6.400  -0.328   7.719 -1.5988  1.7133 -0.1629
  100SAPS   C3710104   6.421  -0.203   7.889 -0.4626 -0.2253  0.1629
  100SAPS   H7X10105   6.355  -0.117   7.865  0.5869  1.5115  2.9847
  100SAPS   H7Y10106   6.509  -0.167   7.948  0.4313 -3.5653  1.0877
  100SAPS   C3810107   6.337  -0.295   7.978  0.1525 -0.2712  0.1747
  100SAPS   H8X10108   6.393  -0.389   8.001  2.7243  1.1879  0.3019
  100SAPS   H8Y10109   6.251  -0.330   7.918 -0.1828  0.8501 -0.0192
  100SAPS   C3910110   6.295  -0.226   8.107 -0.3001 -0.8611  0.3841
  100SAPS   H9X10111   6.255  -0.122   8.099  1.7991 -0.1581 -2.3247
  100SAPS   H9Y10112   6.391  -0.215   8.162 -0.4553 -0.4974  0.5886
  100SAPS  C31010113   6.211  -0.306   8.201 -0.2665 -0.1401  0.9990
  100SAPS  H10X10114   6.260  -0.405   8.211 -1.2157 -0.7202  0.1444
  100SAPS  H10Y10115   6.114  -0.324   8.149 -0.2177  1.8381  0.1401
  100SAPS  C31110116   6.187  -0.236   8.334 -0.4680  0.6883 -0.3225
  100SAPS  H11X10117   6.281  -0.189   8.368 -0.1179  1.2930 -2.0352
  100SAPS  H11Y10118   6.157  -0.310   8.411  2.7171  0.4952  0.8834
  100SAPS  C31210119   6.069  -0.139   8.331 -0.3622  0.4546  0.0328
  100SAPS  H12X10120   5.970  -0.184   8.313  0.2228 -0.5526 -0.7680
  100SAPS  H12Y10121   6.084  -0.071   8.244  0.8864  2.2678  1.5501
  100SAPS  C31310122   6.081  -0.049   8.455 -0.6492 -0.0548 -0.2454
  100SAPS  H13X10123   6.164   0.023   8.438 -0.0131 -0.9915 -1.1541
  100SAPS  H13Y10124   6.107  -0.115   8.541  1.0307 -1.4014 -1.7132
  100SAPS  C31410125   5.959   0.034   8.466  0.5080  0.5216  0.9492
  100SAPS  H14X10126   5.886  -0.042   8.501  0.6213  0.0408  0.1732
  100SAPS  H14Y10127   5.929   0.062   8.362 -2.2371 -1.9205  0.9696
  100SAPS  C31510128   5.972   0.157   8.563  0.3894 -0.0681  0.6617
  100SAPS  H15X10129   6.067   0.213   8.552 -0.1126  0.2722 -2.8691
  100SAPS  H15Y10130   5.986   0.131   8.671  1.1059  2.2139  1.1694
  100SAPS  C31610131   5.849   0.243   8.549 -0.5864  0.2824  0.3068
  100SAPS  H16X10132   5.831   0.279   8.446 -0.0986  3.3493  1.1768
  100SAPS  H16Y10133   5.861   0.339   8.605  0.2789  1.4674 -1.8187
  100SAPS  C31710134   5.721   0.170   8.591 -0.2166 -0.5553  0.0162
  100SAPS  H17X10135   5.733   0.137   8.697 -0.9917 -2.5862 -0.4780
  100SAPS  H17Y10136   5.708   0.085   8.520 -0.5621  0.6154 -1.3601
  100SAPS  C31810137   5.588   0.246   8.581  0.4405 -0.0193  0.2630
  100SAPS  H18X10138   5.587   0.285   8.477 -0.7861  0.1418  0.3210
  100SAPS  H18Y10139   5.585   0.322   8.662 -1.2339 -0.1152  0.3243
  100SAPS  H18Z10140   5.506   0.172   8.596  1.2538 -1.5652 -2.2760
  101OSM      N10141   1.658   6.529  11.154 -0.2134  0.6424  0.4017
  101OSM    C1510142   1.807   6.535  11.152  0.0537 -0.0716 -0.2149
  101OSM   H15A10143   1.849   6.437  11.133  1.9474  0.8846 -1.3078
  101OSM   H15B10144   1.846   6.574  11.245  2.2271 -1.7770 -0.3093
  101OSM   H15C10145   1.846   6.592  11.069 -1.0318 -0.6967 -1.1696
  101OSM    C1410146   1.615   6.487  11.287 -0.4725  0.2261 -0.8357
  101OSM   H14A10147   1.657   6.394  11.320  1.8389  1.5601  0.2564
  101OSM   H14B10148   1.508   6.472  11.300  0.0281 -1.4559  2.2283
  101OSM   H14C10149   1.644   6.565  11.356 -1.5902 -0.8911  0.9769
  101OSM    C1310150   1.613   6.672  11.124  0.4360  0.1604  0.1458
  101OSM   H13A10151   1.505   6.669  11.119  0.4692  0.4957 -1.2760
  101OSM   H13B10152   1.645   6.698  11.024  0.6334 -0.7122 -0.0291
  101OSM   H13C10153   1.648   6.731  11.207  0.9973 -0.5644  0.4312
  101OSM    C1210154   1.617   6.437  11.047  0.2154 -0.0650 -0.0770
  101OSM   H12A10155   1.631   6.335  11.079  2.2409 -0.5122 -2.1948
  101OSM   H12B10156   1.686   6.448  10.965  1.1876  1.1875  0.8701
  101OSM    C1110157   1.476   6.443  10.993  0.0997  0.0963  0.6350
  101OSM   H11A10158   1.466   6.383  10.900 -0.0286  1.2880 -0.1400
  101OSM   H11B10159   1.447   6.544  10.958  0.9870 -1.0592 -4.1711
  101OSM      P10160   1.364   6.248  11.130 -0.3005 -0.1959  0.4449
  101OSM    O1310161   1.460   6.178  11.044 -0.0770 -0.4859  0.0648
  101OSM    O1410162   1.380   6.219  11.275  0.2226  0.1514 -0.3905
  101OSM    O1110163   1.217   6.212  11.078 -0.3025  0.3100  0.2804
  101OSM    O1210164   1.383   6.399  11.095  0.3291 -0.2177 -0.4813
  101OSM    C1S10165   1.167   6.274  10.957  0.1404 -0.3183  0.0887
  101OSM    H1S10166   1.244   6.317  10.891  1.2677 -3.1895 -0.6281
  101OSM    H1T10167   1.091   6.348  10.991 -0.3504 -0.9026  0.2920
  101OSM     NF10168   1.030   6.258  10.757 -0.2703  0.3698 -0.2871
  101OSM    HNF10169   0.933   6.277  10.744 -0.8197 -2.1512 -0.3231
  101OSM    C2S10170   1.080   6.177  10.867 -0.4039 -0.1838  0.9491
  101OSM    H2S10171   1.149   6.099  10.828 -0.0912  1.3942 -1.8907
  101OSM    C3S10172   0.970   6.099  10.944  0.1867  0.1192  0.0986
  101OSM    H3S10173   0.893   6.172  10.974 -1.8254 -0.4739 -3.1326
  101OSM     O310174   1.017   6.021  11.053  0.6595 -0.1927 -0.1408
  101OSM    HO310175   1.088   6.078  11.084 -1.0184  1.5279  0.7426
  101OSM    C4S10176   0.911   6.008  10.837  0.3965  0.0959 -0.3835
  101OSM    H4S10177   0.959   5.910  10.833  3.4620  1.3418  1.8297
  101OSM    C5S10178   0.808   6.035  10.754 -0.1033  0.6577 -0.1409
  101OSM    H5S10179   0.755   6.131  10.756  0.1752  0.9094 -2.6473
  101OSM    C6S10180   0.767   5.941  10.648 -0.1318 -0.3411  0.3278
  101OSM    H6S10181   0.670   5.895  10.675 -0.0216 -1.7404 -1.4495
  101OSM    H6T10182   0.835   5.853  10.638  0.1870 -0.1875  1.1083
  101OSM    C7S10183   0.722   6.015  10.518 -0.6946  0.6052  0.0674
  101OSM    H7S10184   0.658   6.102  10.545  0.5015  1.0005  1.7364
  101OSM    H7T10185   0.663   5.946  10.454  1.0136  1.0230 -2.0798
  101OSM    C8S10186   0.843   6.044  10.434 -0.3636  0.1290  0.5219
  101OSM    H8S10187   0.898   5.954  10.396  2.1092  2.4292 -1.7974
  101OSM    H8T10188   0.920   6.093  10.496  0.4784 -1.2794  0.6331
  101OSM    C9S10189   0.804   6.138  10.314 -0.0826  0.3742 -0.2297
  101OSM    H9S10190   0.902   6.179  10.281  1.2312 -1.3775  1.3044
  101OSM    H9T10191   0.739   6.217  10.357  0.4215 -0.1979  1.7059
  101OSM   C10S10192   0.731   6.062  10.203  0.2813  0.0302 -0.5494
  101OSM   H10S10193   0.628   6.032  10.230  0.8533 -1.4623  0.0709
  101OSM   H10T10194   0.785   5.965  10.200 -0.9664 -0.6743 -0.7146
  101OSM   C11S10195   0.755   6.131  10.074 -0.4302  0.3472  0.0826
  101OSM   H11S10196   0.845   6.196  10.076  2.0009 -2.6937 -0.8864
  101OSM   H11T10197   0.673   6.202  10.052  0.3145  1.2202  0.0578
  101OSM   C12S10198   0.775   6.041   9.955  0.1773  0.1943  0.4023
  101OSM   H12S10199   0.683   5.991   9.917 -0.0221  0.5796  0.3728
  101OSM   H12T10200   0.850   5.965   9.984  0.0831 -0.3478 -0.7250
  101OSM   C13S10201   0.832   6.120   9.837 -0.0868 -0.5273  1.0114
  101OSM   H13S10202   0.883   6.046   9.772 -0.2731 -0.6551  1.0089
  101OSM   H13T10203   0.907   6.198   9.862 -1.1425  1.8513 -2.4846
  101OSM   C14S10204   0.721   6.204   9.764 -0.0495  0.0927 -0.2238
  101OSM   H14S10205   0.669   6.265   9.840  2.0795 -0.1899  1.5655
  101OSM   H14T10206   0.653   6.136   9.708  0.0257  0.0111 -0.2184
  101OSM   C15S10207   0.778   6.288   9.653 -0.7464  0.1081 -0.2465
  101OSM   H15S10208   0.868   6.342   9.690 -0.4748 -0.7506  0.3762
  101OSM   H15T10209   0.706   6.369   9.627  0.2950  1.0960 -0.0930
  101OSM   C16S10210   0.817   6.204   9.534 -0.0278  0.8070 -0.0435
  101OSM   H16S10211   0.726   6.150   9.502  0.5607 -0.1382 -0.1685
  101OSM   H16T10212   0.893   6.124   9.550 -0.1441  0.3462 -1.6249
  101OSM   C17S10213   0.860   6.291   9.420 -0.6395 -0.0668  0.5327
  101OSM   H17S10214   0.934   6.368   9.452 -0.5074  0.6741 -1.4262
  101OSM   H17T10215   0.772   6.345   9.381  0.1137  2.3729  1.9571
  101OSM   C18S10216   0.929   6.221   9.303  0.1099 -0.0675  0.3765
  101OSM   H18S10217   0.935   6.284   9.212 -2.0918  0.3128  0.4481
  101OSM   H18T10218   0.866   6.137   9.267  0.2159  0.0192 -0.0197
  101OSM   H18U10219   1.032   6.190   9.331 -0.5024 -1.2188  1.5028
  101OSM    C1F10220   1.107   6.303  10.660 -0.1332 -0.2207 -0.2665
  101OSM     OF10221   1.227   6.275  10.664 -0.5120  0.0237  0.1679
  101OSM    C2F10222   1.046   6.392  10.552  0.2868  0.2748 -0.7275
  101OSM    H2F10223   1.073   6.499  10.569 -0.8551  0.2829  1.4328
  101OSM    H2G10224   0.936   6.382  10.552  0.2033  1.0682 -1.7437
  101OSM    C3F10225   1.111   6.348  10.426  0.7073 -0.9931  0.2561
  101OSM    H3F10226   1.093   6.240  10.406  2.1233 -0.9908 -1.2258
  101OSM    H3G10227   1.221   6.356  10.438  0.6632 -1.2882  0.8798
  101OSM    C4F10228   1.068   6.430  10.306 -0.2176 -0.6650  0.4667
  101OSM    H4F10229   1.111   6.531  10.322 -0.3079 -0.4217 -0.7724
  101OSM    H4G10230   0.958   6.436  10.293 -0.0892  1.2178 -0.1610
  101OSM    C5F10231   1.143   6.373  10.186  0.3180 -0.5018 -0.4147
  101OSM    H5F10232   1.098   6.272  10.176 -1.6849 -0.2418  3.7856
  101OSM    H5G10233   1.252   6.359  10.202  1.0010  0.4509 -3.5588
  101OSM    C6F10234   1.121   6.450  10.055 -0.2278 -0.2581 -0.0178
  101OSM    H6F10235   1.186   6.540  10.053 -0.8533  0.1758 -1.2881
  101OSM    H6G10236   1.015   6.482  10.062 -0.5988 -1.6908  1.8239
  101OSM    C7F10237   1.146   6.371   9.924 -0.2590  0.6416 -0.3575
  101OSM    H7F10238   1.093   6.274   9.940 -0.4645  0.5991 -1.2626
  101OSM    H7G10239   1.254   6.346   9.928 -0.4383 -0.0346  0.8727
  101OSM    C8F10240   1.101   6.437   9.792  0.2610 -0.2521 -0.3740
  101OSM    H8F10241   1.001   6.486   9.800  0.1386 -0.5269 -0.1985
  101OSM    H8G10242   1.100   6.359   9.713  1.4517  1.2691 -1.9839
  101OSM    C9F10243   1.199   6.548   9.768 -0.3914 -0.2904 -0.3189
  101OSM    H9F10244   1.229   6.604   9.858 -0.1598  0.2819 -0.7474
  101OSM   C10F10245   1.254   6.568   9.648 -0.2871 -0.1360  0.7185
  101OSM   H10F10246   1.332   6.643   9.633 -1.2123  0.9891  1.3362
  101OSM   C11F10247   1.220   6.491   9.522 -0.1437  0.1101  0.0640
  101OSM   H11F10248   1.112   6.462   9.514  0.0350 -0.1754 -1.7260
  101OSM   H11G10249   1.290   6.405   9.518  0.4943  0.5031  1.8492
  101OSM   C12F10250   1.241   6.577   9.389 -0.4731  0.2642 -0.4357
  101OSM   H12F10251   1.342   6.622   9.379 -1.3648  2.0342 -2.1272
  101OSM   H12G10252   1.168   6.660   9.399 -0.5179  0.1364  0.4189
  101OSM   C13F10253   1.187   6.494   9.268  0.0567  0.1849 -0.3886
  101OSM   H13F10254   1.080   6.478   9.292  0.3872 -0.7318  0.5529
  101OSM   H13G10255   1.230   6.392   9.277  3.4009  1.5800  1.3568
  101OSM   C14F10256   1.203   6.561   9.128 -0.4490  0.6635 -0.3735
  101OSM   H14F10257   1.128   6.642   9.118 -2.6119 -1.3207 -1.1415
  101OSM   H14G10258   1.176   6.482   9.054  0.4317 -0.4797  0.4723
  101OSM   C15F10259   1.339   6.614   9.099  0.2213  0.0026 -0.8098
  101OSM   H15F10260   1.374   6.684   9.177  2.1341  0.0308 -1.6329
  101OSM   H15G10261   1.335   6.671   9.003 -1.0363 -2.0928 -2.1013
  101OSM   C16F10262   1.443   6.504   9.079  0.0507  0.5302  0.0064
  101OSM   H16F10263   1.409   6.420   9.013 -0.0498 -1.2241  2.1677
  101OSM   H16G10264   1.461   6.463   9.181 -2.1298  0.1400  0.2923
  101OSM   C17F10265   1.570   6.559   9.012 -0.3095  0.4067 -0.6342
  101OSM   H17F10266   1.601   6.654   9.060 -0.2830  0.3499 -0.5377
  101OSM   H17G10267   1.553   6.588   8.906  0.1213 -0.4264 -0.9404
  101OSM   C18F10268   1.684   6.452   9.015  0.5159 -0.7985  0.3776
  101OSM   H18F10269   1.677   6.403   9.115 -0.7628  0.7587  1.1141
  101OSM   H18G10270   1.784   6.496   8.999  0.3014 -0.5821 -0.4139
  101OSM   H18H10271   1.665   6.375   8.938 -1.9015  0.2966 -0.2401
  102OSM      N10272   0.822   5.149  11.282 -0.1350 -0.0646  0.1691
  102OSM    C1510273   0.721   5.184  11.169  0.0361  0.4995 -0.9285
  102OSM   H15A10274   0.707   5.291  11.165  1.1395  0.7796  1.2588
  102OSM   H15B10275   0.626   5.134  11.180  0.5748 -1.0376 -2.6026
  102OSM   H15C10276   0.759   5.159  11.070 -0.6885  0.1517 -1.1257
  102OSM    C1410277   0.921   5.265  11.290  0.1567  0.3179  0.1925
  102OSM   H14A10278   0.996   5.263  11.212 -0.7137 -0.6919 -0.6680
  102OSM   H14B10279   0.974   5.245  11.382 -0.7547 -2.7436  0.1838
  102OSM   H14C10280   0.868   5.358  11.289  0.0692  0.2778  0.9005
  102OSM    C1310281   0.746   5.145  11.415  0.7504  0.0014 -0.4490
  102OSM   H13A10282   0.800   5.120  11.505 -1.0098 -1.4595  0.2704
  102OSM   H13B10283   0.665   5.074  11.410 -1.0984  2.0903 -1.9065
  102OSM   H13C10284   0.688   5.234  11.436 -0.5261 -1.4237  2.6317
  102OSM    C1210285   0.875   5.008  11.249 -0.6761  0.3298  0.5723
  102OSM   H12A10286   0.797   4.933  11.258  1.2728 -1.8656  0.2042
  102OSM   H12B10287   0.950   4.982  11.322 -1.2938 -0.7196  0.8528
  102OSM    C1110288   0.942   4.978  11.107  0.2343  0.6669 -0.2555
  102OSM   H11A10289   0.998   4.883  11.113 -2.2399 -0.8370  0.2857
  102OSM   H11B10290   1.021   5.057  11.108  0.8219  0.2060  3.5293
  102OSM      P10291   0.771   4.867  10.959  0.0426  0.0047  0.3203
  102OSM    O1310292   0.864   4.755  10.969 -0.0655  0.1019 -0.4552
  102OSM    O1410293   0.644   4.867  11.032 -0.6067 -0.5116 -0.1128
  102OSM    O1110294   0.736   4.885  10.806 -0.8430  0.1501 -0.1092
  102OSM    O1210295   0.855   4.994  10.994  0.5418  0.0840  0.8577
  102OSM    C1S10296   0.676   5.015  10.779  0.0177  1.0178 -0.3270
  102OSM    H1S10297   0.746   5.101  10.786 -0.9169  1.8663 -1.2067
  102OSM    H1T10298   0.585   5.037  10.839 -0.4450 -0.4509 -0.4572
  102OSM     NF10299   0.596   5.157  10.602 -0.2508  0.1539 -0.0168
  102OSM    HNF10300   0.502   5.188  10.608  0.2472  2.2484 -1.5900
  102OSM    C2S10301   0.627   5.020  10.636  0.5099 -0.2634  0.6943
  102OSM    H2S10302   0.712   4.986  10.573 -0.2152  0.6501 -0.8175
  102OSM    C3S10303   0.515   4.923  10.607  0.2833 -0.3423 -0.2625
  102OSM    H3S10304   0.417   4.962  10.642 -0.0801 -0.4079 -1.1737
  102OSM     O310305   0.526   4.798  10.671  0.0141 -0.3997  0.3634
  102OSM    HO310306   0.605   4.801  10.725 -1.1909 -3.9378  2.6486
  102OSM    C4S10307   0.490   4.896  10.461 -0.3777 -0.6329  0.6623
  102OSM    H4S10308   0.426   4.973  10.415  1.6694  0.5828 -0.3334
  102OSM    C5S10309   0.542   4.807  10.373  0.1026 -0.5277 -0.4362
  102OSM    H5S10310   0.610   4.729  10.410  0.3815 -0.8180 -1.5225
  102OSM    C6S10311   0.506   4.796  10.231  0.7291 -0.0504 -0.2070
  102OSM    H6S10312   0.412   4.846  10.201 -1.7824 -2.5553  2.6722
  102OSM    H6T10313   0.493   4.688  10.206 -3.2984  0.7826 -2.5082
  102OSM    C7S10314   0.623   4.854  10.152 -0.1542 -0.4967 -0.0208
  102OSM    H7S10315   0.713   4.797  10.184 -1.0253 -0.7157  2.2450
  102OSM    H7T10316   0.641   4.958  10.184 -0.8138 -0.8410  1.5813
  102OSM    C8S10317   0.594   4.855  10.000  0.3774 -0.0706  0.6743
  102OSM    H8S10318   0.670   4.923   9.955  0.2679 -0.3590  0.0435
  102OSM    H8T10319   0.492   4.887   9.970  1.2311  1.1767 -1.0551
  102OSM    C9S10320   0.617   4.721   9.932 -0.3515  0.2496 -0.3638
  102OSM    H9S10321   0.561   4.639   9.984 -0.4546  1.6458  1.8817
  102OSM    H9T10322   0.724   4.694   9.944  0.2103  1.6918 -1.8748
  102OSM   C10S10323   0.584   4.724   9.783  0.6911  0.1082 -0.8368
  102OSM   H10S10324   0.631   4.635   9.735  1.1579 -0.4413  0.5822
  102OSM   H10T10325   0.625   4.820   9.744 -0.6642  0.5456 -1.2161
  102OSM   C11S10326   0.430   4.730   9.762 -0.2333 -0.2119 -0.0350
  102OSM   H11S10327   0.387   4.816   9.817 -0.6804 -0.9312  0.7498
  102OSM   H11T10328   0.395   4.636   9.808 -0.5506 -1.5965 -2.8875
  102OSM   C12S10329   0.396   4.716   9.615  0.0554 -0.5554 -0.3539
  102OSM   H12S10330   0.289   4.702   9.590  0.1302  1.6618 -2.2365
  102OSM   H12T10331   0.450   4.624   9.584  0.4019 -0.0994 -1.1408
  102OSM   C13S10332   0.448   4.829   9.525 -0.1758 -0.6957 -1.1998
  102OSM   H13S10333   0.557   4.844   9.536 -0.5810  1.9802 -0.0911
  102OSM   H13T10334   0.395   4.920   9.561  0.3008 -0.4049 -1.2280
  102OSM   C14S10335   0.431   4.801   9.380 -0.5294  0.2361  0.0052
  102OSM   H14S10336   0.486   4.705   9.370 -0.1857  0.4339 -0.0485
  102OSM   H14T10337   0.486   4.875   9.318  1.3209 -0.9336  0.1660
  102OSM   C15S10338   0.288   4.796   9.331  0.2687 -0.1705 -0.3862
  102OSM   H15S10339   0.229   4.890   9.326 -1.8359 -1.4747 -0.9364
  102OSM   H15T10340   0.234   4.727   9.398 -0.2732 -0.4016 -1.0450
  102OSM   C16S10341   0.283   4.754   9.185  0.3737  0.7515  0.6791
  102OSM   H16S10342   0.324   4.651   9.177 -0.4245  0.4994 -0.4009
  102OSM   H16T10343   0.358   4.811   9.125  0.6542 -1.4571 -1.2207
  102OSM   C17S10344   0.141   4.745   9.125  0.2666 -0.4596 -0.3110
  102OSM   H17S10345   0.102   4.847   9.105  1.1615  0.0054  0.2514
  102OSM   H17T10346   0.086   4.704   9.212 -1.1484  0.3174 -0.8087
  102OSM   C18S10347   0.125   4.639   9.017  0.3498 -0.2230 -0.5909
  102OSM   H18S10348   0.145   4.536   9.053 -0.9992 -1.7914 -3.8551
  102OSM   H18T10349   0.182   4.657   8.923  1.5085  0.1691  0.1736
  102OSM   H18U10350   0.022   4.625   8.978 -0.0254 -1.1645  0.6693
  102OSM    C1F10351   0.686   5.249  10.566  0.8300 -0.4096 -1.1137
  102OSM     OF10352   0.799   5.217  10.536 -0.4023  0.5068  0.5629
  102OSM    C2F10353   0.641   5.394  10.559 -0.0812 -0.1754  0.1570
  102OSM    H2F10354   0.619   5.427  10.663  0.1409 -0.6238  0.3503
  102OSM    H2G10355   0.545   5.394  10.504  1.3705 -0.6263 -2.5484
  102OSM    C3F10356   0.749   5.485  10.487  0.2735  0.3033 -0.3246
  102OSM    H3F10357   0.792   5.448  10.392 -1.4062  1.6920 -1.6968
  102OSM    H3G10358   0.831   5.498  10.561  0.5867 -1.5679 -0.3139
  102OSM    C4F10359   0.697   5.626  10.439 -0.1132  0.4721 -0.6461
  102OSM    H4F10360   0.784   5.684  10.402  2.4793 -2.4174  0.4362
  102OSM    H4G10361   0.644   5.666  10.528  0.1100  1.0090 -0.7548
  102OSM    C5F10362   0.600   5.607  10.317  0.1769  0.7895  0.1911
  102OSM    H5F10363   0.503   5.574  10.360  0.2407 -0.0884 -0.3107
  102OSM    H5G10364   0.636   5.521  10.258  0.0878  0.9464 -0.0944
  102OSM    C6F10365   0.586   5.734  10.223  0.5057 -0.8081  0.0612
  102OSM    H6F10366   0.692   5.758  10.202  0.8980 -1.8635  0.7551
  102OSM    H6G10367   0.535   5.815  10.279 -1.1021  0.6378 -3.2324
  102OSM    C7F10368   0.497   5.700  10.103  0.5593 -0.8262  0.9048
  102OSM    H7F10369   0.393   5.705  10.142 -0.3227  0.5198 -1.4105
  102OSM    H7G10370   0.523   5.595  10.075 -0.5432 -1.6906  2.9110
  102OSM    C8F10371   0.507   5.788   9.978 -0.1148 -1.1180  0.7139
  102OSM    H8F10372   0.613   5.789   9.942 -0.8732 -0.2251 -1.7178
  102OSM    H8G10373   0.493   5.892  10.014 -1.2550 -1.4993  1.3974
  102OSM    C9F10374   0.409   5.744   9.864  0.6004  0.7399  0.2820
  102OSM    H9F10375   0.315   5.696   9.895 -0.6487  2.2892 -0.9157
  102OSM   C10F10376   0.420   5.757   9.731  0.8228  0.1467  0.3318
  102OSM   H10F10377   0.337   5.726   9.666 -1.0367  4.6453  0.2018
  102OSM   C11F10378   0.538   5.802   9.655  0.3271 -0.5530  0.0394
  102OSM   H11F10379   0.630   5.813   9.716 -0.5872 -1.7042  1.7009
  102OSM   H11G10380   0.523   5.907   9.622 -2.9955 -0.8899  0.1249
  102OSM   C12F10381   0.579   5.719   9.535  0.7124  0.3823 -0.7606
  102OSM   H12F10382   0.491   5.704   9.469  0.3875  1.3187 -0.5460
  102OSM   H12G10383   0.614   5.619   9.567  1.4317 -0.0005 -2.5729
  102OSM   C13F10384   0.685   5.795   9.453 -0.7165 -0.2592  0.2083
  102OSM   H13F10385   0.778   5.816   9.511 -0.9099  0.0579  0.4077
  102OSM   H13G10386   0.649   5.898   9.431 -1.2273 -0.3690  0.5052
  102OSM   C14F10387   0.743   5.722   9.327  0.3639  0.4552 -0.3032
  102OSM   H14F10388   0.662   5.701   9.253 -0.5921  1.4462  0.4153
  102OSM   H14G10389   0.770   5.618   9.353 -0.8648 -0.5968 -2.8489
  102OSM   C15F10390   0.865   5.786   9.267 -0.5456 -0.0696  0.2446
  102OSM   H15F10391   0.948   5.758   9.335 -2.7002 -1.5950  2.4174
  102OSM   H15G10392   0.854   5.897   9.272  2.3954  0.4041 -1.6723
  102OSM   C16F10393   0.901   5.754   9.124  0.0017  0.4247  0.3736
  102OSM   H16F10394   0.983   5.823   9.095  2.1966 -1.6520  1.3029
  102OSM   H16G10395   0.812   5.780   9.062  1.6855 -2.3497 -3.6267
  102OSM   C17F10396   0.935   5.610   9.075 -0.5000  0.1515  0.4607
  102OSM   H17F10397   0.846   5.545   9.088 -0.1524 -0.3404  0.4055
  102OSM   H17G10398   1.012   5.571   9.146  0.9991  3.2643  0.7195
  102OSM   C18F10399   0.977   5.611   8.926 -0.4451 -0.5085 -0.4664
  102OSM   H18F10400   0.889   5.599   8.860 -0.9470 -0.0505  0.1098
  102OSM   H18G10401   1.043   5.524   8.906  0.1871 -0.9028  2.8413
  102OSM   H18H10402   1.036   5.702   8.901  1.6040 -1.6265  0.0847
  103OSM      N10403   1.745   2.127  11.448  0.0454 -0.1383 -0.6200
  103OSM    C1510404   1.784   2.033  11.567  0.1720 -0.0597  0.3758
  103OSM   H15A10405   1.768   2.089  11.657 -2.6502 -1.1013  0.6333
  103OSM   H15B10406   1.884   1.992  11.563 -0.5027 -1.8467  0.9219
  103OSM   H15C10407   1.721   1.947  11.587  0.6791 -0.4608  0.2908
  103OSM    C1410408   1.608   2.184  11.486  0.4754 -0.2766  0.0125
  103OSM   H14A10409   1.583   2.265  11.420 -0.1022 -0.4461  0.0177
  103OSM   H14B10410   1.616   2.228  11.584  3.0370 -0.6292  0.0383
  103OSM   H14C10411   1.522   2.119  11.480 -0.6314  1.1934 -0.5182
  103OSM    C1310412   1.843   2.245  11.454 -0.2397 -0.3155  0.0759
  103OSM   H13A10413   1.850   2.279  11.556 -2.4654 -1.2628  0.6159
  103OSM   H13B10414   1.819   2.332  11.395 -1.5715 -0.3227  0.5713
  103OSM   H13C10415   1.940   2.210  11.423  0.2248  2.2571 -1.6783
  103OSM    C1210416   1.741   2.061  11.318 -0.7273 -0.2775 -0.3069
  103OSM   H12A10417   1.836   2.012  11.311 -1.6771 -2.1780 -0.5270
  103OSM   H12B10418   1.723   2.138  11.244 -1.6646  0.1711  0.3658
  103OSM    C1110419   1.625   1.956  11.282  0.5686 -0.1836 -0.0188
  103OSM   H11A10420   1.633   1.929  11.175  0.4625 -1.7278  0.3451
  103OSM   H11B10421   1.535   2.008  11.321 -0.6533  0.2772 -3.1872
  103OSM      P10422   1.753   1.735  11.327  0.2973 -0.2325 -0.0046
  103OSM    O1310423   1.814   1.699  11.459  0.2886  0.0052  0.9490
  103OSM    O1410424   1.692   1.622  11.255 -0.7147 -0.1283 -0.4532
  103OSM    O1110425   1.862   1.809  11.236  0.4645  0.0818 -0.4038
  103OSM    O1210426   1.641   1.840  11.364  0.3056  0.3422  0.4839
  103OSM    C1S10427   1.964   1.735  11.166  0.2717 -1.0767 -0.0531
  103OSM    H1S10428   1.983   1.639  11.220 -0.9782 -1.9545 -1.1171
  103OSM    H1T10429   2.056   1.798  11.162 -0.0769 -0.6025 -0.6650
  103OSM     NF10430   2.028   1.631  10.952  0.2868 -0.5764 -0.3307
  103OSM    HNF10431   2.093   1.687  10.902  0.9907 -0.1623  0.9778
  103OSM    C2S10432   1.923   1.712  11.015  0.3914 -0.1068 -0.7939
  103OSM    H2S10433   1.823   1.663  11.018 -0.3167  1.1068 -2.8325
  103OSM    C3S10434   1.905   1.856  10.934  0.1201  0.3697  0.3460
  103OSM    H3S10435   2.011   1.885  10.912 -0.2043  1.1021 -0.3084
  103OSM     O310436   1.868   1.973  11.007 -0.1630 -0.5455 -0.1230
  103OSM    HO310437   1.888   1.952  11.099  0.6119  2.3244  0.4892
  103OSM    C4S10438   1.838   1.837  10.800 -0.4319  0.7850  0.1043
  103OSM    H4S10439   1.901   1.777  10.731  1.3052  3.4822 -0.8180
  103OSM    C5S10440   1.715   1.867  10.751  0.0067 -0.3750 -0.1791
  103OSM    H5S10441   1.643   1.923  10.812 -0.5147  0.4662 -1.5070
  103OSM    C6S10442   1.665   1.824  10.612 -0.2727 -0.5769  0.1070
  103OSM    H6S10443   1.555   1.808  10.605 -0.2334 -0.4803 -0.7958
  103OSM    H6T10444   1.709   1.722  10.602  0.3762 -0.6624  2.9728
  103OSM    C7S10445   1.717   1.911  10.493 -0.0985  0.3859  0.3270
  103OSM    H7S10446   1.680   2.013  10.513 -0.7776  0.3175 -0.5309
  103OSM    H7T10447   1.658   1.872  10.407 -0.0250 -2.1632  1.3324
  103OSM    C8S10448   1.865   1.902  10.464 -0.2307  0.2148 -0.5371
  103OSM    H8S10449   1.907   1.802  10.486  1.2424  1.3425  2.3167
  103OSM    H8T10450   1.909   1.965  10.544 -0.3851 -1.7931  1.2025
  103OSM    C9S10451   1.891   1.960  10.318 -0.2195 -0.1656  0.1937
  103OSM    H9S10452   1.997   1.992  10.316 -0.4202  0.4847 -0.3860
  103OSM    H9T10453   1.820   2.045  10.307  1.0983  1.2637  2.0771
  103OSM   C10S10454   1.867   1.850  10.206 -0.6911  0.2398 -0.2594
  103OSM   H10S10455   1.756   1.841  10.208 -0.8065  0.6067 -2.3642
  103OSM   H10T10456   1.923   1.760  10.239  2.3475  2.9148  2.5872
  103OSM   C11S10457   1.917   1.902  10.075 -0.4082  0.8256 -0.0210
  103OSM   H11S10458   1.897   1.825   9.997 -1.5859 -0.8413  1.8397
  103OSM   H11T10459   2.026   1.922  10.085 -0.4127  0.0809  1.8750
  103OSM   C12S10460   1.833   2.023  10.029 -1.0097 -0.5050 -0.0835
  103OSM   H12S10461   1.874   2.117  10.070 -1.5587 -0.1092 -0.4267
  103OSM   H12T10462   1.729   2.011  10.066 -1.2454  2.8415  0.6158
  103OSM   C13S10463   1.844   2.035   9.878  0.3287  0.2394  0.5325
  103OSM   H13S10464   1.805   1.947   9.821  3.5821 -0.8289 -0.2184
  103OSM   H13T10465   1.951   2.045   9.853 -0.1652 -0.7952 -2.3578
  103OSM   C14S10466   1.757   2.149   9.831 -0.1545  0.0398 -0.1160
  103OSM   H14S10467   1.761   2.230   9.907 -0.3075 -0.9890  1.0342
  103OSM   H14T10468   1.656   2.106   9.814 -2.1364  4.1171  0.2118
  103OSM   C15S10469   1.811   2.205   9.693 -0.3516 -0.1975 -0.1967
  103OSM   H15S10470   1.846   2.123   9.627 -0.2320 -0.8841  0.7040
  103OSM   H15T10471   1.898   2.270   9.717  0.8806 -2.1673  0.8515
  103OSM   C16S10472   1.706   2.293   9.628  0.0904 -0.3873  0.0599
  103OSM   H16S10473   1.616   2.231   9.607 -0.8844  0.3553  1.7823
  103OSM   H16T10474   1.742   2.342   9.536 -2.4824  1.1974 -0.1954
  103OSM   C17S10475   1.649   2.401   9.732  0.3090  0.4143  0.2345
  103OSM   H17S10476   1.733   2.468   9.760  0.7734 -0.5539  1.1997
  103OSM   H17T10477   1.607   2.350   9.821 -0.6418 -0.9830 -0.9601
  103OSM   C18S10478   1.544   2.489   9.662  0.6047  0.3381  0.1137
  103OSM   H18S10479   1.596   2.548   9.583  3.2365 -0.1932  1.3250
  103OSM   H18T10480   1.485   2.550   9.733  0.9011 -1.0244  1.6010
  103OSM   H18U10481   1.478   2.420   9.606  0.3191  1.2576 -0.7191
  103OSM    C1F10482   2.046   1.504  10.974 -0.4434  0.1755  0.1258
  103OSM     OF10483   1.971   1.447  11.048 -0.0447  0.0484 -0.1107
  103OSM    C2F10484   2.149   1.426  10.894  0.5109 -0.0613  0.6728
  103OSM    H2F10485   2.246   1.479  10.902 -0.0720  0.9726  1.1637
  103OSM    H2G10486   2.124   1.435  10.787  0.0429  0.8190  0.8466
  103OSM    C3F10487   2.154   1.273  10.919 -0.3103 -0.0057 -0.6303
  103OSM    H3F10488   2.153   1.251  11.028  3.0407  0.2787 -0.4389
  103OSM    H3G10489   2.251   1.234  10.882 -0.2603 -1.9300  1.3787
  103OSM    C4F10490   2.030   1.207  10.855  0.5191  0.2411  0.2247
  103OSM    H4F10491   2.023   1.224  10.745 -0.3694 -0.0579  0.2277
  103OSM    H4G10492   1.937   1.248  10.899 -0.8467 -0.4543 -1.8673
  103OSM    C5F10493   2.020   1.059  10.884 -0.2562 -0.2065 -0.2968
  103OSM    H5F10494   1.997   1.042  10.991 -1.0253 -0.0988 -0.4381
  103OSM    H5G10495   2.123   1.024  10.863 -1.0010 -1.3103 -2.3545
  103OSM    C6F10496   1.921   0.978  10.811  0.1306  0.1422  0.4163
  103OSM    H6F10497   1.926   0.872  10.844  0.7083 -0.7581 -2.3067
  103OSM    H6G10498   1.966   0.960  10.712 -0.5124 -0.2929  0.1950
  103OSM    C7F10499   1.779   1.031  10.807 -1.2423  0.4217  0.7104
  103OSM    H7F10500   1.785   1.135  10.768  2.2306  0.4088  0.8910
  103OSM    H7G10501   1.741   1.031  10.912 -2.1263 -0.0894  0.4055
  103OSM    C8F10502   1.689   0.939  10.720 -0.0616 -0.0250 -0.3624
  103OSM    H8F10503   1.706   0.831  10.739 -1.5891  0.2740  3.6066
  103OSM    H8G10504   1.739   0.944  10.621  0.9377 -0.4643  0.1044
  103OSM    C9F10505   1.543   0.975  10.733  0.2780  0.5037 -0.1126
  103OSM    H9F10506   1.495   0.919  10.814  1.7501  0.6503  0.8929
  103OSM   C10F10507   1.474   1.053  10.657 -0.6741  0.2984  0.0744
  103OSM   H10F10508   1.372   1.073  10.695  0.4437  1.9937  2.4277
  103OSM   C11F10509   1.512   1.127  10.536 -0.3170 -0.8761  0.1172
  103OSM   H11F10510   1.621   1.147  10.539 -0.6398  1.0424 -0.0902
  103OSM   H11G10511   1.476   1.232  10.544 -0.1893 -0.8466  0.2944
  103OSM   C12F10512   1.467   1.071  10.405  0.0091 -0.3181 -0.2280
  103OSM   H12F10513   1.356   1.080  10.408  0.1256  1.3705  0.8419
  103OSM   H12G10514   1.492   0.963  10.414 -1.6904 -0.6920  0.3787
  103OSM   C13F10515   1.539   1.144  10.287  0.0516  0.1947  0.0108
  103OSM   H13F10516   1.500   1.247  10.270 -1.8870 -0.2313  1.5149
  103OSM   H13G10517   1.648   1.151  10.306  0.6509 -2.5808 -1.7872
  103OSM   C14F10518   1.533   1.061  10.150  0.1664  0.0870 -0.1349
  103OSM   H14F10519   1.427   1.068  10.119  0.7229  0.3301 -2.1373
  103OSM   H14G10520   1.566   0.958  10.175 -0.2880 -0.2058 -0.7007
  103OSM   C15F10521   1.636   1.122  10.053 -0.7027  0.8101  0.1210
  103OSM   H15F10522   1.744   1.109  10.079  0.4294  1.1583 -3.7268
  103OSM   H15G10523   1.628   1.233  10.048 -2.7976  0.6811 -0.1697
  103OSM   C16F10524   1.608   1.070   9.906  0.1847 -0.0136  0.3102
  103OSM   H16F10525   1.502   1.075   9.872  0.3617 -1.3417 -0.5296
  103OSM   H16G10526   1.647   0.966   9.898 -1.4748 -0.7135  0.9166
  103OSM   C17F10527   1.685   1.148   9.807  0.0587  0.2109  0.6628
  103OSM   H17F10528   1.794   1.149   9.828  0.0990  1.0981  0.4473
  103OSM   H17G10529   1.654   1.254   9.806 -0.7237 -0.0135 -0.9915
  103OSM   C18F10530   1.664   1.096   9.660  0.2664  0.7249 -0.1725
  103OSM   H18F10531   1.716   1.154   9.580 -0.4450  0.5428 -0.7794
  103OSM   H18G10532   1.553   1.102   9.658  0.1102  1.0926  3.3602
  103OSM   H18H10533   1.690   0.988   9.651 -2.3706 -0.1970  2.0661
  104OSM      N10534   4.997   0.830  11.229 -0.1232 -0.1085 -0.2542
  104OSM    C1510535   4.955   0.939  11.329  0.3932 -0.1378  0.4198
  104OSM   H15A10536   4.978   1.041  11.304  0.8756  0.2165  2.1913
  104OSM   H15B10537   4.993   0.916  11.427 -0.8326 -0.1898  0.8939
  104OSM   H15C10538   4.848   0.939  11.340  0.4445 -1.1390  1.1349
  104OSM    C1410539   4.963   0.696  11.285  0.8793 -0.1858 -0.0652
  104OSM   H14A10540   4.860   0.694  11.316  1.3941  2.1285  2.0892
  104OSM   H14B10541   5.027   0.677  11.370  1.0348  1.7734  0.2958
  104OSM   H14C10542   4.985   0.620  11.212 -0.6359 -1.3037  0.5821
  104OSM    C1310543   4.925   0.857  11.103 -0.5732 -1.1645 -0.2038
  104OSM   H13A10544   4.939   0.782  11.026  1.1638 -0.0000 -1.0792
  104OSM   H13B10545   4.943   0.959  11.074 -0.1280 -1.6253 -1.6103
  104OSM   H13C10546   4.820   0.847  11.125 -0.2609 -0.7488  1.6686
  104OSM    C1210547   5.144   0.832  11.212 -0.4225  1.1745 -0.0569
  104OSM   H12A10548   5.187   0.820  11.310  1.3569  2.3611 -0.6554
  104OSM   H12B10549   5.173   0.928  11.174  1.5145  0.4552 -0.5130
  104OSM    C1110550   5.213   0.727  11.115  0.0614  0.1704 -0.0815
  104OSM   H11A10551   5.322   0.749  11.125  0.1124  0.1925 -0.6571
  104OSM   H11B10552   5.181   0.760  11.014  1.5357  1.8758 -0.0415
  104OSM      P10553   5.252   0.467  11.130 -0.1483 -0.0283  0.2028
  104OSM    O1310554   5.380   0.480  11.205  0.2964 -0.0615  0.2737
  104OSM    O1410555   5.157   0.357  11.164  0.1314  0.0923 -0.2864
  104OSM    O1110556   5.288   0.449  10.975  0.1876 -0.1179 -0.3722
  104OSM    O1210557   5.171   0.590  11.138  0.1151 -0.3852  0.0437
  104OSM    C1S10558   5.300   0.551  10.880  0.7980 -0.5711 -0.7084
  104OSM    H1S10559   5.395   0.602  10.907 -0.0203  0.9167 -0.4831
  104OSM    H1T10560   5.209   0.615  10.885  0.3789 -1.2433  1.7446
  104OSM     NF10561   5.351   0.614  10.649  0.3104 -0.3755  0.0190
  104OSM    HNF10562   5.281   0.640  10.582  0.2225  1.7537  0.8601
  104OSM    C2S10563   5.318   0.501  10.732  0.7354  0.2305 -0.5169
  104OSM    H2S10564   5.404   0.430  10.734  0.9209  0.4606  1.4492
  104OSM    C3S10565   5.181   0.435  10.689 -0.6740 -0.2235 -0.4053
  104OSM    H3S10566   5.100   0.511  10.681 -0.0944  0.2608 -2.0382
  104OSM     O310567   5.135   0.332  10.773 -0.0392  0.2024  0.0432
  104OSM    HO310568   5.200   0.324  10.844  1.8080 -2.6348 -1.7534
  104OSM    C4S10569   5.184   0.368  10.561 -0.0632  0.3041  0.3257
  104OSM    H4S10570   5.267   0.298  10.545  2.0385  2.8265 -0.6178
  104OSM    C5S10571   5.100   0.391  10.462 -0.7486  0.3858 -0.1659
  104OSM    H5S10572   5.024   0.471  10.474 -0.2032  1.0049 -0.7400
  104OSM    C6S10573   5.103   0.320  10.327 -0.5560 -0.9736 -0.6464
  104OSM    H6S10574   5.074   0.398  10.255  0.8867  1.5999  1.3851
  104OSM    H6T10575   5.027   0.239  10.325 -1.5549 -0.0683 -0.1703
  104OSM    C7S10576   5.235   0.248  10.289  0.1672  0.1591 -0.2569
  104OSM    H7S10577   5.260   0.168  10.361 -0.3410 -0.6068 -0.9036
  104OSM    H7T10578   5.310   0.329  10.278  0.8597 -0.5268 -0.6552
  104OSM    C8S10579   5.220   0.174  10.151 -0.3706 -1.0617 -0.5456
  104OSM    H8S10580   5.133   0.105  10.153 -0.7518 -0.5750  0.9846
  104OSM    H8T10581   5.317   0.123  10.136  0.0462 -0.2858 -0.5080
  104OSM    C9S10582   5.211   0.273  10.027 -0.2773  0.0854 -0.5788
  104OSM    H9S10583   5.304   0.334  10.028  0.6067 -1.1510 -2.5131
  104OSM    H9T10584   5.126   0.343  10.044 -0.6130 -0.5176  0.2815
  104OSM   C10S10585   5.186   0.193   9.901  0.1614  0.2843 -0.1877
  104OSM   H10S10586   5.080   0.161   9.896 -0.1084  1.0699  0.3010
  104OSM   H10T10587   5.255   0.107   9.884  0.0677 -0.3379  2.1853
  104OSM   C11S10588   5.206   0.284   9.781 -0.2849 -0.3366 -0.5752
  104OSM   H11S10589   5.315   0.302   9.795 -0.4176  0.4454 -0.5525
  104OSM   H11T10590   5.153   0.381   9.793  0.3831 -0.2119  2.0639
  104OSM   C12S10591   5.202   0.215   9.643 -0.2251  0.6185  0.2377
  104OSM   H12S10592   5.102   0.170   9.622 -0.7026  0.0900  3.2536
  104OSM   H12T10593   5.266   0.124   9.649 -1.7986 -0.4865  0.9959
  104OSM   C13S10594   5.245   0.305   9.523  0.6983 -0.2601 -0.3319
  104OSM   H13S10595   5.347   0.346   9.535  0.4444  0.6339 -1.1196
  104OSM   H13T10596   5.172   0.385   9.500  1.6251  0.0355 -2.4885
  104OSM   C14S10597   5.247   0.215   9.391 -0.8719  0.4637 -0.6266
  104OSM   H14S10598   5.144   0.179   9.369 -1.2245  0.4568  0.8751
  104OSM   H14T10599   5.308   0.124   9.403  1.7785  1.7107 -3.2720
  104OSM   C15S10600   5.304   0.301   9.279 -0.5130 -0.4177  0.2922
  104OSM   H15S10601   5.409   0.327   9.308 -0.9312  1.3318  0.3827
  104OSM   H15T10602   5.242   0.393   9.281 -0.8776 -0.6449 -0.2471
  104OSM   C16S10603   5.303   0.242   9.144  0.6980  0.4904 -0.2594
  104OSM   H16S10604   5.203   0.193   9.136  0.2673  1.1132  0.9429
  104OSM   H16T10605   5.372   0.156   9.133  1.2035  0.6810  1.2017
  104OSM   C17S10606   5.326   0.333   9.022 -0.2009  0.1507 -0.3896
  104OSM   H17S10607   5.417   0.396   9.035 -1.2726  1.7879 -0.4365
  104OSM   H17T10608   5.239   0.401   9.033  0.6341  0.8329  4.0370
  104OSM   C18S10609   5.322   0.258   8.893  0.2674 -0.3442 -0.0234
  104OSM   H18S10610   5.227   0.201   8.887 -0.2636  0.3732  1.2327
  104OSM   H18T10611   5.409   0.188   8.888 -0.0229 -0.9019  1.8768
  104OSM   H18U10612   5.331   0.328   8.807 -0.2576  0.6243  0.6976
  104OSM    C1F10613   5.461   0.683  10.651 -0.5404  0.8670  0.0931
  104OSM     OF10614   5.556   0.642  10.724 -0.3311  0.2064  0.0550
  104OSM    C2F10615   5.461   0.812  10.573 -0.5861  0.5414 -0.2006
  104OSM    H2F10616   5.412   0.890  10.634  0.4604  1.1070 -0.0616
  104OSM    H2G10617   5.391   0.783  10.491 -0.1657  1.9241 -1.0729
  104OSM    C3F10618   5.600   0.841  10.519 -0.2063 -0.0629 -0.5117
  104OSM    H3F10619   5.634   0.752  10.462  1.9213  1.5764 -1.9535
  104OSM    H3G10620   5.681   0.866  10.590  1.1079 -0.8641 -1.6806
  104OSM    C4F10621   5.590   0.956  10.413  0.1645 -0.2580 -0.0870
  104OSM    H4F10622   5.605   1.045  10.479  0.2194 -0.0681 -0.3539
  104OSM    H4G10623   5.489   0.951  10.365 -0.2466 -3.1812  0.8797
  104OSM    C5F10624   5.693   0.950  10.301 -0.2554  0.1662 -1.0964
  104OSM    H5F10625   5.792   0.925  10.344  0.1360  1.9712 -0.8784
  104OSM    H5G10626   5.689   1.048  10.250 -5.3487 -0.8851 -3.3480
  104OSM    C6F10627   5.666   0.849  10.183 -0.2405 -0.1345 -0.0412
  104OSM    H6F10628   5.576   0.883  10.128  0.0232 -0.5063 -0.7094
  104OSM    H6G10629   5.645   0.747  10.222  1.9891 -0.8307 -0.5324
  104OSM    C7F10630   5.781   0.853  10.082 -0.4733 -0.6179 -0.0428
  104OSM    H7F10631   5.867   0.796  10.123  1.4570 -0.4972 -3.4979
  104OSM    H7G10632   5.822   0.956  10.074 -0.8376 -0.4576  0.1384
  104OSM    C8F10633   5.755   0.795   9.945  0.0158 -0.6318  0.1046
  104OSM    H8F10634   5.717   0.691   9.955  0.8642 -0.8807  0.7974
  104OSM    H8G10635   5.846   0.781   9.882 -0.6050 -1.1892 -0.6925
  104OSM    C9F10636   5.662   0.880   9.866 -0.3421  0.4791  0.3118
  104OSM    H9F10637   5.575   0.914   9.924 -0.0976  1.3252  0.1947
  104OSM   C10F10638   5.668   0.929   9.739 -0.8473 -0.4259 -0.5807
  104OSM   H10F10639   5.582   0.989   9.706 -1.9615 -0.9458  1.2114
  104OSM   C11F10640   5.785   0.904   9.643 -0.3527  0.3351 -0.1074
  104OSM   H11F10641   5.824   0.800   9.654 -0.0910  0.3539 -0.8064
  104OSM   H11G10642   5.867   0.978   9.661  0.1167  0.3530 -2.1033
  104OSM   C12F10643   5.740   0.926   9.499  0.1678  0.2015 -0.2715
  104OSM   H12F10644   5.691   1.026   9.500  0.6570  0.4805  1.8108
  104OSM   H12G10645   5.667   0.846   9.478 -2.2204  2.8825 -3.2244
  104OSM   C13F10646   5.858   0.915   9.396  0.2405  0.1425 -0.7913
  104OSM   H13F10647   5.909   0.827   9.440  0.5847  1.4807  1.6245
  104OSM   H13G10648   5.924   1.004   9.399 -1.3001  1.3095  0.7277
  104OSM   C14F10649   5.798   0.894   9.256  0.2032  0.3044 -0.4210
  104OSM   H14F10650   5.769   0.787   9.247  3.0167 -0.5317 -0.3401
  104OSM   H14G10651   5.883   0.910   9.186  0.8541  1.3544  0.5863
  104OSM   C15F10652   5.675   0.983   9.222  0.1159  0.3616 -0.4349
  104OSM   H15F10653   5.709   1.089   9.231  0.1732  0.4536 -1.5807
  104OSM   H15G10654   5.591   0.979   9.295  0.7728 -0.1633  0.2996
  104OSM   C16F10655   5.620   0.957   9.080 -0.6906  0.2448 -0.1482
  104OSM   H16F10656   5.530   1.021   9.066 -1.2522 -0.6562 -0.8155
  104OSM   H16G10657   5.592   0.852   9.058  3.8339 -0.7754 -2.1927
  104OSM   C17F10658   5.720   0.993   8.974 -0.8341  0.9113 -0.2313
  104OSM   H17F10659   5.818   0.943   8.992 -0.7304  0.3997 -2.0019
  104OSM   H17G10660   5.745   1.099   8.994 -1.3069  1.0059 -0.1282
  104OSM   C18F10661   5.683   0.986   8.828 -0.8612  0.1438 -0.0238
  104OSM   H18F10662   5.583   1.030   8.808 -1.4431 -0.8069  0.6853
  104OSM   H18G10663   5.677   0.883   8.786  3.1888  0.5202 -2.0753
  104OSM   H18H10664   5.758   1.039   8.764  0.2340 -1.3444 -0.0384
  105OSM      N10665   4.307   0.506  11.266  0.5984  0.6235 -0.3697
  105OSM    C1510666   4.199   0.488  11.163 -0.3661 -0.0439  0.2139
  105OSM   H15A10667   4.119   0.559  11.174 -0.0366  0.4104 -0.3089
  105OSM   H15B10668   4.153   0.390  11.152 -1.0640  0.4137 -1.1519
  105OSM   H15C10669   4.250   0.501  11.069  0.4205  2.9949  0.9679
  105OSM    C1410670   4.367   0.638  11.241 -0.2462 -0.0389 -0.4172
  105OSM   H14A10671   4.294   0.709  11.277  0.7119  0.4013  0.7178
  105OSM   H14B10672   4.380   0.650  11.135  4.3126 -0.5037 -0.0871
  105OSM   H14C10673   4.461   0.660  11.288 -0.2152 -1.6616  0.3712
  105OSM    C1310674   4.245   0.493  11.400 -0.0793 -0.1518 -0.9555
  105OSM   H13A10675   4.315   0.510  11.480  0.4718  1.7431 -1.7878
  105OSM   H13B10676   4.203   0.396  11.422 -0.7244  0.2844 -0.2215
  105OSM   H13C10677   4.163   0.563  11.413  0.4551  0.0286  2.1694
  105OSM    C1210678   4.412   0.401  11.250  0.3173  1.0330  0.3181
  105OSM   H12A10679   4.374   0.306  11.283  1.9397 -0.1922 -1.1320
  105OSM   H12B10680   4.501   0.420  11.309  1.3641 -2.2856  0.0266
  105OSM    C1110681   4.465   0.380  11.102  0.3333 -0.0268 -0.4766
  105OSM   H11A10682   4.384   0.351  11.031 -2.2838 -0.3875  2.4515
  105OSM   H11B10683   4.529   0.289  11.111 -2.2120 -1.7172  2.4511
  105OSM      P10684   4.683   0.515  11.028  0.0085  0.5726 -0.4090
  105OSM    O1310685   4.691   0.626  10.934 -0.2002  0.0464 -0.0349
  105OSM    O1410686   4.752   0.511  11.164 -0.7643 -0.2610  0.1286
  105OSM    O1110687   4.718   0.381  10.949 -0.1409  0.3642  0.4244
  105OSM    O1210688   4.529   0.498  11.056 -0.0713 -0.4249 -0.3246
  105OSM    C1S10689   4.658   0.372  10.816 -0.6438 -0.3514  0.1508
  105OSM    H1S10690   4.612   0.465  10.776  0.4484 -0.1970 -0.7870
  105OSM    H1T10691   4.579   0.295  10.803 -3.0791  2.2295 -1.5434
  105OSM     NF10692   4.756   0.338  10.579  0.3497  0.2000 -0.5317
  105OSM    HNF10693   4.748   0.250  10.533  0.8277  0.6519 -1.5074
  105OSM    C2S10694   4.780   0.322  10.726  0.5165 -0.3435  0.0450
  105OSM    H2S10695   4.871   0.379  10.751  0.5110 -0.9015  1.3911
  105OSM    C3S10696   4.805   0.174  10.752  0.0210  1.0825 -0.0968
  105OSM    H3S10697   4.714   0.117  10.724  0.6694  0.7917 -1.7385
  105OSM     O310698   4.819   0.147  10.891  0.0044 -0.6390 -0.1069
  105OSM    HO310699   4.791   0.227  10.935  0.2009 -0.1207 -0.8858
  105OSM    C4S10700   4.922   0.113  10.681 -0.5013 -0.7704  0.1246
  105OSM    H4S10701   4.990   0.190  10.640 -1.4159 -0.6655 -1.2784
  105OSM    C5S10702   4.943  -0.013  10.651 -0.6819 -0.5617  0.4194
  105OSM    H5S10703   4.871  -0.089  10.685 -2.0608  1.0565  1.3126
  105OSM    C6S10704   5.066  -0.063  10.580  0.2476  0.1391  0.0715
  105OSM    H6S10705   5.122  -0.127  10.652  0.9438 -0.5817 -1.0886
  105OSM    H6T10706   5.137   0.014  10.546  0.7240  0.5330  1.8300
  105OSM    C7S10707   5.019  -0.152  10.458 -0.0594 -0.0423 -0.2390
  105OSM    H7S10708   4.932  -0.205  10.502 -1.0284  1.3768 -0.3690
  105OSM    H7T10709   5.088  -0.230  10.420 -3.2838 -3.2793 -0.0376
  105OSM    C8S10710   4.951  -0.070  10.345 -0.2492  0.6642  0.5052
  105OSM    H8S10711   5.031  -0.003  10.307  0.0330  0.1386  0.1536
  105OSM    H8T10712   4.871  -0.002  10.381 -0.8321  0.2063  0.0794
  105OSM    C9S10713   4.922  -0.155  10.223 -0.2570 -0.1245 -0.5468
  105OSM    H9S10714   4.857  -0.239  10.255  1.1291 -1.2904 -0.6664
  105OSM    H9T10715   5.020  -0.197  10.193  0.9838  1.0966  1.5042
  105OSM   C10S10716   4.852  -0.082  10.107  0.1464  0.0126  0.0102
  105OSM   H10S10717   4.855   0.026  10.130 -0.9766 -0.2335  1.4917
  105OSM   H10T10718   4.746  -0.115  10.095  0.1925 -0.9175  1.8483
  105OSM   C11S10719   4.914  -0.091   9.966  0.0844 -0.0727 -0.1000
  105OSM   H11S10720   4.948  -0.195   9.948  2.1670  0.5114  0.2590
  105OSM   H11T10721   5.008  -0.033   9.954  0.5494 -0.8674 -0.3540
  105OSM   C12S10722   4.818  -0.055   9.849  0.0249  0.2356 -0.0498
  105OSM   H12S10723   4.761   0.035   9.882  0.4142  0.5021 -0.1004
  105OSM   H12T10724   4.751  -0.143   9.837 -0.0536 -0.0273  1.9401
  105OSM   C13S10725   4.895  -0.023   9.725 -0.1370 -0.2246  0.2467
  105OSM   H13S10726   4.953  -0.110   9.689  0.3666  0.2934 -0.2142
  105OSM   H13T10727   4.973   0.055   9.740 -0.7607  0.3855  0.3808
  105OSM   C14S10728   4.793   0.019   9.613 -0.8879 -0.2870  0.4374
  105OSM   H14S10729   4.735   0.103   9.655 -1.8737 -0.4068 -0.6445
  105OSM   H14T10730   4.731  -0.073   9.608  1.5631 -1.9993 -0.9689
  105OSM   C15S10731   4.856   0.066   9.481 -0.1866 -0.1415  0.8973
  105OSM   H15S10732   4.914  -0.012   9.428  1.5832  1.6503  0.0609
  105OSM   H15T10733   4.922   0.155   9.493 -0.4824  0.5494 -1.8595
  105OSM   C16S10734   4.755   0.126   9.388  0.1537 -0.3578 -0.3723
  105OSM   H16S10735   4.801   0.136   9.287 -0.4060 -1.4287 -0.7459
  105OSM   H16T10736   4.713   0.216   9.437  0.2580 -0.5355  0.0434
  105OSM   C17S10737   4.639   0.031   9.358 -0.4705  0.3335 -0.5470
  105OSM   H17S10738   4.568   0.020   9.443 -0.2876  0.8174 -0.3304
  105OSM   H17T10739   4.682  -0.069   9.336 -1.0959  0.1828 -1.1397
  105OSM   C18S10740   4.555   0.068   9.236  0.1968  0.3759 -0.2568
  105OSM   H18S10741   4.542   0.179   9.227 -2.1146  0.2136  0.3574
  105OSM   H18T10742   4.453   0.025   9.248  0.1344  0.5447 -0.1658
  105OSM   H18U10743   4.595   0.031   9.139  0.9559 -0.2062  0.2711
  105OSM    C1F10744   4.723   0.445  10.514  0.2167 -0.0325  0.5303
  105OSM     OF10745   4.714   0.552  10.574  0.1767 -0.7193 -0.1149
  105OSM    C2F10746   4.690   0.431  10.368  0.0207 -0.2357 -0.0518
  105OSM    H2F10747   4.598   0.372  10.352  0.5906 -0.2854 -4.2050
  105OSM    H2G10748   4.774   0.365  10.339 -1.2320 -1.2124 -1.5573
  105OSM    C3F10749   4.695   0.562  10.279  0.3940  0.8481 -0.2608
  105OSM    H3F10750   4.791   0.613  10.302 -0.8292  2.3151  1.8492
  105OSM    H3G10751   4.617   0.622  10.329  2.5156  2.0143  1.8687
  105OSM    C4F10752   4.654   0.544  10.137 -0.3939  0.5281 -0.2552
  105OSM    H4F10753   4.637   0.641  10.086 -0.0684  1.1049  0.6971
  105OSM    H4G10754   4.556   0.494  10.124 -1.4322  2.2467  0.5186
  105OSM    C5F10755   4.772   0.470  10.067  0.7275 -0.8294  0.2213
  105OSM    H5F10756   4.729   0.367  10.068 -0.8056 -0.2744  3.7559
  105OSM    H5G10757   4.866   0.471  10.126 -1.3936  1.3596  3.8711
  105OSM    C6F10758   4.793   0.533   9.929  0.5237 -0.6890  0.3568
  105OSM    H6F10759   4.892   0.501   9.889  0.6967  0.1395  0.1209
  105OSM    H6G10760   4.777   0.642   9.937 -3.0095 -0.9142 -1.4838
  105OSM    C7F10761   4.692   0.482   9.821  0.2321  0.0699 -0.1990
  105OSM    H7F10762   4.592   0.506   9.862  0.9064  2.4464  0.2309
  105OSM    H7G10763   4.698   0.376   9.790  0.2163  0.8849 -3.4366
  105OSM    C8F10764   4.707   0.560   9.688  0.0079 -0.8963 -0.3052
  105OSM    H8F10765   4.733   0.664   9.717  0.7144 -0.7988 -1.2294
  105OSM    H8G10766   4.610   0.556   9.635 -0.6787 -2.4715  1.0152
  105OSM    C9F10767   4.828   0.509   9.613  0.0066  0.2149 -0.5164
  105OSM    H9F10768   4.902   0.475   9.686  0.1476  1.3740 -0.1030
  105OSM   C10F10769   4.845   0.492   9.476 -0.4025  0.5376 -0.3209
  105OSM   H10F10770   4.934   0.445   9.430 -0.7843 -1.2997  0.7224
  105OSM   C11F10771   4.747   0.519   9.365 -0.3594 -0.3241  0.9287
  105OSM   H11F10772   4.644   0.502   9.405 -0.6568 -0.0634  0.2911
  105OSM   H11G10773   4.781   0.439   9.296  0.9037  0.1586  0.9811
  105OSM   C12F10774   4.762   0.660   9.305 -0.1654  0.0705  0.4903
  105OSM   H12F10775   4.690   0.653   9.221  0.6495 -3.5048 -0.0671
  105OSM   H12G10776   4.864   0.678   9.265 -1.4796  3.1044 -1.8603
  105OSM   C13F10777   4.718   0.773   9.396  0.1154 -0.7106 -0.5207
  105OSM   H13F10778   4.787   0.781   9.483 -1.1107 -0.7762  0.4935
  105OSM   H13G10779   4.617   0.753   9.440  0.7947  0.8028  1.9621
  105OSM   C14F10780   4.714   0.915   9.333 -0.4502 -1.1941 -0.2382
  105OSM   H14F10781   4.818   0.943   9.304 -1.2034  5.1742  1.6213
  105OSM   H14G10782   4.685   0.984   9.415  0.8666 -0.6512 -0.2014
  105OSM   C15F10783   4.622   0.917   9.208 -0.2516 -0.8109 -0.6236
  105OSM   H15F10784   4.562   1.011   9.216  1.6057  0.5275 -1.5681
  105OSM   H15G10785   4.549   0.834   9.217  0.7613 -1.4625  2.6312
  105OSM   C16F10786   4.705   0.919   9.073 -0.3284  0.1565 -0.2193
  105OSM   H16F10787   4.631   0.900   8.992 -1.8317  1.0010  0.8946
  105OSM   H16G10788   4.775   0.833   9.065  0.5131  0.9165 -1.3596
  105OSM   C17F10789   4.776   1.050   9.041 -0.3865  0.8245  0.0272
  105OSM   H17F10790   4.828   1.038   8.944  0.5467 -0.6982  0.6777
  105OSM   H17G10791   4.857   1.059   9.117  0.6936 -1.7879 -0.7032
  105OSM   C18F10792   4.699   1.184   9.036  0.3731 -0.4377 -0.0006
  105OSM   H18F10793   4.750   1.270   8.988 -1.0353 -0.6054 -1.9006
  105OSM   H18G10794   4.678   1.215   9.141 -3.4497 -0.7780 -0.5279
  105OSM   H18H10795   4.601   1.174   8.984 -0.2469  1.4810  0.7119
  106OSM      N10796   0.063   3.581  11.035 -0.3305 -0.5764 -0.3574
  106OSM    C1510797   0.060   3.536  10.893  0.5328  0.6075  0.1989
  106OSM   H15A10798   0.143   3.471  10.872 -0.2328  0.0177 -1.1514
  106OSM   H15B10799   0.058   3.617  10.822 -0.4378 -1.0752 -1.8361
  106OSM   H15C10800  -0.029   3.478  10.871 -0.2716  2.3145 -1.3544
  106OSM    C1410801   0.015   3.474  11.128  0.1661  0.7840  0.1949
  106OSM   H14A10802   0.064   3.378  11.118  2.2272  1.6606  1.3293
  106OSM   H14B10803  -0.092   3.455  11.127  0.5550 -3.1477 -4.3940
  106OSM   H14C10804   0.039   3.499  11.230 -0.1119 -1.3759  0.8396
  106OSM    C1310805   0.199   3.623  11.079 -0.6435  0.6155 -0.3931
  106OSM   H13A10806   0.272   3.544  11.065 -0.7016  0.4498  0.2001
  106OSM   H13B10807   0.199   3.642  11.185  1.3606  0.3722 -0.3178
  106OSM   H13C10808   0.226   3.714  11.029 -1.2472  0.9910 -0.0444
  106OSM    C1210809  -0.033   3.698  11.063 -0.6752  0.8103 -0.9342
  106OSM   H12A10810  -0.031   3.702  11.171  2.9307  0.9977 -0.8892
  106OSM   H12B10811  -0.135   3.673  11.037 -0.9216 -1.3742  1.6152
  106OSM    C1110812  -0.016   3.831  10.995 -0.4374 -0.2648  0.2871
  106OSM   H11A10813  -0.106   3.889  11.023  0.6002  0.6947  1.7366
  106OSM   H11B10814   0.005   3.815  10.887  1.9868  0.9153  0.5129
  106OSM      P10815   0.123   4.044  11.051  0.0830  0.2587 -0.0109
  106OSM    O1310816   0.040   4.108  11.156 -0.0556 -0.9673 -0.1763
  106OSM    O1410817   0.272   4.067  11.050 -0.1614 -0.5868  0.4352
  106OSM    O1110818   0.056   4.070  10.911  0.0401 -0.0736  0.1190
  106OSM    O1210819   0.096   3.889  11.058 -0.1659 -0.4826 -0.3427
  106OSM    C1S10820   0.099   4.177  10.820 -0.3035  0.0938 -0.4358
  106OSM    H1S10821   0.209   4.193  10.832 -0.2506 -0.1818 -0.5416
  106OSM    H1T10822   0.042   4.269  10.847 -1.0604 -0.4838 -0.0449
  106OSM     NF10823   0.148   4.230  10.583  0.7313  0.0059  0.5941
  106OSM    HNF10824   0.095   4.297  10.533 -1.6619 -3.3719 -1.8548
  106OSM    C2S10825   0.075   4.140  10.664 -1.2432  0.8383  0.1902
  106OSM    H2S10826   0.126   4.042  10.651 -0.1982  1.2224  1.2677
  106OSM    C3S10827  -0.072   4.133  10.634  0.1498  0.7394  0.1615
  106OSM    H3S10828  -0.118   4.231  10.656  1.6079  1.5478 -0.2467
  106OSM     O310829  -0.142   4.041  10.717 -0.4540  0.6882  0.2501
  106OSM    HO310830  -0.082   4.016  10.787 -1.3556  1.1013  1.2109
  106OSM    C4S10831  -0.104   4.091  10.493 -0.7667  0.2915  0.6051
  106OSM    H4S10832  -0.110   3.983  10.473 -1.6314  0.6773 -1.5672
  106OSM    C5S10833  -0.142   4.174  10.401  0.6913 -1.0459  0.5349
  106OSM    H5S10834  -0.153   4.283  10.417 -1.3535 -1.3008  1.0791
  106OSM    C6S10835  -0.183   4.146  10.258  0.0141  0.2276  0.0480
  106OSM    H6S10836  -0.290   4.165  10.237  0.4704  1.0863 -1.6011
  106OSM    H6T10837  -0.172   4.038  10.235 -2.2226  0.3050 -1.7487
  106OSM    C7S10838  -0.099   4.219  10.151  0.3658  0.8972 -0.4170
  106OSM    H7S10839   0.008   4.196  10.167 -0.0585 -1.9748 -1.2688
  106OSM    H7T10840  -0.123   4.327  10.160  1.6277  1.1597 -0.0481
  106OSM    C8S10841  -0.144   4.172  10.014 -0.1661 -0.3828 -0.1751
  106OSM    H8S10842  -0.255   4.184  10.018  0.0066  1.2469  1.2894
  106OSM    H8T10843  -0.111   4.066  10.019 -0.0464 -0.3052  3.7175
  106OSM    C9S10844  -0.099   4.247   9.888 -0.1351 -0.5683 -0.5651
  106OSM    H9S10845  -0.121   4.355   9.899  1.2088 -0.4290  1.2327
  106OSM    H9T10846  -0.158   4.216   9.799  0.1945  0.2739 -1.0888
  106OSM   C10S10847   0.052   4.224   9.864 -0.5616 -0.2244  0.1659
  106OSM   H10S10848   0.077   4.118   9.842  0.2450 -0.0148  0.0365
  106OSM   H10T10849   0.120   4.258   9.945  2.7304  1.9727 -3.1792
  106OSM   C11S10850   0.113   4.295   9.744 -0.5729 -0.5587 -0.2492
  106OSM   H11S10851   0.126   4.405   9.755  0.0338 -0.6439 -0.0512
  106OSM   H11T10852   0.036   4.296   9.665  0.5807 -0.9149 -1.4181
  106OSM   C12S10853   0.246   4.250   9.675 -0.0213 -0.1395 -0.3056
  106OSM   H12S10854   0.242   4.141   9.656 -1.9137  0.0621 -1.3839
  106OSM   H12T10855   0.316   4.274   9.757  0.1732 -0.7841 -0.2776
  106OSM   C13S10856   0.274   4.333   9.546  0.2329  0.5934 -0.3658
  106OSM   H13S10857   0.264   4.436   9.586 -3.0289  0.2130  0.0599
  106OSM   H13T10858   0.184   4.321   9.482 -0.8414  2.4508  0.7317
  106OSM   C14S10859   0.396   4.298   9.458 -0.2283  0.4248 -0.2032
  106OSM   H14S10860   0.403   4.189   9.438 -1.8687 -0.0390  1.5093
  106OSM   H14T10861   0.492   4.305   9.513  0.9751 -3.9750 -1.3598
  106OSM   C15S10862   0.399   4.381   9.331 -0.5717 -0.0740  0.7618
  106OSM   H15S10863   0.381   4.487   9.360 -1.3941 -0.0136  0.0869
  106OSM   H15T10864   0.304   4.354   9.279  0.3103 -0.9088 -0.4720
  106OSM   C16S10865   0.516   4.354   9.239  0.1727  0.0375 -0.5907
  106OSM   H16S10866   0.515   4.244   9.224  0.9317 -0.0051 -0.3666
  106OSM   H16T10867   0.606   4.384   9.297  0.0812  0.5350 -0.7014
  106OSM   C17S10868   0.505   4.422   9.098 -0.0472 -0.9747 -0.6414
  106OSM   H17S10869   0.597   4.407   9.038  1.0355 -0.0658  0.7115
  106OSM   H17T10870   0.494   4.533   9.098 -0.2509 -0.9946 -1.1188
  106OSM   C18S10871   0.385   4.369   9.020  0.4505 -0.1440 -0.4068
  106OSM   H18S10872   0.368   4.405   8.917 -1.6542 -2.2906 -0.9087
  106OSM   H18T10873   0.288   4.384   9.072  0.4451 -1.2232 -0.0857
  106OSM   H18U10874   0.394   4.259   9.005 -0.4868 -0.3945  0.7199
  106OSM    C1F10875   0.276   4.233  10.568 -0.7341  0.1107 -0.0799
  106OSM     OF10876   0.343   4.162  10.645  0.1981 -0.2291  0.4700
  106OSM    C2F10877   0.336   4.331  10.474  0.4787 -0.5592 -0.0291
  106OSM    H2F10878   0.362   4.422  10.534 -1.4122 -0.4097  0.6406
  106OSM    H2G10879   0.265   4.359  10.393 -0.3766  0.7979  1.1305
  106OSM    C3F10880   0.467   4.282  10.405  0.4910 -0.9414 -0.6021
  106OSM    H3F10881   0.449   4.186  10.353  1.9799 -1.7433  0.2899
  106OSM    H3G10882   0.533   4.261  10.493 -0.7011  2.2185  1.2164
  106OSM    C4F10883   0.535   4.379  10.296 -0.0285  0.4215  0.0217
  106OSM    H4F10884   0.585   4.467  10.341  0.5161 -0.6210  1.5237
  106OSM    H4G10885   0.459   4.415  10.224  1.3926 -0.7591 -2.2135
  106OSM    C5F10886   0.638   4.299  10.219  0.1576  0.7308 -0.1061
  106OSM    H5F10887   0.583   4.213  10.176 -0.7118  0.4212  1.5505
  106OSM    H5G10888   0.713   4.253  10.288  1.0665 -0.4515 -1.8189
  106OSM    C6F10889   0.715   4.369  10.103 -0.3629  1.1443  0.5405
  106OSM    H6F10890   0.774   4.455  10.143 -0.4495  1.4384  0.0405
  106OSM    H6G10891   0.642   4.409  10.030 -1.5884 -0.8232  0.6090
  106OSM    C7F10892   0.817   4.272  10.030  1.0756  0.5291  0.4110
  106OSM    H7F10893   0.754   4.198   9.976  0.9728  0.4095  0.6953
  106OSM    H7G10894   0.889   4.220  10.097  1.5270  0.8952  0.2148
  106OSM    C8F10895   0.900   4.336   9.916  0.3354 -0.6548 -0.4041
  106OSM    H8F10896   0.971   4.261   9.876 -0.5347 -0.1233 -3.1933
  106OSM    H8G10897   0.959   4.415   9.968 -0.4850 -0.3925  0.1639
  106OSM    C9F10898   0.821   4.405   9.810  0.1876  0.3584 -0.5013
  106OSM    H9F10899   0.826   4.512   9.834  2.0186 -0.1773  1.7872
  106OSM   C10F10900   0.760   4.344   9.706 -0.1676  0.5954 -0.8773
  106OSM   H10F10901   0.701   4.409   9.639  1.3361  3.3182  0.2508
  106OSM   C11F10902   0.752   4.198   9.668  0.1676  0.0935 -0.5033
  106OSM   H11F10903   0.647   4.170   9.644  0.7480 -2.1515 -0.6024
  106OSM   H11G10904   0.779   4.136   9.755  0.3588 -1.1280 -1.4061
  106OSM   C12F10905   0.850   4.162   9.555  0.3740  0.5198 -0.0412
  106OSM   H12F10906   0.871   4.054   9.541  1.0067  0.5535  0.5696
  106OSM   H12G10907   0.945   4.220   9.562  0.2189  0.6983  0.7025
  106OSM   C13F10908   0.782   4.206   9.422  0.2441  0.6030 -0.9526
  106OSM   H13F10909   0.751   4.313   9.426  2.6599  1.3331  1.9540
  106OSM   H13G10910   0.701   4.132   9.404  2.4741 -2.0312 -0.8738
  106OSM   C14F10911   0.883   4.200   9.311  0.2702 -0.0357  0.2656
  106OSM   H14F10912   0.941   4.107   9.328 -1.3237 -0.7734  2.0344
  106OSM   H14G10913   0.960   4.279   9.318  1.2389 -0.8510 -0.7457
  106OSM   C15F10914   0.817   4.197   9.164  0.0188 -0.2415  0.6636
  106OSM   H15F10915   0.783   4.303   9.160  0.9497  0.1351  1.9685
  106OSM   H15G10916   0.724   4.138   9.177 -3.0174  4.4167  3.3451
  106OSM   C16F10917   0.918   4.162   9.059 -1.2269 -0.1280 -0.1225
  106OSM   H16F10918   1.019   4.201   9.085 -0.4568 -2.3344  0.4694
  106OSM   H16G10919   0.889   4.208   8.963  0.6275 -0.7393 -1.0368
  106OSM   C17F10920   0.931   4.015   9.025 -0.4571 -0.4613 -0.1934
  106OSM   H17F10921   0.836   3.992   8.971 -0.9858  0.7514  0.1814
  106OSM   H17G10922   0.922   3.956   9.119  1.0930 -0.2294  0.1161
  106OSM   C18F10923   1.054   3.967   8.952  0.3755  0.2799 -0.3337
  106OSM   H18F10924   1.068   4.017   8.854 -0.6586  1.0699 -0.0959
  106OSM   H18G10925   1.038   3.859   8.931 -2.9796  0.9008 -1.5907
  106OSM   H18H10926   1.137   3.974   9.025  0.2321 -3.2318  0.3509
  107OSM      N10927   0.994   2.729  11.541  0.7178 -0.8317 -0.0665
  107OSM    C1510928   1.009   2.629  11.647 -0.1888  0.6289 -0.8228
  107OSM   H15A10929   1.099   2.657  11.699 -1.5732  1.2137  1.3768
  107OSM   H15B10930   1.012   2.527  11.611 -2.1688  0.4784 -0.6567
  107OSM   H15C10931   0.924   2.631  11.713  1.3257 -1.5279  1.3921
  107OSM    C1410932   0.871   2.705  11.463  0.4847  0.1506 -0.5851
  107OSM   H14A10933   0.863   2.788  11.395 -0.7369 -0.9851 -1.8818
  107OSM   H14B10934   0.787   2.700  11.530  2.5260 -0.4626  2.1397
  107OSM   H14C10935   0.879   2.613  11.406 -0.1530  0.8844 -1.8918
  107OSM    C1310936   0.971   2.868  11.600 -0.6696 -0.2856 -0.4846
  107OSM   H13A10937   1.054   2.905  11.657 -0.8109 -0.7548  0.0355
  107OSM   H13B10938   0.884   2.867  11.664 -0.7796 -0.3602 -0.6344
  107OSM   H13C10939   0.948   2.943  11.525 -1.3112 -2.4415 -2.5555
  107OSM    C1210940   1.115   2.727  11.442 -0.0970 -0.1093 -0.4869
  107OSM   H12A10941   1.204   2.775  11.480  0.2079 -1.9493  1.3041
  107OSM   H12B10942   1.084   2.790  11.360  2.9672  1.7750 -0.3479
  107OSM    C1110943   1.160   2.589  11.390  0.1667  0.4040 -0.1812
  107OSM   H11A10944   1.201   2.521  11.467  0.3122 -0.1880 -0.7725
  107OSM   H11B10945   1.248   2.600  11.323 -0.8566 -3.8066 -2.5387
  107OSM      P10946   1.013   2.374  11.320  0.1920 -0.4946  0.2123
  107OSM    O1310947   1.116   2.300  11.386 -0.0752 -0.0171 -0.3091
  107OSM    O1410948   0.886   2.369  11.386 -0.1617 -0.1993 -0.2122
  107OSM    O1110949   1.001   2.327  11.167 -0.5332 -0.4713 -0.2000
  107OSM    O1210950   1.068   2.519  11.307 -0.6457 -0.6788 -0.4503
  107OSM    C1S10951   1.096   2.368  11.072 -0.1381 -1.1470  0.6571
  107OSM    H1S10952   1.194   2.322  11.097 -0.7791 -1.6352  2.4442
  107OSM    H1T10953   1.116   2.477  11.078 -0.4175 -1.1320  1.4424
  107OSM     NF10954   1.128   2.375  10.817  0.4451  0.8549 -0.1139
  107OSM    HNF10955   1.136   2.468  10.783  0.5692  1.0326  0.4042
  107OSM    C2S10956   1.030   2.343  10.922  0.1026 -0.0056 -0.4391
  107OSM    H2S10957   1.012   2.233  10.925  0.7014 -0.1097 -0.4467
  107OSM    C3S10958   0.902   2.427  10.916 -0.2162  0.5112 -0.1754
  107OSM    H3S10959   0.947   2.528  10.924  0.6363  0.1729 -0.5297
  107OSM     O310960   0.811   2.418  11.027  0.3832 -0.6277  0.0906
  107OSM    HO310961   0.877   2.373  11.081  0.6331  1.5793  1.7649
  107OSM    C4S10962   0.818   2.408  10.795  0.2024 -0.0877  0.0899
  107OSM    H4S10963   0.862   2.468  10.713  1.6621 -0.8695  0.2633
  107OSM    C5S10964   0.711   2.326  10.780  0.6591 -0.0418  0.3423
  107OSM    H5S10965   0.676   2.267  10.867 -2.1886 -0.2460 -0.8357
  107OSM    C6S10966   0.625   2.320  10.651  0.7381  0.4951 -0.5179
  107OSM    H6S10967   0.519   2.331  10.681  1.3667  1.0199  1.6224
  107OSM    H6T10968   0.635   2.220  10.603  4.2598  0.9759 -1.1139
  107OSM    C7S10969   0.651   2.415  10.521  0.3765 -0.0319 -0.1971
  107OSM    H7S10970   0.749   2.379  10.483  1.0914  0.6227  0.9472
  107OSM    H7T10971   0.646   2.523  10.547 -1.9559 -0.1872  0.1353
  107OSM    C8S10972   0.565   2.380  10.403  1.2561  0.1130  0.7176
  107OSM    H8S10973   0.552   2.271  10.388  1.7143  0.4194 -2.7902
  107OSM    H8T10974   0.617   2.420  10.314 -0.2527 -1.1866 -0.8101
  107OSM    C9S10975   0.424   2.434  10.426 -0.2208 -0.5391 -0.1643
  107OSM    H9S10976   0.437   2.544  10.436  2.2733 -0.7603 -0.2559
  107OSM    H9T10977   0.396   2.398  10.527 -0.2182  1.5109  0.6024
  107OSM   C10S10978   0.311   2.399  10.337 -0.7783 -0.9785  0.3546
  107OSM   H10S10979   0.219   2.446  10.377 -0.6788 -1.6136  1.3695
  107OSM   H10T10980   0.297   2.289  10.339 -0.4809 -1.0060  1.1785
  107OSM   C11S10981   0.312   2.435  10.195 -0.3124 -0.0290  0.3869
  107OSM   H11S10982   0.319   2.543  10.167 -1.0902 -0.2518 -0.7002
  107OSM   H11T10983   0.207   2.415  10.169  0.0595 -1.1915 -0.2600
  107OSM   C12S10984   0.404   2.365  10.098 -0.1542 -0.2536  0.0808
  107OSM   H12S10985   0.431   2.262  10.129 -0.0016 -0.4337 -0.6464
  107OSM   H12T10986   0.498   2.425  10.091 -0.0561 -0.4548 -0.3206
  107OSM   C13S10987   0.338   2.366   9.956 -0.2993  0.0448  0.1377
  107OSM   H13S10988   0.314   2.472   9.936 -1.0085 -0.2016 -0.3642
  107OSM   H13T10989   0.235   2.326   9.969 -0.1431 -0.2110  0.6197
  107OSM   C14S10990   0.424   2.302   9.849  0.5808 -0.1790 -0.4221
  107OSM   H14S10991   0.423   2.191   9.857  0.1661 -0.2510 -1.3608
  107OSM   H14T10992   0.530   2.334   9.851  0.6024 -0.1978 -1.1420
  107OSM   C15S10993   0.377   2.329   9.699 -1.1154 -1.0078 -0.9329
  107OSM   H15S10994   0.268   2.307   9.697 -1.3293 -0.2979  0.8822
  107OSM   H15T10995   0.431   2.259   9.631  0.1471  0.9854 -2.0529
  107OSM   C16S10996   0.410   2.471   9.656 -0.1356 -0.8866 -0.6916
  107OSM   H16S10997   0.518   2.493   9.673  0.3351 -1.1501 -2.9666
  107OSM   H16T10998   0.361   2.542   9.726 -1.2834 -2.9374  0.7000
  107OSM   C17S10999   0.362   2.500   9.514  0.4127  0.1834  0.1502
  107OSM   H17S11000   0.253   2.477   9.507  0.3314  0.2813  1.0416
  107OSM   H17T11001   0.417   2.427   9.450 -1.0697  0.4368 -1.5155
  107OSM   C18S11002   0.376   2.650   9.473 -0.1740  0.5672 -0.1930
  107OSM   H18S11003   0.476   2.697   9.483 -0.7305  1.5814  0.8549
  107OSM   H18T11004   0.300   2.714   9.522  0.8804  0.4796  1.6891
  107OSM   H18U11005   0.341   2.651   9.368 -1.3774 -5.0301 -0.1759
  107OSM    C1F11006   1.233   2.287  10.799 -0.2695  0.0143 -0.0536
  107OSM     OF11007   1.234   2.175  10.851  0.3317  0.1720 -0.5139
  107OSM    C2F11008   1.350   2.331  10.714  0.6723  0.6585 -0.0945
  107OSM    H2F11009   1.443   2.343  10.775  0.4846 -1.6357  0.7259
  107OSM    H2G11010   1.317   2.423  10.661 -4.3602 -2.1417 -2.4274
  107OSM    C3F11011   1.396   2.216  10.617 -0.1229 -0.6177 -0.1172
  107OSM    H3F11012   1.428   2.132  10.682 -1.1954  0.1912  1.5060
  107OSM    H3G11013   1.478   2.250  10.550 -0.3089  0.1356  0.0226
  107OSM    C4F11014   1.285   2.173  10.525 -0.3831  0.2907 -0.3098
  107OSM    H4F11015   1.240   2.250  10.459  0.2443 -0.2858 -1.4391
  107OSM    H4G11016   1.213   2.132  10.599  0.5861 -0.7522  0.0998
  107OSM    C5F11017   1.343   2.055  10.446  0.7048  0.3426  0.0111
  107OSM    H5F11018   1.254   1.999  10.412  0.3821  1.7785 -1.6710
  107OSM    H5G11019   1.401   1.990  10.516  1.6334  1.2447  0.1101
  107OSM    C6F11020   1.427   2.083  10.318  0.1341  0.0014  0.6481
  107OSM    H6F11021   1.459   1.990  10.266 -1.7204  0.1740 -0.8691
  107OSM    H6G11022   1.521   2.124  10.361  1.7869 -0.8878 -1.8906
  107OSM    C7F11023   1.357   2.185  10.226  0.3924  0.2754  0.3032
  107OSM    H7F11024   1.328   2.287  10.262 -0.0394  0.7399 -1.2817
  107OSM    H7G11025   1.259   2.136  10.208  0.9002 -0.9062  0.6781
  107OSM    C8F11026   1.421   2.227  10.092  0.4347  0.1007  0.6318
  107OSM    H8F11027   1.519   2.277  10.105 -0.7849  2.5325  1.0072
  107OSM    H8G11028   1.360   2.304  10.040 -1.3654 -2.1132 -0.7299
  107OSM    C9F11029   1.439   2.110  10.003 -0.4973 -0.1985  0.4187
  107OSM    H9F11030   1.496   2.025  10.044  0.6663  1.3170  2.0975
  107OSM   C10F11031   1.371   2.077   9.890  0.5108  0.7917 -0.1457
  107OSM   H10F11032   1.401   1.996   9.822  0.4154  0.0435  0.6867
  107OSM   C11F11033   1.271   2.162   9.818  0.5712  0.4084  0.0550
  107OSM   H11F11034   1.254   2.257   9.873 -0.9948  0.7472 -0.9603
  107OSM   H11G11035   1.182   2.099   9.800  0.0532  1.6734 -2.2410
  107OSM   C12F11036   1.323   2.181   9.675  0.1910 -0.5994 -0.4473
  107OSM   H12F11037   1.338   2.089   9.614  2.2043 -0.4135 -0.2913
  107OSM   H12G11038   1.421   2.232   9.666  1.0871 -2.0241  0.7874
  107OSM   C13F11039   1.223   2.259   9.583  0.4093  0.6143 -0.0626
  107OSM   H13F11040   1.202   2.358   9.628  1.4473  0.4441  0.8385
  107OSM   H13G11041   1.130   2.199   9.593  2.0980 -1.8643  2.5476
  107OSM   C14F11042   1.264   2.278   9.434 -0.1160 -0.0611  0.3609
  107OSM   H14F11043   1.311   2.182   9.404  0.1808 -0.8303  2.9943
  107OSM   H14G11044   1.340   2.359   9.428 -0.6056  0.5520  1.8842
  107OSM   C15F11045   1.150   2.304   9.331  0.2736  0.8429  0.0003
  107OSM   H15F11046   1.089   2.390   9.366  2.2624  1.8913  1.1042
  107OSM   H15G11047   1.090   2.211   9.325  1.5514 -0.0780  1.0098
  107OSM   C16F11048   1.212   2.333   9.192 -0.1853  0.4478  0.6577
  107OSM   H16F11049   1.280   2.246   9.175  0.8768  1.5714 -1.1827
  107OSM   H16G11050   1.271   2.428   9.190 -1.7839  1.4809  1.0671
  107OSM   C17F11051   1.117   2.332   9.073  0.2549  1.0580 -0.0201
  107OSM   H17F11052   1.042   2.411   9.094 -2.0462 -1.1576  0.6317
  107OSM   H17G11053   1.068   2.233   9.083  0.3134  0.9458 -0.8400
  107OSM   C18F11054   1.186   2.347   8.939  0.3234 -0.1225 -0.6198
  107OSM   H18F11055   1.231   2.448   8.927 -0.7365  0.1870 -2.3265
  107OSM   H18G11056   1.104   2.360   8.865 -1.1918 -0.8509  0.8787
  107OSM   H18H11057   1.256   2.262   8.919  1.0362  0.2491  0.2347
  108OSM      N11058   3.309   1.321  11.540 -0.2908 -0.0185  0.0527
  108OSM    C1511059   3.172   1.280  11.567 -0.2476 -0.5822  0.5018
  108OSM   H15A11060   3.113   1.350  11.625 -0.6380 -1.0379  0.6624
  108OSM   H15B11061   3.166   1.184  11.617  1.0530 -0.8205  0.2289
  108OSM   H15C11062   3.116   1.253  11.478 -0.6063 -0.2743  0.6283
  108OSM    C1411063   3.331   1.459  11.487 -0.6096 -0.0025  0.2229
  108OSM   H14A11064   3.263   1.528  11.536 -0.3121  0.2618  0.2665
  108OSM   H14B11065   3.337   1.464  11.380  1.5734 -0.1836  0.2978
  108OSM   H14C11066   3.428   1.497  11.517 -0.4295  0.9688 -1.4744
  108OSM    C1311067   3.389   1.298  11.667 -0.9548  0.2687  0.5932
  108OSM   H13A11068   3.329   1.342  11.746  0.1717  0.9025  1.1221
  108OSM   H13B11069   3.485   1.348  11.661  0.4019 -1.8227  2.8918
  108OSM   H13C11070   3.409   1.193  11.679  0.2822  0.5543  1.1986
  108OSM    C1211071   3.365   1.222  11.437 -0.5140  0.6550 -0.5972
  108OSM   H12A11072   3.385   1.125  11.480  2.1434  0.6623 -1.6266
  108OSM   H12B11073   3.465   1.248  11.403  0.7797 -2.9881 -0.0045
  108OSM    C1111074   3.292   1.206  11.303  0.0588  0.3903 -0.4967
  108OSM   H11A11075   3.358   1.152  11.231 -0.5941  0.9677 -1.5555
  108OSM   H11B11076   3.288   1.300  11.245  3.8420 -0.3378 -2.3004
  108OSM      P11077   3.162   0.992  11.306  0.3994 -0.4406 -0.1164
  108OSM    O1311078   3.253   0.936  11.414  0.5720 -0.2008  0.0159
  108OSM    O1411079   3.020   0.949  11.312 -0.0569  0.1908  0.3885
  108OSM    O1111080   3.219   0.953  11.160  0.5971 -0.0209 -0.1108
  108OSM    O1211081   3.156   1.150  11.318  0.0770 -0.0703  0.6189
  108OSM    C1S11082   3.186   1.037  11.048  1.0157  0.1235  1.0508
  108OSM    H1S11083   3.277   1.098  11.026  0.2732  1.0707  0.5534
  108OSM    H1T11084   3.094   1.096  11.066  0.1686 -0.8239  0.0413
  108OSM     NF11085   3.144   1.044  10.801 -0.0418  0.1187  0.3384
  108OSM    HNF11086   3.047   1.052  10.781 -1.0268 -0.3277  4.3030
  108OSM    C2S11087   3.156   0.955  10.915  0.2877  0.7984 -0.3205
  108OSM    H2S11088   3.248   0.898  10.891  1.2149  2.1324 -0.0841
  108OSM    C3S11089   3.033   0.855  10.936  0.7873 -0.1570  0.1519
  108OSM    H3S11090   2.946   0.914  10.971  0.6853 -0.4663  0.4280
  108OSM     O311091   3.048   0.760  11.035  0.2645 -0.1383  0.1625
  108OSM    HO311092   3.133   0.776  11.078  0.7941 -2.4074  0.1418
  108OSM    C4S11093   2.996   0.781  10.808  0.2349  0.1319  0.0056
  108OSM    H4S11094   3.065   0.699  10.784 -0.9129 -0.9279  0.2277
  108OSM    C5S11095   2.890   0.808  10.731 -0.1001  0.2576 -0.0936
  108OSM    H5S11096   2.831   0.897  10.757  0.5319  0.6982 -0.1556
  108OSM    C6S11097   2.877   0.738  10.596 -0.5684  1.3274  0.0208
  108OSM    H6S11098   2.826   0.639  10.600 -1.3720  1.6610 -1.4195
  108OSM    H6T11099   2.973   0.721  10.543 -0.6687  1.5145 -0.2207
  108OSM    C7S11100   2.780   0.813  10.504 -0.6512  0.5699 -0.0305
  108OSM    H7S11101   2.806   0.921  10.496  1.0854  0.4238  2.4946
  108OSM    H7T11102   2.677   0.792  10.540 -0.7259 -1.1336 -1.1100
  108OSM    C8S11103   2.778   0.751  10.364  0.5968 -0.4692 -0.0112
  108OSM    H8S11104   2.749   0.644  10.369 -1.1589  0.0211  1.3428
  108OSM    H8T11105   2.881   0.754  10.322  0.8117 -0.0808  0.5255
  108OSM    C9S11106   2.682   0.833  10.278 -0.1498 -0.1563  0.6684
  108OSM    H9S11107   2.699   0.939  10.307  0.1509 -0.3839  1.3343
  108OSM    H9T11108   2.580   0.803  10.312 -0.8335  0.8634 -0.3837
  108OSM   C10S11109   2.699   0.792  10.127 -0.0315  0.5018  0.2567
  108OSM   H10S11110   2.611   0.819  10.065  1.8009  0.3386 -2.6196
  108OSM   H10T11111   2.704   0.681  10.125  0.4194  0.4807  1.6100
  108OSM   C11S11112   2.816   0.869  10.062  0.2203 -0.2369  0.0341
  108OSM   H11S11113   2.909   0.837  10.112  0.8330  0.2975 -0.7318
  108OSM   H11T11114   2.800   0.977  10.087  1.5041 -0.2837  1.1475
  108OSM   C12S11115   2.828   0.851   9.909  0.0213 -0.1555 -0.2672
  108OSM   H12S11116   2.727   0.864   9.863 -0.6059  1.0120  1.3374
  108OSM   H12T11117   2.860   0.745   9.901 -0.5683 -0.3223 -0.5349
  108OSM   C13S11118   2.921   0.955   9.844 -0.8960 -0.2533  0.8565
  108OSM   H13S11119   3.020   0.913   9.874  1.2170  1.7032 -2.7533
  108OSM   H13T11120   2.914   1.057   9.887 -1.8973 -0.1469  0.4680
  108OSM   C14S11121   2.908   0.968   9.693 -0.0063 -0.4789  0.9191
  108OSM   H14S11122   2.814   1.022   9.671  0.2066 -1.0771 -1.6953
  108OSM   H14T11123   2.895   0.870   9.643 -0.6604 -0.9202  1.9171
  108OSM   C15S11124   3.019   1.048   9.631 -0.1698 -0.7367 -0.9022
  108OSM   H15S11125   3.119   1.007   9.655 -0.4042 -0.5208  0.5829
  108OSM   H15T11126   3.017   1.154   9.665 -1.6092  0.1900 -3.5801
  108OSM   C16S11127   3.009   1.059   9.478 -0.4998 -0.1895  0.4536
  108OSM   H16S11128   2.925   1.122   9.441 -0.4836 -0.2147  0.3726
  108OSM   H16T11129   2.999   0.961   9.426  0.4199  0.9297 -1.9527
  108OSM   C17S11130   3.132   1.129   9.420 -0.4165 -0.3263  0.6453
  108OSM   H17S11131   3.227   1.078   9.448 -0.2937 -0.3884  0.1235
  108OSM   H17T11132   3.137   1.230   9.467  0.1971 -0.2519  0.4269
  108OSM   C18S11133   3.115   1.137   9.269  0.0133 -0.2889 -0.6920
  108OSM   H18S11134   3.209   1.159   9.214  0.6846 -1.2434  0.0323
  108OSM   H18T11135   3.034   1.211   9.250  0.0319 -0.1925 -0.3921
  108OSM   H18U11136   3.083   1.038   9.230 -0.0994 -0.6392  0.2552
  108OSM    C1F11137   3.245   1.117  10.742 -0.0873  0.4089  0.4474
  108OSM     OF11138   3.358   1.127  10.781 -0.4173  0.4214  0.4908
  108OSM    C2F11139   3.208   1.200  10.622  0.6213  0.5480 -1.1643
  108OSM    H2F11140   3.181   1.296  10.672  1.0884  0.3729 -0.5522
  108OSM    H2G11141   3.113   1.166  10.575  0.6216  0.2569 -0.9566
  108OSM    C3F11142   3.318   1.227  10.511  0.0081  0.1903  0.0733
  108OSM    H3F11143   3.396   1.292  10.558  0.5762 -0.9328  0.7296
  108OSM    H3G11144   3.270   1.291  10.434  1.9138  1.9302  0.2391
  108OSM    C4F11145   3.372   1.094  10.450 -0.9985 -0.3894 -0.8024
  108OSM    H4F11146   3.291   1.019  10.441 -0.2271 -1.6825  1.7980
  108OSM    H4G11147   3.447   1.041  10.513  0.8198  2.4114 -0.4173
  108OSM    C5F11148   3.450   1.123  10.319  0.0085 -0.4658 -0.5800
  108OSM    H5F11149   3.539   1.187  10.336 -1.0679  1.0546 -0.4390
  108OSM    H5G11150   3.376   1.174  10.254  0.6687  1.7301  0.2911
  108OSM    C6F11151   3.487   0.990  10.253  0.2489  0.4013  0.1676
  108OSM    H6F11152   3.396   0.930  10.233  1.8299 -1.5594 -1.6571
  108OSM    H6G11153   3.548   0.929  10.322 -1.1407 -0.9984  0.2022
  108OSM    C7F11154   3.569   0.999  10.130  0.0755  0.4931  0.5205
  108OSM    H7F11155   3.663   1.039  10.174  0.3450  0.0868  0.3209
  108OSM    H7G11156   3.509   1.067  10.066 -1.8046 -1.0833  0.5308
  108OSM    C8F11157   3.594   0.864  10.065  0.4150 -0.3366 -0.2562
  108OSM    H8F11158   3.500   0.821  10.024  0.9092 -2.1168  0.4201
  108OSM    H8G11159   3.627   0.801  10.150  0.5661  2.5408  1.9983
  108OSM    C9F11160   3.694   0.870   9.959  0.3773 -0.1770  1.0929
  108OSM    H9F11161   3.798   0.852   9.991  0.5516 -1.4569 -0.0835
  108OSM   C10F11162   3.661   0.869   9.829 -0.1854  0.6545  0.1053
  108OSM   H10F11163   3.745   0.846   9.761 -1.8127 -3.1505 -0.8999
  108OSM   C11F11164   3.525   0.873   9.765  0.2782 -0.2744  1.2112
  108OSM   H11F11165   3.468   0.937   9.835  1.7471  0.1513  2.0494
  108OSM   H11G11166   3.487   0.769   9.753 -1.7690  0.3965  1.5241
  108OSM   C12F11167   3.511   0.941   9.626 -0.0013 -0.2912  0.0718
  108OSM   H12F11168   3.578   1.029   9.612  0.2802 -0.8209 -2.4328
  108OSM   H12G11169   3.407   0.979   9.609  0.5118  1.3317  0.3719
  108OSM   C13F11170   3.555   0.848   9.509 -0.1798 -0.1772  0.0394
  108OSM   H13F11171   3.486   0.763   9.524 -1.0279  0.6933  1.2981
  108OSM   H13G11172   3.662   0.820   9.520 -0.7163 -1.8903  1.2408
  108OSM   C14F11173   3.526   0.925   9.377 -0.2124  0.8307 -0.1840
  108OSM   H14F11174   3.574   1.025   9.374  1.1189  0.2668  1.0346
  108OSM   H14G11175   3.416   0.942   9.379 -0.5842 -1.4188  1.4134
  108OSM   C15F11176   3.562   0.839   9.258 -0.5394 -0.2000 -0.8970
  108OSM   H15F11177   3.495   0.750   9.257 -2.1500  0.9653 -0.3944
  108OSM   H15G11178   3.669   0.811   9.255  0.2615  2.3451  0.9123
  108OSM   C16F11179   3.545   0.904   9.120  0.1114 -0.8554 -0.0380
  108OSM   H16F11180   3.636   0.969   9.117 -0.0330 -0.6849 -1.3104
  108OSM   H16G11181   3.460   0.975   9.120  0.1192 -0.8326 -1.0547
  108OSM   C17F11182   3.546   0.806   8.994 -0.4561 -0.1890  0.5018
  108OSM   H17F11183   3.655   0.802   8.969 -0.7711 -1.0949 -0.8444
  108OSM   H17G11184   3.492   0.860   8.914 -0.2481  1.9847  1.7531
  108OSM   C18F11185   3.479   0.666   9.009  0.2683  0.3063 -0.1534
  108OSM   H18F11186   3.505   0.613   9.102 -2.2670 -0.7140  0.0667
  108OSM   H18G11187   3.505   0.600   8.924 -2.7738  0.9505 -1.7362
  108OSM   H18H11188   3.370   0.689   9.006  0.3751  1.2784  1.6655
  109OSM      N11189   4.554   2.260  11.095 -0.4005  0.0507 -0.8715
  109OSM    C1511190   4.632   2.380  11.141 -0.1677 -0.0754  0.4688
  109OSM   H15A11191   4.625   2.409  11.245 -0.0583 -0.9591  0.7285
  109OSM   H15B11192   4.589   2.455  11.077 -0.1085 -0.2419  0.2327
  109OSM   H15C11193   4.738   2.375  11.122 -0.6061  0.7884 -2.9604
  109OSM    C1411194   4.581   2.145  11.192 -0.3361  0.8371  0.1596
  109OSM   H14A11195   4.544   2.159  11.292 -4.2852  1.1618 -1.1953
  109OSM   H14B11196   4.686   2.118  11.194 -0.6393 -0.7407 -2.1107
  109OSM   H14C11197   4.530   2.056  11.159  1.3670  0.6499 -2.2694
  109OSM    C1311198   4.414   2.300  11.097 -0.0126  0.7175  0.1162
  109OSM   H13A11199   4.390   2.358  11.185 -1.7424  1.6932 -0.9233
  109OSM   H13B11200   4.338   2.226  11.076  0.1315  0.3276  0.9228
  109OSM   H13C11201   4.402   2.377  11.022  2.1109  2.3492  1.3612
  109OSM    C1211202   4.592   2.220  10.953  0.0767  0.3894 -0.3328
  109OSM   H12A11203   4.531   2.139  10.915  0.8971  0.3776 -1.6601
  109OSM   H12B11204   4.691   2.177  10.950  0.0036  0.2795 -1.4564
  109OSM    C1111205   4.593   2.333  10.841 -0.0761 -0.3661  0.2621
  109OSM   H11A11206   4.613   2.275  10.748  1.4943 -1.5009  1.2549
  109OSM   H11B11207   4.685   2.392  10.858 -0.2725  0.4763 -1.4327
  109OSM      P11208   4.467   2.565  10.841 -0.7273  0.0736  0.0339
  109OSM    O1311209   4.329   2.615  10.833  0.9852 -0.1433 -0.2752
  109OSM    O1411210   4.551   2.618  10.956  0.6658  0.1244  0.8728
  109OSM    O1111211   4.543   2.606  10.701  0.4287 -0.2025 -0.4620
  109OSM    O1211212   4.472   2.406  10.839 -0.1147 -0.0606 -0.3766
  109OSM    C1S11213   4.536   2.509  10.591  0.2627  0.3098  0.4112
  109OSM    H1S11214   4.445   2.446  10.600 -0.5649  1.3110 -0.5957
  109OSM    H1T11215   4.624   2.442  10.591 -1.9975 -2.8856  0.4670
  109OSM     NF11216   4.478   2.504  10.356  0.3321  0.0512 -0.3483
  109OSM    HNF11217   4.541   2.443  10.309 -0.5540 -0.0524 -1.4443
  109OSM    C2S11218   4.530   2.586  10.456 -0.3964  0.3017 -0.6335
  109OSM    H2S11219   4.461   2.671  10.474 -0.4345 -0.1405  1.6065
  109OSM    C3S11220   4.672   2.645  10.427 -0.4917 -0.3999 -0.9496
  109OSM    H3S11221   4.742   2.559  10.427 -0.2492 -0.2663  1.7141
  109OSM     O311222   4.723   2.729  10.534  0.5885 -0.4247  0.2357
  109OSM    HO311223   4.656   2.722  10.602 -0.2387  0.9183 -0.3802
  109OSM    C4S11224   4.674   2.721  10.301  0.8534 -0.4277 -0.2973
  109OSM    H4S11225   4.594   2.795  10.293  2.0715  1.0816  0.9230
  109OSM    C5S11226   4.742   2.691  10.192 -0.1729 -0.5650  0.2129
  109OSM    H5S11227   4.820   2.614  10.198  0.1715 -0.2350  0.0025
  109OSM    C6S11228   4.730   2.779  10.068 -0.3586 -0.1372 -0.2359
  109OSM    H6S11229   4.625   2.813  10.062 -0.7780 -1.5488 -1.4146
  109OSM    H6T11230   4.744   2.716   9.978 -1.5037 -1.0095  0.1707
  109OSM    C7S11231   4.806   2.916  10.049  0.4456  0.3219 -0.0809
  109OSM    H7S11232   4.772   2.990  10.125  2.1253  0.3559  0.6943
  109OSM    H7T11233   4.779   2.955   9.949  2.1280  1.1952 -0.2277
  109OSM    C8S11234   4.958   2.897  10.060 -0.2555 -0.0525 -0.4795
  109OSM    H8S11235   4.991   2.822   9.985  2.2471 -0.6694  1.1325
  109OSM    H8T11236   4.984   2.851  10.157  2.1782  2.5587  0.2515
  109OSM    C9S11237   5.037   3.029  10.038  0.3577 -0.0450  0.1837
  109OSM    H9S11238   5.139   2.989  10.055  0.6491  0.4592 -0.3595
  109OSM    H9T11239   5.000   3.089  10.124 -2.9063 -1.7099  0.0920
  109OSM   C10S11240   5.019   3.094   9.895 -0.1232  0.2257 -0.4897
  109OSM   H10S11241   5.098   3.173   9.892 -1.0751  1.2237 -0.1129
  109OSM   H10T11242   4.924   3.151   9.901 -0.2853 -0.1627  0.8963
  109OSM   C11S11243   5.023   3.001   9.772 -0.3245  0.6629  0.0577
  109OSM   H11S11244   4.935   2.934   9.763  0.3457 -0.7534  3.0181
  109OSM   H11T11245   5.111   2.935   9.783  0.0897  0.3429 -3.8800
  109OSM   C12S11246   5.046   3.079   9.636 -0.4570 -0.0955 -0.1115
  109OSM   H12S11247   5.143   3.131   9.656 -0.2815  0.0595 -1.2954
  109OSM   H12T11248   4.968   3.150   9.601 -1.6575 -1.1246  0.4054
  109OSM   C13S11249   5.054   2.970   9.530 -1.2455 -0.5713 -0.6053
  109OSM   H13S11250   4.951   2.931   9.518 -1.3686 -0.2467 -0.6198
  109OSM   H13T11251   5.120   2.885   9.557  0.4800 -0.0037 -2.7593
  109OSM   C14S11252   5.115   3.033   9.406 -0.0444  0.2663  0.0239
  109OSM   H14S11253   5.226   3.019   9.411 -0.2988 -1.8890  0.7039
  109OSM   H14T11254   5.090   3.139   9.385  1.5309  0.4214 -1.2621
  109OSM   C15S11255   5.083   2.942   9.285 -0.3740 -0.1354  0.0104
  109OSM   H15S11256   5.089   2.999   9.190 -3.3568 -4.4675 -3.1706
  109OSM   H15T11257   4.976   2.916   9.295 -0.8118  1.8099  0.7598
  109OSM   C16S11258   5.168   2.819   9.272 -0.0495  0.2201  0.2527
  109OSM   H16S11259   5.172   2.759   9.366 -1.1756 -1.9354 -0.9937
  109OSM   H16T11260   5.270   2.856   9.247  0.9813 -1.1078  2.1706
  109OSM   C17S11261   5.111   2.736   9.163 -0.3782 -0.4645  0.0252
  109OSM   H17S11262   5.096   2.812   9.083  0.4167 -0.4632 -0.1261
  109OSM   H17T11263   5.014   2.692   9.195 -0.3240 -0.4932  0.1472
  109OSM   C18S11264   5.207   2.633   9.104  0.1130  0.5953 -0.5389
  109OSM   H18S11265   5.149   2.576   9.028 -2.7955 -1.4634  2.8820
  109OSM   H18T11266   5.248   2.556   9.174  3.2657  0.2399 -2.5744
  109OSM   H18U11267   5.284   2.686   9.045 -0.8088  0.2914 -2.0622
  109OSM    C1F11268   4.348   2.483  10.339 -0.4334 -0.5553 -0.1866
  109OSM     OF11269   4.266   2.551  10.391  0.2674  0.0480  0.1391
  109OSM    C2F11270   4.312   2.366  10.252  0.0239  0.0273 -0.9389
  109OSM    H2F11271   4.273   2.284  10.315  0.2846  0.0458 -0.7486
  109OSM    H2G11272   4.402   2.335  10.195  1.1897  3.0559 -0.9270
  109OSM    C3F11273   4.206   2.416  10.152 -0.2308  0.1270  0.5479
  109OSM    H3F11274   4.238   2.511  10.104 -1.3556  1.0532  1.5416
  109OSM    H3G11275   4.117   2.445  10.213 -1.4306  0.5396 -1.2999
  109OSM    C4F11276   4.146   2.319  10.037 -0.4517  0.5912 -0.4595
  109OSM    H4F11277   4.051   2.367  10.003 -1.7463 -0.2954  1.7412
  109OSM    H4G11278   4.119   2.223  10.085 -0.2482  1.6451  1.9094
  109OSM    C5F11279   4.244   2.297   9.920  0.0235 -0.3812  0.0881
  109OSM    H5F11280   4.332   2.238   9.954  0.8445  1.8229  2.1775
  109OSM    H5G11281   4.287   2.397   9.898 -2.1105  0.3359 -1.0087
  109OSM    C6F11282   4.173   2.236   9.799 -0.4697  0.0682 -0.8483
  109OSM    H6F11283   4.218   2.285   9.710  2.6172 -2.8228 -1.0916
  109OSM    H6G11284   4.070   2.277   9.806  0.6276  2.7117  2.1211
  109OSM    C7F11285   4.167   2.085   9.784 -0.0822  0.6331 -0.1411
  109OSM    H7F11286   4.064   2.053   9.759 -0.2588  1.0330  0.0660
  109OSM    H7G11287   4.189   2.027   9.877  0.9028  1.8699  0.4216
  109OSM    C8F11288   4.280   2.036   9.691  0.0796 -0.5366  0.1415
  109OSM    H8F11289   4.369   2.030   9.759  0.8834  1.0114 -0.7250
  109OSM    H8G11290   4.303   2.116   9.618 -3.6862  2.1555  1.5800
  109OSM    C9F11291   4.253   1.900   9.628 -0.1991  0.1115 -0.0851
  109OSM    H9F11292   4.240   1.817   9.699 -0.5579 -0.9471 -1.3554
  109OSM   C10F11293   4.256   1.871   9.493 -0.1761  0.2783 -0.1818
  109OSM   H10F11294   4.211   1.775   9.463 -0.0145  0.2194 -0.2411
  109OSM   C11F11295   4.292   1.959   9.377 -0.8393  0.4083 -0.0321
  109OSM   H11F11296   4.256   2.057   9.414  0.3757  0.1720  1.9277
  109OSM   H11G11297   4.225   1.931   9.293  1.4079  0.4217 -1.9378
  109OSM   C12F11298   4.443   1.975   9.336  0.2057  0.8092 -0.3948
  109OSM   H12F11299   4.455   1.926   9.237 -0.4972  0.8522 -0.5026
  109OSM   H12G11300   4.511   1.922   9.406 -0.0528 -0.0799 -0.8027
  109OSM   C13F11301   4.489   2.122   9.334  0.4540  0.2009 -0.2756
  109OSM   H13F11302   4.471   2.162   9.436 -0.6533 -1.5618  0.2671
  109OSM   H13G11303   4.430   2.183   9.261  0.4189  1.5128  0.8114
  109OSM   C14F11304   4.641   2.147   9.300 -0.1054  0.5757  0.4875
  109OSM   H14F11305   4.711   2.131   9.385  1.5616  0.2521 -0.8994
  109OSM   H14G11306   4.658   2.256   9.292  0.9902  0.4205  0.5568
  109OSM   C15F11307   4.678   2.073   9.169 -0.0529  0.8295 -0.0889
  109OSM   H15F11308   4.605   2.093   9.088  0.6066 -1.7960 -1.4628
  109OSM   H15G11309   4.675   1.963   9.187 -1.4004  0.4458 -2.3275
  109OSM   C16F11310   4.823   2.127   9.122  0.0403 -0.2159  0.2954
  109OSM   H16F11311   4.894   2.110   9.205  0.7464 -0.8129 -0.4230
  109OSM   H16G11312   4.811   2.237   9.114 -0.0317 -0.1533  1.1963
  109OSM   C17F11313   4.853   2.055   8.988  0.1993  0.7496  0.5282
  109OSM   H17F11314   4.779   2.077   8.909  1.1158  1.7857 -0.0746
  109OSM   H17G11315   4.845   1.949   9.017  1.1155  0.8871  1.3599
  109OSM   C18F11316   4.995   2.068   8.940 -0.8674  0.1434 -0.0479
  109OSM   H18F11317   5.044   2.167   8.949 -2.2969  0.7771  1.2420
  109OSM   H18G11318   4.997   2.027   8.837 -3.6762  1.4179 -0.7163
  109OSM   H18H11319   5.059   2.001   9.001 -2.8725 -0.7034  1.2085
  110OSM      N11320   5.738   0.390  10.987 -0.3032 -0.0029  0.1596
  110OSM    C1511321   5.605   0.343  10.942  0.6761  0.5921  0.0241
  110OSM   H15A11322   5.534   0.424  10.931 -0.0096 -0.2922 -2.5115
  110OSM   H15B11323   5.562   0.270  11.009 -0.2498  0.6143 -0.5397
  110OSM   H15C11324   5.611   0.292  10.847 -1.2517  1.7586 -0.7873
  110OSM    C1411325   5.800   0.457  10.879  0.4259 -0.4586  0.2557
  110OSM   H14A11326   5.738   0.532  10.831  0.4847 -0.1077  0.7232
  110OSM   H14B11327   5.823   0.384  10.802 -0.0025 -1.9403  1.4745
  110OSM   H14C11328   5.900   0.490  10.898  0.1189  0.1805  0.7847
  110OSM    C1311329   5.712   0.487  11.093 -0.0425  0.0757  0.4003
  110OSM   H13A11330   5.799   0.529  11.140 -1.4616  0.5797  2.7121
  110OSM   H13B11331   5.642   0.443  11.162  0.1499  0.9920  1.1948
  110OSM   H13C11332   5.660   0.565  11.039 -0.7157 -1.5045 -1.3532
  110OSM    C1211333   5.832   0.275  11.024 -0.4176 -0.0773 -0.1220
  110OSM   H12A11334   5.775   0.215  11.093  1.6215 -1.9921  0.0164
  110OSM   H12B11335   5.900   0.329  11.089 -1.8184 -0.4733  1.7360
  110OSM    C1111336   5.901   0.185  10.924  0.0196 -0.2236  0.2924
  110OSM   H11A11337   5.830   0.137  10.853  0.9945  0.9606 -1.5649
  110OSM   H11B11338   5.924   0.094  10.984 -0.4544 -1.6335 -1.5589
  110OSM      P11339   6.155   0.233  10.939 -0.2693 -0.0625  0.5123
  110OSM    O1311340   6.158   0.311  11.071 -0.3440  0.4075  0.7402
  110OSM    O1411341   6.208   0.095  10.948 -0.0388  0.1375  0.1239
  110OSM    O1111342   6.237   0.310  10.831 -0.3500 -0.3914 -0.5296
  110OSM    O1211343   6.013   0.237  10.864 -0.0110 -0.2372  0.0800
  110OSM    C1S11344   6.297   0.224  10.731  0.1861 -0.0486 -0.0586
  110OSM    H1S11345   6.225   0.146  10.697 -0.1688 -0.3301  1.2774
  110OSM    H1T11346   6.383   0.166  10.769  1.8207  1.1509 -1.7711
  110OSM     NF11347   6.387   0.199  10.497 -0.2550 -0.1845  0.3707
  110OSM    HNF11348   6.476   0.156  10.496 -0.6708 -1.0928 -1.1047
  110OSM    C2S11349   6.356   0.295  10.605  0.4860 -0.3702  0.1065
  110OSM    H2S11350   6.279   0.363  10.563  1.9026  1.3777  0.1690
  110OSM    C3S11351   6.472   0.390  10.636  0.0950  0.5266 -0.3231
  110OSM    H3S11352   6.565   0.331  10.652  0.4735  1.5053  1.3338
  110OSM     O311353   6.471   0.470  10.754  0.5540  0.2603  0.7786
  110OSM    HO311354   6.387   0.447  10.796  0.6942 -2.3255 -0.1787
  110OSM    C4S11355   6.492   0.479  10.520 -0.9195 -0.0848  0.0323
  110OSM    H4S11356   6.426   0.566  10.510  0.9310  1.4194  0.3998
  110OSM    C5S11357   6.604   0.467  10.442  0.8224  0.1412 -0.1132
  110OSM    H5S11358   6.662   0.375  10.456  0.5119 -0.4907 -2.6177
  110OSM    C6S11359   6.644   0.550  10.329 -0.0589  0.1010 -0.1831
  110OSM    H6S11360   6.673   0.651  10.365  0.1640 -1.0911  3.3342
  110OSM    H6T11361   6.570   0.557  10.247  0.2581  0.9604 -0.4088
  110OSM    C7S11362   6.771   0.491  10.260 -0.6228 -0.9279  0.7039
  110OSM    H7S11363   6.735   0.390  10.232 -0.7633 -1.3438  2.2535
  110OSM    H7T11364   6.864   0.478  10.320  1.0358 -0.0590 -1.5229
  110OSM    C8S11365   6.823   0.565  10.132 -0.2285  0.5383 -0.0964
  110OSM    H8S11366   6.886   0.491  10.079 -2.2694 -0.2477 -1.5270
  110OSM    H8T11367   6.881   0.655  10.164 -4.0344  1.9581  3.8047
  110OSM    C9S11368   6.710   0.599  10.037  0.4328 -1.0164 -0.4638
  110OSM    H9S11369   6.644   0.667  10.095  0.0852 -2.7138  1.1887
  110OSM    H9T11370   6.654   0.510  10.001  0.0242 -0.9375 -0.0340
  110OSM   C10S11371   6.762   0.674   9.911 -0.4511  0.2325 -0.4393
  110OSM   H10S11372   6.839   0.599   9.882 -1.5664 -0.4764 -1.6580
  110OSM   H10T11373   6.803   0.775   9.935 -1.2111  0.6606 -0.8982
  110OSM   C11S11374   6.653   0.664   9.794 -0.2895 -0.1360  0.2477
  110OSM   H11S11375   6.582   0.748   9.809  0.0211  0.0352  0.7552
  110OSM   H11T11376   6.612   0.561   9.802  2.0355 -1.1814 -0.4470
  110OSM   C12S11377   6.723   0.676   9.663 -0.6661  0.5142 -0.2252
  110OSM   H12S11378   6.804   0.600   9.668  0.6355  1.8712  0.2130
  110OSM   H12T11379   6.755   0.782   9.649 -0.4697  0.5115  0.1766
  110OSM   C13S11380   6.642   0.639   9.539  0.1970  0.5718  0.3701
  110OSM   H13S11381   6.542   0.687   9.540  0.5440  1.2992  1.1153
  110OSM   H13T11382   6.617   0.531   9.547  2.3022  0.1410  1.9435
  110OSM   C14S11383   6.715   0.679   9.418 -0.0437 -0.0594 -0.1887
  110OSM   H14S11384   6.800   0.610   9.399  0.5868  0.3303  1.1089
  110OSM   H14T11385   6.775   0.772   9.430 -1.8661  1.2599 -0.7716
  110OSM   C15S11386   6.629   0.680   9.286 -0.0438 -0.2571  0.3996
  110OSM   H15S11387   6.528   0.720   9.306  0.3151  0.1194  1.5184
  110OSM   H15T11388   6.611   0.575   9.254 -2.3104  0.5292 -1.1315
  110OSM   C16S11389   6.707   0.748   9.177 -0.0997  1.2374  0.3071
  110OSM   H16S11390   6.800   0.688   9.170  0.3618  2.0942 -1.7260
  110OSM   H16T11391   6.737   0.855   9.189  4.3433  0.0654  1.3791
  110OSM   C17S11392   6.636   0.728   9.037  0.0243 -0.2325 -0.2477
  110OSM   H17S11393   6.538   0.778   9.051  0.7184  0.6809  2.0097
  110OSM   H17T11394   6.621   0.621   9.014  0.2099  0.0435 -1.7743
  110OSM   C18S11395   6.724   0.786   8.923  0.2205 -0.4045 -0.3411
  110OSM   H18S11396   6.752   0.893   8.940 -0.0245  0.1158 -2.8696
  110OSM   H18T11397   6.671   0.782   8.826 -0.2834  0.3893 -0.1173
  110OSM   H18U11398   6.807   0.714   8.913  0.3791  0.0021 -2.2129
  110OSM    C1F11399   6.283   0.139  10.438  0.2748  0.3827  0.0580
  110OSM     OF11400   6.166   0.188  10.448  0.0463 -0.1475 -0.6772
  110OSM    C2F11401   6.311   0.008  10.367  0.3327 -0.2114  0.0786
  110OSM    H2F11402   6.266  -0.065  10.438  1.6278 -0.6538  0.4730
  110OSM    H2G11403   6.421   0.000  10.364  0.2329 -3.4370  0.5550
  110OSM    C3F11404   6.254   0.010  10.226  0.1432  0.3392  0.8171
  110OSM    H3F11405   6.146   0.037  10.218 -0.0372 -0.6333 -0.2041
  110OSM    H3G11406   6.276  -0.093  10.191  0.6855 -0.1434  2.5043
  110OSM    C4F11407   6.330   0.104  10.136  0.1382 -0.2763  0.5674
  110OSM    H4F11408   6.434   0.068  10.125  0.2385  0.3844 -0.9782
  110OSM    H4G11409   6.331   0.206  10.178  1.1776 -0.5070  1.1464
  110OSM    C5F11410   6.267   0.124   9.995 -0.0063  0.1666 -0.1986
  110OSM    H5F11411   6.174   0.183  10.002  0.2161  0.9182 -2.5244
  110OSM    H5G11412   6.244   0.026   9.948  0.1542 -1.4241  2.7850
  110OSM    C6F11413   6.369   0.194   9.902  0.6604  0.5779 -0.2121
  110OSM    H6F11414   6.451   0.130   9.865  0.3138 -0.2443  0.4195
  110OSM    H6G11415   6.414   0.276   9.962  0.7053 -1.2095  2.3720
  110OSM    C7F11416   6.296   0.265   9.784  0.3873  0.1306 -0.3761
  110OSM    H7F11417   6.201   0.314   9.814  0.0825 -1.1711  0.8507
  110OSM    H7G11418   6.282   0.185   9.709  0.4432  0.2626 -0.5295
  110OSM    C8F11419   6.383   0.375   9.711 -0.1543  0.3288 -0.4754
  110OSM    H8F11420   6.480   0.325   9.692  0.3030  0.5311  1.1676
  110OSM    H8G11421   6.407   0.460   9.778 -0.2700 -0.9536  1.2559
  110OSM    C9F11422   6.314   0.437   9.595  0.0025  0.2594 -0.6964
  110OSM    H9F11423   6.255   0.526   9.620 -1.8635 -1.1719  0.2302
  110OSM   C10F11424   6.325   0.394   9.466  0.1459  0.0627  0.3139
  110OSM   H10F11425   6.258   0.441   9.392  0.9857 -0.2716 -0.6817
  110OSM   C11F11426   6.394   0.276   9.403 -1.0714 -0.5679 -0.5352
  110OSM   H11F11427   6.329   0.238   9.321 -0.3053  0.4479 -1.6471
  110OSM   H11G11428   6.380   0.193   9.476  2.3136 -0.1448  0.7637
  110OSM   C12F11429   6.535   0.308   9.355 -0.1721 -0.3811 -1.2092
  110OSM   H12F11430   6.604   0.348   9.432 -2.2762 -0.4977  0.8378
  110OSM   H12G11431   6.528   0.388   9.277  1.1074  3.0142  1.8568
  110OSM   C13F11432   6.595   0.186   9.288 -0.0542 -0.8108  0.1581
  110OSM   H13F11433   6.535   0.165   9.197  1.4866  0.3294 -1.1890
  110OSM   H13G11434   6.591   0.098   9.356  0.8666 -0.4626  0.6784
  110OSM   C14F11435   6.742   0.209   9.235  0.4735 -0.6155  0.0492
  110OSM   H14F11436   6.807   0.229   9.323  2.1407  0.0578 -1.2905
  110OSM   H14G11437   6.754   0.305   9.182 -1.6436 -0.9101 -1.0854
  110OSM   C15F11438   6.790   0.096   9.138  0.2584 -0.0333 -0.7501
  110OSM   H15F11439   6.747  -0.002   9.168 -2.1049  0.9022 -0.8722
  110OSM   H15G11440   6.899   0.098   9.120  0.5159  2.2360  0.6101
  110OSM   C16F11441   6.740   0.121   8.996 -0.1721  0.1655 -0.0640
  110OSM   H16F11442   6.794   0.209   8.954 -0.0956  0.3587  0.4361
  110OSM   H16G11443   6.634   0.153   9.003 -0.5783 -0.7693 -1.5389
  110OSM   C17F11444   6.760   0.000   8.904 -0.5748  0.1804 -0.1223
  110OSM   H17F11445   6.729   0.032   8.801  0.5634  0.9788 -0.2361
  110OSM   H17G11446   6.688  -0.077   8.939 -0.1374 -0.6691 -1.0529
  110OSM   C18F11447   6.907  -0.062   8.884  0.2189 -1.1271 -0.0605
  110OSM   H18F11448   6.967  -0.081   8.975  1.8706  1.6656 -0.4403
  110OSM   H18G11449   6.974   0.005   8.826 -0.6408 -0.7913 -0.6958
  110OSM   H18H11450   6.907  -0.160   8.831  0.0910 -1.0940 -0.1221
  111OSM      N11451   0.614   3.546  11.457 -0.4360 -0.4940 -0.2118
  111OSM    C1511452   0.540   3.580  11.577 -0.3021 -0.7485 -0.2914
  111OSM   H15A11453   0.617   3.593  11.651  0.4545  0.7111 -1.2915
  111OSM   H15B11454   0.478   3.497  11.609 -3.4915  1.3280 -0.5890
  111OSM   H15C11455   0.478   3.668  11.582  1.5198  0.5160  1.6000
  111OSM    C1411456   0.697   3.662  11.419  1.2638  0.0945 -0.0560
  111OSM   H14A11457   0.745   3.642  11.325 -0.1241  0.4752 -0.8754
  111OSM   H14B11458   0.781   3.682  11.484  2.5229  0.5033 -1.7282
  111OSM   H14C11459   0.638   3.752  11.422 -0.6037 -1.0953  0.9700
  111OSM    C1311460   0.692   3.425  11.496  0.1398 -0.0177  0.0035
  111OSM   H13A11461   0.747   3.383  11.414  2.8383 -0.4110  1.8857
  111OSM   H13B11462   0.622   3.349  11.525  1.6298 -1.2472  0.5030
  111OSM   H13C11463   0.760   3.450  11.576 -1.9617  1.0675  1.5725
  111OSM    C1211464   0.525   3.510  11.343 -0.1857 -0.3232  0.0149
  111OSM   H12A11465   0.476   3.601  11.311  0.5628  1.3757  3.2845
  111OSM   H12B11466   0.444   3.451  11.384  1.0691 -2.0453  0.1047
  111OSM    C1111467   0.577   3.454  11.211  0.1917  0.8055 -0.4137
  111OSM   H11A11468   0.648   3.531  11.175 -0.4624  1.3187 -0.6120
  111OSM   H11B11469   0.492   3.436  11.141 -0.6184 -0.3692  0.8071
  111OSM      P11470   0.738   3.271  11.120 -0.0538  0.3345 -0.4610
  111OSM    O1311471   0.876   3.291  11.163  0.8565  0.1911  0.3841
  111OSM    O1411472   0.709   3.131  11.080 -0.1370  0.5294  0.1731
  111OSM    O1111473   0.702   3.377  11.004  0.0064 -0.0393  0.7186
  111OSM    O1211474   0.644   3.321  11.228 -0.1962 -0.1614  0.5205
  111OSM    C1S11475   0.791   3.398  10.887  0.1710  0.0942 -0.5920
  111OSM    H1S11476   0.838   3.301  10.862 -0.4637  0.2825 -2.7294
  111OSM    H1T11477   0.873   3.472  10.900  0.5023 -0.2659 -0.6510
  111OSM     NF11478   0.801   3.428  10.643  0.1723 -0.0000 -0.0361
  111OSM    HNF11479   0.849   3.506  10.603 -0.2149  0.2647  0.0031
  111OSM    C2S11480   0.714   3.447  10.756 -0.1427 -0.8291  0.2019
  111OSM    H2S11481   0.631   3.376  10.738  0.2756 -1.3754  0.3998
  111OSM    C3S11482   0.660   3.589  10.767 -0.0878 -0.2682  0.0023
  111OSM    H3S11483   0.739   3.667  10.766 -1.8943  1.6383 -0.9387
  111OSM     O311484   0.592   3.615  10.895 -0.0447  0.0316  0.2967
  111OSM    HO311485   0.636   3.546  10.946  4.5022  1.3142 -1.4187
  111OSM    C4S11486   0.570   3.616  10.649  0.1859 -0.0330  0.6823
  111OSM    H4S11487   0.619   3.657  10.559 -2.3020  3.1655  0.5922
  111OSM    C5S11488   0.438   3.600  10.647 -0.1286  1.0170  0.6416
  111OSM    H5S11489   0.388   3.568  10.740  3.6222 -1.2249  2.0980
  111OSM    C6S11490   0.353   3.634  10.527  0.2018  0.2650  0.1611
  111OSM    H6S11491   0.255   3.585  10.543  0.1399  0.8267  1.6750
  111OSM    H6T11492   0.400   3.597  10.433  0.7037  1.1440  0.0557
  111OSM    C7S11493   0.344   3.785  10.495  0.1585  0.2077 -0.2128
  111OSM    H7S11494   0.444   3.833  10.501  0.0615  0.4280 -0.3183
  111OSM    H7T11495   0.279   3.836  10.569 -0.0267  2.2438 -1.6750
  111OSM    C8S11496   0.281   3.814  10.355  0.0523 -0.0494  0.1552
  111OSM    H8S11497   0.200   3.742  10.331  1.2711 -1.2859 -0.4441
  111OSM    H8T11498   0.356   3.776  10.282 -1.5030 -0.7711 -1.1123
  111OSM    C9S11499   0.253   3.961  10.328  0.7201 -0.2123  0.2723
  111OSM    H9S11500   0.309   4.032  10.391  0.4537  1.7523 -1.5926
  111OSM    H9T11501   0.153   3.983  10.372  1.3615  0.8545  1.2653
  111OSM   C10S11502   0.249   3.999  10.179 -0.7548 -0.2235 -0.8794
  111OSM   H10S11503   0.229   4.106  10.157 -1.1244 -0.0905  0.0911
  111OSM   H10T11504   0.173   3.931  10.134 -1.5375  0.2396 -0.2737
  111OSM   C11S11505   0.380   3.979  10.104  0.4996 -0.4817 -0.5122
  111OSM   H11S11506   0.404   3.871  10.097  1.3497 -0.4099  0.9459
  111OSM   H11T11507   0.449   4.044  10.162 -1.4050  1.8688 -0.7251
  111OSM   C12S11508   0.377   4.036   9.960  0.7748 -0.4937  0.1403
  111OSM   H12S11509   0.360   4.145   9.974 -2.1966 -0.8020 -0.3873
  111OSM   H12T11510   0.290   3.999   9.901  0.8084  1.3650 -1.1430
  111OSM   C13S11511   0.505   4.005   9.877 -0.0083 -0.6332 -0.0634
  111OSM   H13S11512   0.595   3.976   9.936  1.1774 -1.4962 -2.1564
  111OSM   H13T11513   0.530   4.097   9.821 -0.0534 -0.9760 -0.6625
  111OSM   C14S11514   0.481   3.885   9.780  0.1270  0.6349 -0.7585
  111OSM   H14S11515   0.407   3.905   9.699 -0.4733  2.3519  0.1753
  111OSM   H14T11516   0.445   3.797   9.837  1.9356 -0.6101 -1.4336
  111OSM   C15S11517   0.600   3.847   9.694  0.4851 -0.0201 -1.1860
  111OSM   H15S11518   0.687   3.809   9.752 -0.2552 -1.7990 -1.1619
  111OSM   H15T11519   0.622   3.936   9.632 -0.8104  1.9880  1.0711
  111OSM   C16S11520   0.564   3.721   9.606 -0.0607 -0.2964  0.5198
  111OSM   H16S11521   0.475   3.752   9.546  0.2268 -0.7029 -0.1181
  111OSM   H16T11522   0.546   3.623   9.656 -3.6452  0.1660  0.4269
  111OSM   C17S11523   0.678   3.701   9.496  0.5362 -0.4487 -0.1600
  111OSM   H17S11524   0.767   3.709   9.563  0.3281  1.4194 -0.0682
  111OSM   H17T11525   0.691   3.793   9.436  2.8586 -1.2382 -0.9916
  111OSM   C18S11526   0.680   3.580   9.412  0.3382 -0.0374  0.2640
  111OSM   H18S11527   0.701   3.598   9.304 -2.5559 -1.9348 -0.7309
  111OSM   H18T11528   0.591   3.514   9.415 -0.0675  0.4971  0.2504
  111OSM   H18U11529   0.754   3.506   9.448  0.7595 -0.5920 -1.6042
  111OSM    C1F11530   0.807   3.302  10.595 -1.3676 -0.6270  0.4246
  111OSM     OF11531   0.739   3.212  10.638  0.3722  0.2148 -0.7703
  111OSM    C2F11532   0.910   3.279  10.487  0.3858 -0.0417  0.1233
  111OSM    H2F11533   1.008   3.315  10.525  0.5255 -0.5917  0.2934
  111OSM    H2G11534   0.889   3.330  10.391 -0.5790  2.3182  1.5088
  111OSM    C3F11535   0.929   3.134  10.467 -1.2850 -0.3389 -0.1261
  111OSM    H3F11536   0.832   3.095  10.431 -1.8478 -3.2909  3.9354
  111OSM    H3G11537   0.943   3.081  10.563 -0.2967 -0.7678 -0.4847
  111OSM    C4F11538   1.032   3.092  10.371  0.6893  0.0847  1.1050
  111OSM    H4F11539   1.040   2.981  10.365 -0.6553 -0.1172  2.5462
  111OSM    H4G11540   1.137   3.116  10.402  1.0131  0.9656 -0.5812
  111OSM    C5F11541   1.012   3.138  10.228 -0.0345 -0.8640 -0.4954
  111OSM    H5F11542   1.016   3.248  10.213 -1.3447 -0.8566 -0.9296
  111OSM    H5G11543   0.911   3.108  10.191 -0.0991 -0.5662 -0.5626
  111OSM    C6F11544   1.108   3.070  10.130  0.3884  0.2464 -0.2571
  111OSM    H6F11545   1.079   2.963  10.134 -0.7994  0.4549 -2.1818
  111OSM    H6G11546   1.214   3.074  10.165  0.1513  0.0047  0.5183
  111OSM    C7F11547   1.092   3.122   9.988 -0.1371  0.1422 -0.2641
  111OSM    H7F11548   0.982   3.132   9.972 -0.6139  0.9856  2.9490
  111OSM    H7G11549   1.124   3.046   9.913  0.4133  0.0196  0.0909
  111OSM    C8F11550   1.169   3.250   9.967 -0.6173 -0.1605  0.7534
  111OSM    H8F11551   1.258   3.213   9.913 -1.6304 -1.3451 -0.1525
  111OSM    H8G11552   1.195   3.308  10.058  3.0319 -1.4487  0.6932
  111OSM    C9F11553   1.090   3.341   9.879  0.2617  0.5519  0.0142
  111OSM    H9F11554   1.008   3.399   9.923 -0.1581  0.2431 -0.3579
  111OSM   C10F11555   1.116   3.369   9.752 -0.8059  0.0145  0.2903
  111OSM   H10F11556   1.047   3.433   9.695  0.0279  0.4297 -0.2698
  111OSM   C11F11557   1.233   3.329   9.656  0.2828 -0.0175 -1.4293
  111OSM   H11F11558   1.316   3.269   9.699  0.5784  0.9449 -0.6204
  111OSM   H11G11559   1.280   3.428   9.639  0.7120  0.3494  1.4417
  111OSM   C12F11560   1.186   3.272   9.523  0.6675 -0.3795 -0.5044
  111OSM   H12F11561   1.125   3.344   9.465 -1.1884 -1.3051  0.2134
  111OSM   H12G11562   1.126   3.181   9.544 -3.9468  2.6382  0.6091
  111OSM   C13F11563   1.311   3.228   9.437  0.6812 -0.6615 -0.0230
  111OSM   H13F11564   1.273   3.159   9.358 -0.0848 -0.0051 -0.2465
  111OSM   H13G11565   1.384   3.166   9.493  1.1901  0.0232  0.0847
  111OSM   C14F11566   1.389   3.346   9.381 -0.0779 -0.8159  0.4542
  111OSM   H14F11567   1.431   3.401   9.469  1.2814 -3.2792  1.4352
  111OSM   H14G11568   1.331   3.418   9.320 -1.4882  0.6342  3.3047
  111OSM   C15F11569   1.512   3.294   9.306  0.0845  0.4361  0.1055
  111OSM   H15F11570   1.564   3.212   9.358 -1.0438 -1.1877 -1.1972
  111OSM   H15G11571   1.584   3.378   9.303  0.3489  0.2122  0.1761
  111OSM   C16F11572   1.464   3.249   9.162 -0.2301  0.1396  0.1131
  111OSM   H16F11573   1.472   3.335   9.093  1.5770 -0.9511 -1.1031
  111OSM   H16G11574   1.360   3.210   9.164  0.4091 -1.6566  1.7409
  111OSM   C17F11575   1.561   3.147   9.090  0.0746 -0.6337  0.0202
  111OSM   H17F11576   1.556   3.049   9.143 -1.9810  0.1969  1.5061
  111OSM   H17G11577   1.667   3.175   9.109  0.0189 -1.4169  1.7073
  111OSM   C18F11578   1.530   3.116   8.946 -0.0476  1.2271  0.6322
  111OSM   H18F11579   1.428   3.073   8.944  0.8515 -1.0571  0.9882
  111OSM   H18G11580   1.607   3.042   8.915  1.3016  3.7468 -2.6691
  111OSM   H18H11581   1.540   3.204   8.879  4.5219 -0.3268 -1.0813
  112OSM      N11582   1.124   1.882  11.095  0.1873 -0.8640  0.2917
  112OSM    C1511583   1.256   1.900  11.164 -0.3902  1.1626  0.2538
  112OSM   H15A11584   1.325   1.824  11.130 -0.0632  1.3354  0.5276
  112OSM   H15B11585   1.245   1.881  11.270  1.3609  0.2977  0.3112
  112OSM   H15C11586   1.293   1.999  11.141 -1.5625  1.9664  1.6316
  112OSM    C1411587   1.025   1.964  11.168  0.0016 -0.1018  0.5922
  112OSM   H14A11588   0.920   1.951  11.146  0.2216  0.4742 -0.9001
  112OSM   H14B11589   1.036   2.068  11.141 -0.3148 -0.3464 -0.5345
  112OSM   H14C11590   1.035   1.952  11.275  1.7653  0.8956  0.5693
  112OSM    C1311591   1.135   1.921  10.956 -0.2405  0.3203  0.6488
  112OSM   H13A11592   1.044   1.892  10.905  0.2587 -0.9274  0.4302
  112OSM   H13B11593   1.217   1.867  10.911  0.0915  0.7895  0.6750
  112OSM   H13C11594   1.142   2.028  10.940 -1.3135  0.3646  0.4266
  112OSM    C1211595   1.085   1.735  11.113 -0.5443  0.5117 -0.0491
  112OSM   H12A11596   1.162   1.678  11.062  1.5044  1.6014  1.6293
  112OSM   H12B11597   0.992   1.718  11.061  0.4569 -1.3798 -1.3560
  112OSM    C1111598   1.068   1.674  11.256 -0.4846 -0.1875  0.1741
  112OSM   H11A11599   1.166   1.692  11.306 -0.1764 -1.8624  0.2357
  112OSM   H11B11600   1.071   1.565  11.237  1.3692 -0.1073 -0.1843
  112OSM      P11601   0.818   1.656  11.325 -0.5868 -0.2869 -0.1611
  112OSM    O1311602   0.796   1.552  11.431  0.0089 -0.3443 -0.1838
  112OSM    O1411603   0.724   1.771  11.319  0.7496 -0.4251  0.5393
  112OSM    O1111604   0.824   1.579  11.189  0.0952  0.5905  0.0892
  112OSM    O1211605   0.963   1.720  11.333 -0.3221 -0.7494 -0.0688
  112OSM    C1S11606   0.741   1.623  11.078 -0.0270  0.1375  0.4894
  112OSM    H1S11607   0.751   1.733  11.065 -0.4645  0.0441 -0.8347
  112OSM    H1T11608   0.632   1.604  11.077 -0.0539  0.2880 -0.5381
  112OSM     NF11609   0.757   1.625  10.826 -0.0660  0.4033  0.4374
  112OSM    HNF11610   0.700   1.579  10.758  0.0235  0.7206  0.1464
  112OSM    C2S11611   0.799   1.553  10.946  0.1725  0.0783  0.3716
  112OSM    H2S11612   0.908   1.562  10.963  0.1037 -0.6046  1.2603
  112OSM    C3S11613   0.757   1.402  10.949 -0.1334 -0.5136 -0.2819
  112OSM    H3S11614   0.648   1.389  10.934 -0.8287  2.4176  1.3393
  112OSM     O311615   0.773   1.344  11.084 -0.1607 -0.1890 -0.1571
  112OSM    HO311616   0.809   1.420  11.131 -1.3077  0.9025 -0.9707
  112OSM    C4S11617   0.835   1.327  10.843 -0.7726  0.3322  0.4669
  112OSM    H4S11618   0.801   1.335  10.738 -2.5108 -0.8900  0.8865
  112OSM    C5S11619   0.932   1.230  10.867  0.3053 -0.1332  0.4286
  112OSM    H5S11620   0.936   1.200  10.973 -1.5861 -0.9622  0.2981
  112OSM    C6S11621   1.016   1.160  10.760 -0.0180  0.4155 -0.1790
  112OSM    H6S11622   0.992   1.052  10.768 -1.2277  0.8030  2.6869
  112OSM    H6T11623   1.123   1.177  10.785  0.0060  0.4137 -0.2797
  112OSM    C7S11624   0.981   1.211  10.619 -0.4107  0.1029  0.3990
  112OSM    H7S11625   0.986   1.322  10.622 -0.5561  0.2364 -2.3186
  112OSM    H7T11626   0.880   1.173  10.591  1.0266 -1.6380 -3.0305
  112OSM    C8S11627   1.084   1.173  10.510  0.4130  0.5612 -0.3116
  112OSM    H8S11628   1.088   1.062  10.507  1.1509  0.6032 -1.0617
  112OSM    H8T11629   1.181   1.214  10.546  1.3544 -1.7085 -0.1202
  112OSM    C9S11630   1.038   1.227  10.378  0.2471 -0.1848  0.0863
  112OSM    H9S11631   1.021   1.336  10.391  1.6516  0.1493 -0.6861
  112OSM    H9T11632   0.932   1.196  10.365  0.2427 -0.3157  0.4075
  112OSM   C10S11633   1.121   1.214  10.257  0.1740  0.2600  0.0176
  112OSM   H10S11634   1.142   1.106  10.238 -1.9254 -0.1623 -0.1226
  112OSM   H10T11635   1.217   1.264  10.284 -1.3029  1.5476  3.4894
  112OSM   C11S11636   1.063   1.279  10.130 -0.3063 -0.5180 -0.2791
  112OSM   H11S11637   1.064   1.388  10.154  0.0993 -0.8570  1.3597
  112OSM   H11T11638   0.957   1.248  10.121 -0.5036 -0.1547  0.6442
  112OSM   C12S11639   1.147   1.255  10.011  0.0859  0.2256  0.1433
  112OSM   H12S11640   1.137   1.150   9.976  1.4298  0.5380 -1.3127
  112OSM   H12T11641   1.254   1.267  10.041 -0.2953 -1.2193  2.3408
  112OSM   C13S11642   1.118   1.352   9.892  0.3772  0.7160  1.7656
  112OSM   H13S11643   1.156   1.456   9.907  0.0061  1.4288 -1.4507
  112OSM   H13T11644   1.010   1.354   9.868  1.0672  0.5831 -2.0002
  112OSM   C14S11645   1.192   1.310   9.763  0.0364 -0.0782  0.1365
  112OSM   H14S11646   1.182   1.201   9.742  0.9210  0.0629 -1.1746
  112OSM   H14T11647   1.301   1.311   9.782 -0.0573 -1.5181  0.8905
  112OSM   C15S11648   1.155   1.385   9.629  0.7352 -0.2778  0.3108
  112OSM   H15S11649   1.211   1.481   9.627  0.5778 -0.1943 -0.6257
  112OSM   H15T11650   1.047   1.407   9.643  0.8908  0.1371  0.9232
  112OSM   C16S11651   1.171   1.304   9.496  0.1010  0.1266  0.6958
  112OSM   H16S11652   1.150   1.370   9.409  1.3601  0.0115  0.2769
  112OSM   H16T11653   1.098   1.221   9.500  1.0625 -0.8663 -1.1334
  112OSM   C17S11654   1.309   1.227   9.475 -0.1263 -0.4210  0.5967
  112OSM   H17S11655   1.303   1.169   9.381 -1.1039 -1.5607  1.3374
  112OSM   H17T11656   1.311   1.166   9.567  0.4141 -0.0687  0.8281
  112OSM   C18S11657   1.438   1.324   9.476  1.0659  0.4189  0.6700
  112OSM   H18S11658   1.532   1.264   9.470  0.0741 -1.1797  0.6151
  112OSM   H18T11659   1.439   1.380   9.572  1.4738  0.3832  0.6896
  112OSM   H18U11660   1.437   1.403   9.398  0.4948 -0.1625  0.0764
  112OSM    C1F11661   0.800   1.748  10.799 -0.2264  0.4793  0.3434
  112OSM     OF11662   0.866   1.817  10.877 -0.4430  0.2962 -0.0471
  112OSM    C2F11663   0.754   1.795  10.660  0.8837  0.6418 -0.8411
  112OSM    H2F11664   0.665   1.850  10.696  0.5610 -0.0191 -0.6169
  112OSM    H2G11665   0.726   1.708  10.597  0.9794 -0.4119  0.5143
  112OSM    C3F11666   0.846   1.896  10.599 -0.1638 -0.0680  0.6661
  112OSM    H3F11667   0.947   1.851  10.588 -0.0174  0.6494 -1.2410
  112OSM    H3G11668   0.858   1.980  10.670 -0.8262  2.3260 -1.8567
  112OSM    C4F11669   0.790   1.942  10.464  0.5055 -0.1659 -0.4675
  112OSM    H4F11670   0.690   1.986  10.486  0.9911  1.9155 -2.1518
  112OSM    H4G11671   0.762   1.844  10.418  1.3688 -0.8807  0.5064
  112OSM    C5F11672   0.879   2.021  10.377 -0.3974 -0.5722 -0.0031
  112OSM    H5F11673   0.959   1.957  10.333 -1.5638 -0.1632 -2.9078
  112OSM    H5G11674   0.926   2.096  10.443 -1.0314  0.9235 -1.1902
  112OSM    C6F11675   0.805   2.092  10.264 -0.2108  0.7693  0.9602
  112OSM    H6F11676   0.737   2.163  10.316  0.6743  1.8853  0.6380
  112OSM    H6G11677   0.761   2.010  10.204  0.5151  0.7356  0.4557
  112OSM    C7F11678   0.894   2.190  10.184 -0.3183 -0.6604 -0.2053
  112OSM    H7F11679   0.987   2.148  10.139  2.4723  1.9934  2.5484
  112OSM    H7G11680   0.940   2.266  10.251  0.6158 -0.2112 -1.3149
  112OSM    C8F11681   0.819   2.269  10.073 -0.0200  0.0419 -0.3185
  112OSM    H8F11682   0.890   2.337  10.021 -1.3329  1.0138 -0.9044
  112OSM    H8G11683   0.747   2.329  10.132  0.3818 -1.1613  1.4802
  112OSM    C9F11684   0.750   2.175   9.977 -0.1205 -0.5578 -0.7617
  112OSM    H9F11685   0.681   2.109  10.031  0.3903  0.5995  1.4187
  112OSM   C10F11686   0.784   2.163   9.849 -0.2646  0.2684 -0.0783
  112OSM   H10F11687   0.729   2.085   9.794 -2.0031  0.4714  1.3021
  112OSM   C11F11688   0.891   2.242   9.769 -0.1146  0.2481  0.3340
  112OSM   H11F11689   0.987   2.188   9.750 -0.9320 -0.6547 -1.4252
  112OSM   H11G11690   0.914   2.334   9.828 -2.2345  0.9299  0.1658
  112OSM   C12F11691   0.836   2.290   9.638  0.7623  0.5662  0.2804
  112OSM   H12F11692   0.912   2.361   9.602  1.5884 -0.2137  0.4343
  112OSM   H12G11693   0.737   2.337   9.650  0.5417  0.7925 -2.0136
  112OSM   C13F11694   0.829   2.191   9.517  0.0718 -0.1793  0.5245
  112OSM   H13F11695   0.784   2.100   9.561 -0.9125  0.8223  1.6749
  112OSM   H13G11696   0.933   2.170   9.485  1.1289  0.6309  3.0999
  112OSM   C14F11697   0.735   2.227   9.403  0.6571  0.5345  0.0972
  112OSM   H14F11698   0.749   2.334   9.374  0.9810  0.7258  0.9095
  112OSM   H14G11699   0.629   2.211   9.430  0.1114  3.0033 -0.2772
  112OSM   C15F11700   0.760   2.136   9.281 -0.1989  0.0557  0.3724
  112OSM   H15F11701   0.747   2.030   9.313  1.0094  0.6846  3.2157
  112OSM   H15G11702   0.866   2.142   9.248 -0.1207 -3.1170 -0.2750
  112OSM   C16F11703   0.662   2.165   9.168 -0.0260 -0.2318 -0.6862
  112OSM   H16F11704   0.642   2.267   9.129 -1.8899  0.5702  2.0369
  112OSM   H16G11705   0.562   2.139   9.210  0.4213 -0.9734 -0.0539
  112OSM   C17F11706   0.680   2.064   9.050  0.2242  0.1361 -0.3383
  112OSM   H17F11707   0.783   2.089   9.017  0.6966 -2.4510 -0.9924
  112OSM   H17G11708   0.606   2.083   8.969  3.1577  1.0817 -2.9656
  112OSM   C18F11709   0.681   1.912   9.079  0.2381  0.7179  0.5717
  112OSM   H18F11710   0.676   1.854   8.984  0.2070 -2.3873  2.3377
  112OSM   H18G11711   0.589   1.888   9.137 -1.2575  1.3557 -1.4003
  112OSM   H18H11712   0.769   1.866   9.129 -0.3084  0.2022  1.0981
  113OSM      N11713   4.226   6.557  11.409 -0.1975  0.1594 -0.1103
  113OSM    C1511714   4.246   6.438  11.321 -0.0707  0.0376 -0.6994
  113OSM   H15A11715   4.229   6.347  11.377 -0.1477  0.4178 -0.1044
  113OSM   H15B11716   4.340   6.443  11.269  0.0144  1.2005 -0.4463
  113OSM   H15C11717   4.173   6.431  11.242 -0.9489 -0.5824  0.1380
  113OSM    C1411718   4.084   6.546  11.460 -0.0342 -0.2459  0.0159
  113OSM   H14A11719   4.004   6.525  11.391 -0.7672 -0.8519  1.0161
  113OSM   H14B11720   4.052   6.636  11.511 -2.6180 -0.9009 -0.3127
  113OSM   H14C11721   4.077   6.466  11.533  3.9907  0.5179  1.5332
  113OSM    C1311722   4.327   6.558  11.527 -0.4643 -0.1301  0.0187
  113OSM   H13A11723   4.308   6.640  11.595  1.4072 -0.7746  1.3809
  113OSM   H13B11724   4.424   6.568  11.481 -1.1963  3.4187 -1.1051
  113OSM   H13C11725   4.316   6.470  11.588 -1.0590 -0.7628 -0.9628
  113OSM    C1211726   4.231   6.684  11.320  0.4178 -0.5903 -0.4146
  113OSM   H12A11727   4.169   6.671  11.233  0.8449  1.9201 -1.1596
  113OSM   H12B11728   4.334   6.698  11.289  0.5665 -0.0790  0.2879
  113OSM    C1111729   4.183   6.814  11.381 -0.6796  0.2843 -0.3619
  113OSM   H11A11730   4.216   6.900  11.318 -0.9296  0.2768 -0.5010
  113OSM   H11B11731   4.235   6.839  11.477 -0.2231 -0.8426 -0.3017
  113OSM      P11732   3.950   6.928  11.367 -0.1960  0.4708 -0.0617
  113OSM    O1311733   3.815   6.885  11.408  0.1111  0.1695  0.5767
  113OSM    O1411734   4.005   7.050  11.428  0.1915  0.0296  0.1426
  113OSM    O1111735   3.951   6.940  11.209 -0.4063  0.2118 -0.3063
  113OSM    O1211736   4.044   6.811  11.404  0.0731  0.3249  0.2174
  113OSM    C1S11737   3.919   6.822  11.141  0.3517 -0.4864 -0.1571
  113OSM    H1S11738   3.831   6.772  11.187 -1.0580  0.5819 -1.5683
  113OSM    H1T11739   4.011   6.762  11.131  1.5745  1.3981 -0.8998
  113OSM     NF11740   3.834   6.732  10.917  0.8487  0.3574 -0.0129
  113OSM    HNF11741   3.905   6.704  10.853  0.6221 -0.1180 -0.0580
  113OSM    C2S11742   3.865   6.851  10.995  0.2581 -0.3403 -0.4767
  113OSM    H2S11743   3.770   6.908  11.011  1.0610  0.6032  1.2190
  113OSM    C3S11744   3.952   6.960  10.917 -0.3211  0.3260  0.3400
  113OSM    H3S11745   4.045   6.902  10.900 -1.1654 -1.0633  0.2733
  113OSM     O311746   3.999   7.070  10.991  0.7941  0.3906  0.4490
  113OSM    HO311747   3.983   7.045  11.082 -0.6788  1.0276  0.4017
  113OSM    C4S11748   3.884   7.000  10.789 -0.4341  0.1203  0.1281
  113OSM    H4S11749   3.913   6.933  10.706  1.9057  0.7623  0.3571
  113OSM    C5S11750   3.805   7.104  10.772  0.0404  0.0058 -0.8404
  113OSM    H5S11751   3.780   7.163  10.861  0.5410  0.7490 -1.1859
  113OSM    C6S11752   3.728   7.141  10.650  0.1473 -0.3064 -0.1581
  113OSM    H6S11753   3.768   7.240  10.622  1.1898 -0.4271  0.8212
  113OSM    H6T11754   3.617   7.145  10.664 -0.1823 -3.5173 -1.0885
  113OSM    C7S11755   3.757   7.063  10.519  0.1664  0.0349 -0.4430
  113OSM    H7S11756   3.724   6.957  10.530 -2.2720  0.7157 -0.5056
  113OSM    H7T11757   3.865   7.066  10.495  0.3737 -1.5103  0.1714
  113OSM    C8S11758   3.698   7.131  10.400  0.1631 -0.2961  0.0635
  113OSM    H8S11759   3.727   7.238  10.396 -4.1712  1.0392 -2.0201
  113OSM    H8T11760   3.588   7.129  10.409  0.2739 -1.3756  1.5961
  113OSM    C9S11761   3.755   7.077  10.266  0.7887 -0.6286 -0.3053
  113OSM    H9S11762   3.703   6.982  10.238 -1.8549  0.9378 -1.0534
  113OSM    H9T11763   3.862   7.054  10.281  0.8287 -0.8094 -0.8501
  113OSM   C10S11764   3.728   7.187  10.159 -0.9830  0.5332  0.3835
  113OSM   H10S11765   3.787   7.275  10.193  1.4015 -1.5319  1.8682
  113OSM   H10T11766   3.619   7.208  10.150 -1.6055 -1.2386  2.8039
  113OSM   C11S11767   3.782   7.142  10.018  1.7222 -0.1007  0.0879
  113OSM   H11S11768   3.715   7.059   9.985 -0.1805 -0.3848  4.1036
  113OSM   H11T11769   3.888   7.113  10.030  2.1334  1.5114  0.6861
  113OSM   C12S11770   3.782   7.253   9.905 -0.4245  0.4142  0.2423
  113OSM   H12S11771   3.858   7.330   9.932 -1.1083  1.4481 -0.7014
  113OSM   H12T11772   3.682   7.298   9.886 -0.5202  0.0470 -0.1460
  113OSM   C13S11773   3.820   7.190   9.772  0.2755  0.9164  0.1791
  113OSM   H13S11774   3.753   7.103   9.752 -0.0869  0.9215  1.2964
  113OSM   H13T11775   3.925   7.153   9.774 -0.1209 -0.2320  1.6418
  113OSM   C14S11776   3.811   7.286   9.653  0.2407 -0.6307 -0.2460
  113OSM   H14S11777   3.848   7.388   9.674 -0.4368 -0.5048  0.4095
  113OSM   H14T11778   3.703   7.289   9.625 -0.2566 -0.8785  1.5051
  113OSM   C15S11779   3.886   7.241   9.531 -0.6576  0.4005 -0.0018
  113OSM   H15S11780   3.844   7.141   9.504 -0.8975  0.6166 -0.4337
  113OSM   H15T11781   3.995   7.229   9.549 -0.2566 -2.1073 -3.1192
  113OSM   C16S11782   3.859   7.323   9.407  0.1909  0.4240  0.3901
  113OSM   H16S11783   3.902   7.426   9.406 -1.2904  1.0749  0.6558
  113OSM   H16T11784   3.749   7.330   9.394 -0.2213 -0.9877  2.6128
  113OSM   C17S11785   3.908   7.263   9.273  0.7688 -0.0271  1.0403
  113OSM   H17S11786   3.880   7.155   9.271  2.7114 -0.5725  0.8811
  113OSM   H17T11787   4.019   7.255   9.274  0.8607 -0.4492 -1.8782
  113OSM   C18S11788   3.850   7.318   9.140  0.5719  0.0665 -0.0449
  113OSM   H18S11789   3.889   7.269   9.048 -1.1934  1.4518 -1.6077
  113OSM   H18T11790   3.854   7.429   9.142 -1.2428  0.2023  2.9516
  113OSM   H18U11791   3.746   7.278   9.144 -0.8317  3.4254  1.9757
  113OSM    C1F11792   3.744   6.638  10.944  0.0115 -0.9435 -0.1568
  113OSM     OF11793   3.653   6.669  11.023 -0.3648  0.2324 -0.2853
  113OSM    C2F11794   3.763   6.509  10.880  0.1590 -0.1788 -0.0293
  113OSM    H2F11795   3.803   6.441  10.959 -2.2455 -0.7867  0.7354
  113OSM    H2G11796   3.844   6.519  10.805 -0.8334  2.7051 -0.8226
  113OSM    C3F11797   3.636   6.449  10.823 -0.5849  0.1596 -0.0042
  113OSM    H3F11798   3.554   6.449  10.897 -1.0258  0.5818 -0.4807
  113OSM    H3G11799   3.668   6.351  10.781 -1.1470 -0.3185  0.6851
  113OSM    C4F11800   3.588   6.524  10.698  0.6453 -0.1350  0.2293
  113OSM    H4F11801   3.570   6.630  10.724  0.6647  0.0417 -0.4475
  113OSM    H4G11802   3.483   6.496  10.676  0.1570  0.9501  1.1221
  113OSM    C5F11803   3.687   6.510  10.582 -0.2728  0.1245  0.5242
  113OSM    H5F11804   3.709   6.404  10.556  0.7895  0.2238  0.9962
  113OSM    H5G11805   3.783   6.555  10.614  0.6617 -1.2500 -0.2361
  113OSM    C6F11806   3.636   6.591  10.466  0.2768 -0.1933  0.9579
  113OSM    H6F11807   3.604   6.696  10.483 -1.2770 -0.4108 -0.3186
  113OSM    H6G11808   3.548   6.535  10.428  1.4122 -0.2277 -1.8598
  113OSM    C7F11809   3.752   6.585  10.359 -0.0620 -0.6302 -0.1627
  113OSM    H7F11810   3.813   6.495  10.383  0.4054 -0.2653  0.0364
  113OSM    H7G11811   3.812   6.679  10.362 -0.2962 -0.4993  0.8677
  113OSM    C8F11812   3.712   6.575  10.206  0.4096  0.3205  0.1831
  113OSM    H8F11813   3.650   6.487  10.181 -2.5954  1.8413  1.7955
  113OSM    H8G11814   3.803   6.551  10.147  0.7363 -0.2925  0.9212
  113OSM    C9F11815   3.642   6.698  10.167 -0.2418  0.8591  0.0504
  113OSM    H9F11816   3.580   6.750  10.241 -2.2229  1.0298 -1.6168
  113OSM   C10F11817   3.630   6.743  10.043  0.4225 -0.2214  0.5793
  113OSM   H10F11818   3.582   6.841  10.033  0.7571 -0.0872  0.2915
  113OSM   C11F11819   3.675   6.675   9.914  0.1920 -0.0223 -0.1612
  113OSM   H11F11820   3.720   6.574   9.930  0.7711  0.2657  0.0683
  113OSM   H11G11821   3.757   6.733   9.865  1.2121 -0.6838  0.7167
  113OSM   C12F11822   3.551   6.667   9.812  0.4276 -0.4264 -0.0976
  113OSM   H12F11823   3.511   6.771   9.807  0.7204  0.0161  3.8805
  113OSM   H12G11824   3.469   6.604   9.851 -1.0212  1.7421  0.4970
  113OSM   C13F11825   3.581   6.624   9.665 -0.0280  0.3464 -0.1387
  113OSM   H13F11826   3.482   6.611   9.617  0.1300  1.0478 -0.6724
  113OSM   H13G11827   3.638   6.529   9.664  2.6054  1.7587  1.7905
  113OSM   C14F11828   3.652   6.724   9.569  0.4974  0.3269 -0.0007
  113OSM   H14F11829   3.700   6.656   9.495  1.1614  1.0640 -0.2681
  113OSM   H14G11830   3.728   6.773   9.634 -1.4471  1.8707  1.2322
  113OSM   C15F11831   3.561   6.821   9.502 -0.0977  0.0330  0.3424
  113OSM   H15F11832   3.501   6.865   9.584  1.3067  0.7862  1.0013
  113OSM   H15G11833   3.491   6.770   9.433  1.8133 -1.7660 -0.3650
  113OSM   C16F11834   3.635   6.930   9.425 -0.3278 -0.8219 -0.0705
  113OSM   H16F11835   3.666   6.878   9.332 -1.6483 -3.3115  0.7780
  113OSM   H16G11836   3.715   6.969   9.490 -0.5550  2.6802 -1.6616
  113OSM   C17F11837   3.556   7.056   9.385 -0.3643 -0.0362 -0.1415
  113OSM   H17F11838   3.610   7.112   9.306 -1.3683  1.1167 -0.0363
  113OSM   H17G11839   3.542   7.130   9.467 -0.0523  1.1312 -1.1087
  113OSM   C18F11840   3.419   7.009   9.325 -0.2302 -0.5568 -0.3474
  113OSM   H18F11841   3.349   6.961   9.396  0.1692 -2.8823 -1.4522
  113OSM   H18G11842   3.440   6.926   9.254  0.9479 -1.1090  0.6194
  113OSM   H18H11843   3.374   7.089   9.262 -0.8949 -1.3996 -0.9609
  114OSM      N11844   5.527   1.480  11.692  0.1484  0.3483 -0.0984
  114OSM    C1511845   5.670   1.439  11.698  0.1271  0.5117  0.6005
  114OSM   H15A11846   5.686   1.333  11.685  0.2598  0.7404 -1.3420
  114OSM   H15B11847   5.728   1.484  11.777 -0.5128  0.1832  1.2689
  114OSM   H15C11848   5.718   1.481  11.611 -0.1822  0.2057  0.2821
  114OSM    C1411849   5.454   1.399  11.799  0.6616  0.3694  0.3276
  114OSM   H14A11850   5.460   1.293  11.779 -0.6148 -0.1355  2.3068
  114OSM   H14B11851   5.349   1.423  11.810  0.4686  0.0115 -0.5471
  114OSM   H14C11852   5.502   1.419  11.893 -0.6866 -1.4162  1.4614
  114OSM    C1311853   5.511   1.624  11.699 -0.1107  0.0090  0.8424
  114OSM   H13A11854   5.413   1.669  11.697 -0.2172 -0.2174  0.9314
  114OSM   H13B11855   5.562   1.665  11.613 -1.7685 -2.3949 -1.4498
  114OSM   H13C11856   5.563   1.653  11.789 -0.4655  1.8806  0.4893
  114OSM    C1211857   5.476   1.430  11.554  0.4347  1.0168  0.2360
  114OSM   H12A11858   5.368   1.421  11.564  0.7210 -1.5823  2.1174
  114OSM   H12B11859   5.510   1.331  11.528 -1.0295  0.4464  0.3657
  114OSM    C1111860   5.512   1.508  11.429  0.6254 -0.2357  0.3705
  114OSM   H11A11861   5.484   1.615  11.443  0.9903 -0.2928  1.6250
  114OSM   H11B11862   5.464   1.486  11.331  1.3311 -1.8978  0.3672
  114OSM      P11863   5.707   1.389  11.336  0.0478 -0.1167  0.0610
  114OSM    O1311864   5.849   1.400  11.304 -0.0966  0.3931  0.2053
  114OSM    O1411865   5.667   1.263  11.402  0.1475 -0.5697 -0.2972
  114OSM    O1111866   5.634   1.402  11.194  0.0925  0.1031  0.4911
  114OSM    O1211867   5.653   1.514  11.411  0.4350  0.1318 -0.1823
  114OSM    C1S11868   5.671   1.510  11.106 -0.1892  0.1367 -0.6773
  114OSM    H1S11869   5.740   1.582  11.155 -0.0731  0.6280 -1.5334
  114OSM    H1T11870   5.584   1.561  11.061 -0.9200 -0.2679  0.2503
  114OSM     NF11871   5.791   1.572  10.902  0.5491  0.3795  0.6527
  114OSM    HNF11872   5.734   1.595  10.823  1.6813  0.0122 -0.3100
  114OSM    C2S11873   5.744   1.457  10.977  0.3409  0.3393 -0.5431
  114OSM    H2S11874   5.833   1.401  11.014 -1.2567 -2.6374 -0.9032
  114OSM    C3S11875   5.658   1.353  10.906 -0.4094 -0.0963  0.9351
  114OSM    H3S11876   5.571   1.400  10.855 -2.0330 -1.7787  2.0181
  114OSM     O311877   5.591   1.251  10.981  0.5063  0.6494 -0.0018
  114OSM    HO311878   5.592   1.285  11.071  2.5648  1.3385 -0.2237
  114OSM    C4S11879   5.742   1.290  10.792  0.2303 -0.3390 -0.0648
  114OSM    H4S11880   5.742   1.345  10.697 -1.7501  0.6496  0.4559
  114OSM    C5S11881   5.809   1.172  10.794  0.0621 -0.1957  0.0520
  114OSM    H5S11882   5.806   1.107  10.883  2.7229 -0.6535 -0.1259
  114OSM    C6S11883   5.891   1.115  10.684 -0.3659  0.0494 -0.0727
  114OSM    H6S11884   5.827   1.107  10.593  0.0755  1.9494 -0.5925
  114OSM    H6T11885   5.929   1.012  10.703 -1.2395 -0.0422  1.2771
  114OSM    C7S11886   6.002   1.214  10.647  0.2926  0.3373 -0.8356
  114OSM    H7S11887   6.085   1.201  10.720 -0.2186  0.2110 -0.2679
  114OSM    H7T11888   5.965   1.319  10.640 -0.6983 -0.0319 -1.3562
  114OSM    C8S11889   6.060   1.192  10.502  0.5399  0.4380  0.6149
  114OSM    H8S11890   6.099   1.089  10.489 -0.1863  0.2533 -0.1974
  114OSM    H8T11891   6.137   1.271  10.487  1.0381 -0.5388 -2.6033
  114OSM    C9S11892   5.963   1.218  10.384 -0.4760  0.2404 -0.2898
  114OSM    H9S11893   5.898   1.304  10.409  0.1277  0.8191 -0.6861
  114OSM    H9T11894   5.887   1.137  10.385 -1.9647  1.5670 -1.0347
  114OSM   C10S11895   6.035   1.225  10.250  0.6605 -0.1467  0.0596
  114OSM   H10S11896   6.075   1.125  10.224 -0.6431 -1.0062  1.2235
  114OSM   H10T11897   6.115   1.301  10.248  0.4543  0.0615 -0.8551
  114OSM   C11S11898   5.931   1.260  10.141 -0.2600 -0.3125  0.5669
  114OSM   H11S11899   5.898   1.366  10.147  4.2807  1.4391 -1.1802
  114OSM   H11T11900   5.844   1.190  10.147 -1.0752  0.5506 -0.6408
  114OSM   C12S11901   5.997   1.235   9.998  0.0936 -1.0004 -0.0300
  114OSM   H12S11902   6.013   1.126   9.986 -0.1868 -1.1042  0.4749
  114OSM   H12T11903   6.088   1.298   9.994  0.3602 -1.1808  1.9530
  114OSM   C13S11904   5.912   1.296   9.882 -0.1770  0.3548  0.0607
  114OSM   H13S11905   5.903   1.406   9.893 -2.0721  0.3356 -0.7443
  114OSM   H13T11906   5.809   1.255   9.896  1.0642 -2.3611  2.0251
  114OSM   C14S11907   5.963   1.255   9.743 -0.2835  0.5428  0.2586
  114OSM   H14S11908   5.958   1.144   9.731  1.6235  0.6925 -3.2806
  114OSM   H14T11909   6.073   1.269   9.745 -0.4590  2.3594 -0.7243
  114OSM   C15S11910   5.896   1.315   9.620 -0.4267  0.4351 -0.1718
  114OSM   H15S11911   5.874   1.420   9.648  1.7426  0.4665  1.7033
  114OSM   H15T11912   5.806   1.253   9.599  1.1046 -1.6944 -0.8611
  114OSM   C16S11913   5.965   1.300   9.485  0.1387 -0.1012  0.4002
  114OSM   H16S11914   5.988   1.195   9.455  0.4191  0.3539 -1.0254
  114OSM   H16T11915   6.055   1.362   9.504 -0.1316  0.4808 -0.1756
  114OSM   C17S11916   5.888   1.360   9.369 -0.3427  0.0898  0.3860
  114OSM   H17S11917   5.854   1.463   9.393 -1.0852  0.0487 -0.4140
  114OSM   H17T11918   5.795   1.302   9.349 -0.6958  0.8262 -0.1941
  114OSM   C18S11919   5.973   1.374   9.244  0.7369 -0.4104 -0.0391
  114OSM   H18S11920   6.077   1.400   9.274  0.6642  1.7532 -1.4309
  114OSM   H18T11921   5.948   1.456   9.174  3.0154 -0.1157 -0.6044
  114OSM   H18U11922   5.991   1.282   9.184  2.0648  0.4045 -0.9500
  114OSM    C1F11923   5.898   1.638  10.929  0.4284  0.5623  0.6444
  114OSM     OF11924   5.964   1.618  11.032  0.3264 -0.3284  0.7488
  114OSM    C2F11925   5.939   1.752  10.843  0.6202 -0.1545  0.1687
  114OSM    H2F11926   5.920   1.848  10.895  0.6213 -0.1102  0.0873
  114OSM    H2G11927   5.885   1.759  10.746 -2.1646  0.3989  1.6476
  114OSM    C3F11928   6.087   1.756  10.807 -1.0038 -0.0660  0.3651
  114OSM    H3F11929   6.140   1.730  10.900 -1.3857  1.3889  1.0076
  114OSM    H3G11930   6.123   1.857  10.778 -0.4512 -0.4212 -0.2185
  114OSM    C4F11931   6.129   1.654  10.700 -0.4543  0.4318  0.1937
  114OSM    H4F11932   6.041   1.637  10.635  0.4167 -3.3303 -0.2654
  114OSM    H4G11933   6.157   1.560  10.752  0.4279  1.0900  0.9486
  114OSM    C5F11934   6.260   1.696  10.627  0.2823  0.5265  0.0230
  114OSM    H5F11935   6.332   1.725  10.706  0.0721 -0.5097  0.6151
  114OSM    H5G11936   6.245   1.781  10.558  0.2210  0.1742 -0.4064
  114OSM    C6F11937   6.321   1.588  10.542  0.1002 -0.4335 -0.8966
  114OSM    H6F11938   6.337   1.495  10.600  1.4994  0.1842 -0.2149
  114OSM    H6G11939   6.423   1.627  10.519  0.0597  0.3779  0.1840
  114OSM    C7F11940   6.231   1.541  10.425  0.1824 -0.4813 -0.2603
  114OSM    H7F11941   6.127   1.517  10.455  0.9543 -1.7823  1.6383
  114OSM    H7G11942   6.270   1.440  10.400 -0.6049 -0.4929 -1.4845
  114OSM    C8F11943   6.231   1.635  10.302 -0.5443 -0.1423 -0.8511
  114OSM    H8F11944   6.205   1.739  10.330  1.6579 -0.0726  1.1951
  114OSM    H8G11945   6.152   1.604  10.230 -0.2731 -1.3217 -0.6610
  114OSM    C9F11946   6.366   1.629  10.236 -0.7505  0.4254 -0.5066
  114OSM    H9F11947   6.450   1.680  10.286  1.7988 -1.8487 -2.1442
  114OSM   C10F11948   6.396   1.587  10.112 -0.5110 -0.1163  0.1695
  114OSM   H10F11949   6.498   1.586  10.072 -0.9276 -0.5532 -0.9181
  114OSM   C11F11950   6.299   1.523  10.014 -0.2341 -0.1751  0.1098
  114OSM   H11F11951   6.195   1.514  10.050  0.7142  0.2224  3.1918
  114OSM   H11G11952   6.333   1.420   9.989  1.2144  0.3754 -0.2950
  114OSM   C12F11953   6.300   1.603   9.881 -0.1125  0.0910  0.1168
  114OSM   H12F11954   6.400   1.616   9.833  0.7403 -0.4141  1.6927
  114OSM   H12G11955   6.270   1.710   9.889  0.9238  0.4062 -0.0539
  114OSM   C13F11956   6.199   1.545   9.789  0.3739  0.1083  0.2349
  114OSM   H13F11957   6.095   1.561   9.827  0.4992  0.2949  0.5085
  114OSM   H13G11958   6.208   1.435   9.784 -0.5911  0.0835 -1.6180
  114OSM   C14F11959   6.209   1.586   9.646 -0.3458 -0.6686  0.4212
  114OSM   H14F11960   6.203   1.697   9.634  0.4566 -0.6399  0.2266
  114OSM   H14G11961   6.125   1.546   9.586 -1.2672  0.5383  0.8588
  114OSM   C15F11962   6.349   1.554   9.579  0.6186  0.3551 -0.0385
  114OSM   H15F11963   6.363   1.444   9.578  1.6708  0.4239  1.5647
  114OSM   H15G11964   6.433   1.605   9.631 -0.8522  1.9122  0.9162
  114OSM   C16F11965   6.345   1.605   9.437 -0.1655  0.0407 -0.1262
  114OSM   H16F11966   6.308   1.709   9.427 -1.9262 -0.4854  0.4557
  114OSM   H16G11967   6.285   1.531   9.381 -0.3877  1.3585 -1.6818
  114OSM   C17F11968   6.483   1.599   9.359 -0.1725  0.4234 -0.3790
  114OSM   H17F11969   6.456   1.575   9.253  1.1837  0.7215 -0.8107
  114OSM   H17G11970   6.537   1.517   9.410  0.1002  1.8289  1.6868
  114OSM   C18F11971   6.559   1.727   9.379 -0.6991 -0.5497 -0.0377
  114OSM   H18F11972   6.497   1.809   9.337 -2.5444 -1.6543  0.4040
  114OSM   H18G11973   6.655   1.733   9.325 -0.1287  1.7658  1.1154
  114OSM   H18H11974   6.562   1.755   9.487  1.1635 -1.4183  0.1708
  115OSM      N11975   4.485   1.349  11.433 -0.3556  0.1840  0.1870
  115OSM    C1511976   4.629   1.295  11.446  0.1072  0.0180 -0.7160
  115OSM   H15A11977   4.618   1.215  11.518 -1.2715 -0.8662 -1.8359
  115OSM   H15B11978   4.693   1.375  11.479 -1.7514  1.4146 -0.3024
  115OSM   H15C11979   4.680   1.255  11.360  1.5241  0.8993 -0.3176
  115OSM    C1411980   4.394   1.231  11.436 -0.3412  0.0675 -0.2047
  115OSM   H14A11981   4.292   1.262  11.422  0.2896  3.7165  1.8583
  115OSM   H14B11982   4.389   1.181  11.531 -0.0712 -1.5288 -0.9890
  115OSM   H14C11983   4.430   1.154  11.369 -0.8699  0.3100 -0.7715
  115OSM    C1311984   4.455   1.440  11.551  0.5245 -0.4071  0.2375
  115OSM   H13A11985   4.454   1.396  11.649 -1.4695  0.5468  0.7147
  115OSM   H13B11986   4.353   1.474  11.534  1.5499  1.2991 -3.5230
  115OSM   H13C11987   4.520   1.525  11.540  1.6180 -1.4073 -1.4729
  115OSM    C1211988   4.471   1.433  11.309  0.6072 -0.1215  0.1682
  115OSM   H12A11989   4.492   1.371  11.223 -2.3717 -2.0364  0.6706
  115OSM   H12B11990   4.541   1.515  11.314  0.6450 -0.2083  3.3696
  115OSM    C1111991   4.338   1.498  11.273  0.7096 -0.1309  0.1326
  115OSM   H11A11992   4.262   1.430  11.316  0.0231  1.8305  2.2426
  115OSM   H11B11993   4.321   1.502  11.163 -2.3871  1.9234  0.5349
  115OSM      P11994   4.398   1.749  11.258  0.6266  0.3968 -0.0468
  115OSM    O1311995   4.339   1.875  11.301  0.0598 -0.0061 -0.4010
  115OSM    O1411996   4.541   1.738  11.273 -0.9565  0.6846  0.3625
  115OSM    O1111997   4.364   1.723  11.105  0.6101  0.2104  0.0502
  115OSM    O1211998   4.316   1.627  11.327  0.1160 -0.4983 -0.6596
  115OSM    C1S11999   4.275   1.818  11.041 -0.6428 -0.1122  0.8233
  115OSM    H1S12000   4.320   1.920  11.043  2.4171 -1.1782 -2.4868
  115OSM    H1T12001   4.178   1.828  11.094 -2.6064  0.1104 -2.5063
  115OSM     NF12002   4.205   1.909  10.832  0.5026  0.2988 -0.3974
  115OSM    HNF12003   4.105   1.914  10.825  0.1921 -0.1875  2.3702
  115OSM    C2S12004   4.256   1.789  10.891  0.2412 -0.1196 -0.7026
  115OSM    H2S12005   4.354   1.764  10.847  0.2991 -2.4161  0.5612
  115OSM    C3S12006   4.167   1.670  10.879 -0.1384  0.5688  0.7248
  115OSM    H3S12007   4.086   1.669  10.955  1.4104 -1.8286  2.5244
  115OSM     O312008   4.239   1.545  10.884  0.0436  0.5954  0.0492
  115OSM    HO312009   4.315   1.568  10.938  0.7755 -2.6858  0.5896
  115OSM    C4S12010   4.109   1.659  10.738  0.3548  0.4731  0.0742
  115OSM    H4S12011   4.186   1.629  10.666 -0.2958 -0.3032 -0.3084
  115OSM    C5S12012   3.980   1.671  10.708  0.0904 -0.2208  0.0450
  115OSM    H5S12013   3.905   1.707  10.780 -0.0016 -0.0774 -0.1195
  115OSM    C6S12014   3.943   1.653  10.554 -0.8539  0.2575  0.2686
  115OSM    H6S12015   4.027   1.630  10.486 -1.0418 -0.5088  0.2801
  115OSM    H6T12016   3.904   1.751  10.521 -0.8939  1.3892  3.3173
  115OSM    C7S12017   3.830   1.550  10.511 -0.2962 -0.0146  0.0172
  115OSM    H7S12018   3.735   1.569  10.565 -1.1310 -1.7173 -0.7891
  115OSM    H7T12019   3.876   1.452  10.535  0.0876  0.2766  0.4765
  115OSM    C8S12020   3.799   1.555  10.361 -0.1781 -0.5296 -0.3159
  115OSM    H8S12021   3.887   1.534  10.297 -0.0540 -2.2018  0.3775
  115OSM    H8T12022   3.768   1.662  10.355 -0.1323 -0.5541 -1.1666
  115OSM    C9S12023   3.678   1.460  10.331  0.2417 -0.5679 -0.3185
  115OSM    H9S12024   3.587   1.488  10.389  1.7471  2.8906  0.6077
  115OSM    H9T12025   3.705   1.360  10.371  1.7853  0.7991  2.2927
  115OSM   C10S12026   3.625   1.445  10.182 -0.8995 -0.1203 -0.7655
  115OSM   H10S12027   3.595   1.540  10.135  1.6319 -0.0601 -2.4783
  115OSM   H10T12028   3.551   1.363  10.166 -1.0852  0.3043 -2.2011
  115OSM   C11S12029   3.751   1.390  10.097  0.1213  0.1086  0.2843
  115OSM   H11S12030   3.798   1.305  10.151 -0.7446 -1.2143 -0.9719
  115OSM   H11T12031   3.823   1.474  10.088 -0.9167  0.7888 -3.6402
  115OSM   C12S12032   3.725   1.317   9.956  0.5439  0.0366  0.5427
  115OSM   H12S12033   3.703   1.392   9.876  1.1945  1.4523  1.6374
  115OSM   H12T12034   3.644   1.242   9.972  1.0882 -1.2260 -2.1664
  115OSM   C13S12035   3.838   1.237   9.890  0.3623  0.1189 -0.5445
  115OSM   H13S12036   3.856   1.149   9.955  0.6319  0.9148  0.4787
  115OSM   H13T12037   3.928   1.302   9.887  0.1257  0.6779  1.9553
  115OSM   C14S12038   3.821   1.206   9.735  0.1741  0.6193 -0.1013
  115OSM   H14S12039   3.818   1.296   9.671  2.0146  0.0820 -1.0072
  115OSM   H14T12040   3.737   1.136   9.716 -0.5770  0.5680  2.9188
  115OSM   C15S12041   3.949   1.125   9.686  0.2153 -1.6374 -0.2966
  115OSM   H15S12042   3.979   1.055   9.767 -0.0906  0.8857  2.1244
  115OSM   H15T12043   4.037   1.191   9.670 -1.7755  0.9784 -1.1038
  115OSM   C16S12044   3.911   1.058   9.555 -0.6194  0.6819 -0.5421
  115OSM   H16S12045   3.812   1.008   9.556  0.1191 -0.8345  1.2767
  115OSM   H16T12046   3.971   0.969   9.527 -2.4518 -1.1856  1.1720
  115OSM   C17S12047   3.917   1.168   9.455  0.2801  0.2763 -0.1796
  115OSM   H17S12048   4.020   1.209   9.449  0.4762  0.3394  2.3857
  115OSM   H17T12049   3.846   1.252   9.468 -2.6110 -1.3703 -3.5970
  115OSM   C18S12050   3.891   1.122   9.317  0.1272 -0.3991  0.5267
  115OSM   H18S12051   3.793   1.070   9.324  0.9320 -1.7369  2.8043
  115OSM   H18T12052   3.978   1.064   9.279  0.7361  1.1771 -0.5891
  115OSM   H18U12053   3.858   1.203   9.249 -0.6922  1.2095  2.7045
  115OSM    C1F12054   4.283   2.019  10.820  0.1805 -0.2118  0.5696
  115OSM     OF12055   4.400   2.011  10.853 -0.5757 -0.2080 -0.0132
  115OSM    C2F12056   4.222   2.147  10.762 -0.0522  0.4797  0.0071
  115OSM    H2F12057   4.272   2.244  10.782  0.3228  0.8395 -2.3583
  115OSM    H2G12058   4.118   2.149  10.803  0.3899 -1.3179  1.3166
  115OSM    C3F12059   4.217   2.148  10.605 -0.1305 -0.0711  0.3996
  115OSM    H3F12060   4.321   2.158  10.568 -0.2322 -2.8341 -0.8845
  115OSM    H3G12061   4.165   2.242  10.579 -1.0832 -0.2266  1.6270
  115OSM    C4F12062   4.171   2.023  10.533  0.2185 -0.0335  0.0314
  115OSM    H4F12063   4.071   2.004  10.577 -0.4292  2.0964 -0.3760
  115OSM    H4G12064   4.235   1.934  10.550 -1.9011 -1.1758  2.6509
  115OSM    C5F12065   4.149   2.050  10.385  0.5788  0.7044  0.5219
  115OSM    H5F12066   4.245   2.082  10.339  1.6142 -2.0867  0.5431
  115OSM    H5G12067   4.079   2.136  10.378  1.0189  1.0321  0.0606
  115OSM    C6F12068   4.084   1.931  10.324  0.1159  0.6661 -0.3665
  115OSM    H6F12069   3.980   1.925  10.364  0.3063  2.8261  0.5986
  115OSM    H6G12070   4.136   1.839  10.359  1.0106  1.3267  0.0684
  115OSM    C7F12071   4.083   1.918  10.164 -0.1864  0.1500 -0.3692
  115OSM    H7F12072   4.190   1.913  10.135 -0.3308 -1.1851 -0.7689
  115OSM    H7G12073   4.041   2.012  10.124 -1.6216 -1.1609 -2.1088
  115OSM    C8F12074   4.002   1.799  10.114 -0.9318  0.7875  0.3096
  115OSM    H8F12075   3.913   1.789  10.179 -1.1113 -0.2246 -0.0779
  115OSM    H8G12076   4.058   1.703  10.123  1.1522  1.6786 -1.9253
  115OSM    C9F12077   3.981   1.823   9.971  0.1331 -0.3247 -0.5948
  115OSM    H9F12078   3.946   1.923   9.943  0.3357 -0.1385 -0.1954
  115OSM   C10F12079   3.995   1.736   9.870 -0.2662 -1.0101  0.2652
  115OSM   H10F12080   3.970   1.771   9.769 -0.1364 -0.9260  0.2620
  115OSM   C11F12081   4.052   1.595   9.881 -0.5491  0.6213  0.2133
  115OSM   H11F12082   3.979   1.513   9.865 -1.0999  1.0490  0.4716
  115OSM   H11G12083   4.094   1.566   9.979  1.6806  2.1740 -0.2067
  115OSM   C12F12084   4.167   1.578   9.775  0.2827  0.7844  0.3785
  115OSM   H12F12085   4.263   1.613   9.817  1.0233 -0.0665 -0.5534
  115OSM   H12G12086   4.146   1.631   9.679  3.2233 -0.3560 -1.0085
  115OSM   C13F12087   4.180   1.423   9.750 -0.2427 -0.3276  0.7940
  115OSM   H13F12088   4.086   1.376   9.716  0.0943 -0.2191 -0.3204
  115OSM   H13G12089   4.209   1.393   9.853 -1.0059  0.5727  1.2876
  115OSM   C14F12090   4.305   1.379   9.671  0.0444 -0.3098 -0.4587
  115OSM   H14F12091   4.304   1.270   9.649 -0.6671 -0.1648 -1.1986
  115OSM   H14G12092   4.392   1.413   9.731  0.1095  0.2997 -0.8943
  115OSM   C15F12093   4.330   1.453   9.538  0.1103 -0.0183 -0.4425
  115OSM   H15F12094   4.337   1.559   9.570  0.5094 -0.8996  2.7538
  115OSM   H15G12095   4.240   1.441   9.474  0.3729 -0.4098 -0.7473
  115OSM   C16F12096   4.462   1.411   9.474  1.1079 -0.2422 -0.7949
  115OSM   H16F12097   4.471   1.303   9.450 -2.8964 -1.7690  3.0568
  115OSM   H16G12098   4.547   1.430   9.543  1.0634 -1.6172 -0.3439
  115OSM   C17F12099   4.486   1.482   9.336  0.1437  0.4615  0.0242
  115OSM   H17F12100   4.413   1.430   9.270  0.8410  2.6125 -2.6134
  115OSM   H17G12101   4.587   1.446   9.307 -0.5809 -2.2733  0.6022
  115OSM   C18F12102   4.470   1.628   9.329  0.3639 -0.2200 -0.2278
  115OSM   H18F12103   4.361   1.638   9.346  0.1939 -1.3273 -0.6138
  115OSM   H18G12104   4.487   1.670   9.228 -2.2459  1.2371 -0.1516
  115OSM   H18H12105   4.527   1.679   9.410  2.0918  0.7036 -1.9590
  116OSM      N12106   6.631   2.936  11.433  0.9008 -0.0189  0.8067
  116OSM    C1512107   6.503   2.892  11.496  0.5967  0.8792  0.8825
  116OSM   H15A12108   6.446   2.846  11.417  0.4911  0.1946  1.3456
  116OSM   H15B12109   6.447   2.977  11.533  2.6554  3.1542 -0.8945
  116OSM   H15C12110   6.516   2.809  11.564 -1.9533 -0.4821 -0.1442
  116OSM    C1412111   6.714   2.998  11.537 -0.9078  0.3100  0.7452
  116OSM   H14A12112   6.656   3.079  11.578  0.1954  2.7337 -2.1402
  116OSM   H14B12113   6.808   3.036  11.500 -0.3132 -0.5948  1.2828
  116OSM   H14C12114   6.734   2.944  11.628  0.5277  0.2281  0.3984
  116OSM    C1312115   6.694   2.817  11.372 -0.4774 -0.3154  0.0921
  116OSM   H13A12116   6.703   2.747  11.454  0.4450 -0.4431 -0.1070
  116OSM   H13B12117   6.790   2.841  11.327 -0.2239 -0.1904  0.6844
  116OSM   H13C12118   6.632   2.775  11.294  0.1167  1.2081 -1.2726
  116OSM    C1212119   6.595   3.039  11.328 -0.5767 -0.0850  0.5261
  116OSM   H12A12120   6.542   3.119  11.378  0.5297  0.0356  1.5647
  116OSM   H12B12121   6.543   2.997  11.243 -0.2300  2.9039 -1.3104
  116OSM    C1112122   6.705   3.129  11.257 -0.3911  0.1451  0.5072
  116OSM   H11A12123   6.662   3.193  11.177 -2.4357  0.7777  2.0304
  116OSM   H11B12124   6.760   3.056  11.194  0.9542  2.1605 -0.7748
  116OSM      P12125   6.942   3.211  11.302 -0.3807 -0.3994  0.5491
  116OSM    O1312126   6.994   3.352  11.322  1.0131  0.6871 -0.2629
  116OSM    O1412127   7.018   3.097  11.366  0.1993  0.6441 -0.0276
  116OSM    O1112128   6.947   3.171  11.146 -0.1961 -0.4264 -0.0716
  116OSM    O1212129   6.792   3.208  11.340  0.2375 -0.4806  0.3848
  116OSM    C1S12130   7.056   3.096  11.097  0.4446  0.5276  0.3585
  116OSM    H1S12131   7.045   2.998  11.149  1.1741  0.9146  1.2800
  116OSM    H1T12132   7.151   3.132  11.143  0.3782  2.0058 -0.6105
  116OSM     NF12133   7.132   2.977  10.894  0.5415 -0.2650  0.0340
  116OSM    HNF12134   7.229   2.999  10.902  0.1735  0.5883  3.7617
  116OSM    C2S12135   7.046   3.089  10.939  0.0512  0.3825  0.0106
  116OSM    H2S12136   6.939   3.066  10.916  0.1016 -0.3230  0.4543
  116OSM    C3S12137   7.090   3.230  10.895 -0.4819  0.0809  0.1046
  116OSM    H3S12138   7.187   3.248  10.946 -0.9899  0.5184  0.9302
  116OSM     O312139   7.001   3.333  10.942  0.4023  0.1152 -0.0244
  116OSM    HO312140   6.957   3.294  11.017 -0.8129  1.8392  0.2007
  116OSM    C4S12141   7.104   3.234  10.746  0.1865  0.1585  0.1743
  116OSM    H4S12142   7.205   3.205  10.712  0.2566 -2.8684  2.5634
  116OSM    C5S12143   7.012   3.257  10.651  0.4790  0.9247 -0.2869
  116OSM    H5S12144   6.908   3.285  10.673 -0.0521 -1.6558  0.8826
  116OSM    C6S12145   7.028   3.259  10.504 -0.0220  0.0298 -0.4130
  116OSM    H6S12146   6.994   3.358  10.468  3.4547  2.8446  3.0679
  116OSM    H6T12147   6.973   3.183  10.444 -0.1418  0.7442 -1.2373
  116OSM    C7S12148   7.175   3.250  10.451 -0.2345 -0.3295 -0.2352
  116OSM    H7S12149   7.210   3.146  10.472 -0.6036 -0.8721 -2.0974
  116OSM    H7T12150   7.242   3.319  10.507  1.5663  1.4689 -4.2268
  116OSM    C8S12151   7.183   3.269  10.305 -0.0456  0.3469 -0.0116
  116OSM    H8S12152   7.122   3.357  10.273  2.4668  1.5186 -1.9157
  116OSM    H8T12153   7.135   3.180  10.260 -3.1037  2.3937 -1.2033
  116OSM    C9S12154   7.326   3.294  10.259  0.0813 -0.5709  0.0615
  116OSM    H9S12155   7.406   3.222  10.287  2.2259  1.0060 -1.6301
  116OSM    H9T12156   7.360   3.395  10.293 -0.8159  0.0490 -0.8424
  116OSM   C10S12157   7.341   3.312  10.108 -0.1650  0.5134 -0.0664
  116OSM   H10S12158   7.450   3.334  10.100 -0.1536  0.6886  0.5357
  116OSM   H10T12159   7.282   3.389  10.054 -1.6014 -1.1259 -0.9091
  116OSM   C11S12160   7.312   3.183  10.032  0.1019 -0.8648 -0.1490
  116OSM   H11S12161   7.211   3.140  10.049 -0.9538  1.2428 -0.7703
  116OSM   H11T12162   7.383   3.104  10.065 -1.7340 -1.7855  1.8686
  116OSM   C12S12163   7.314   3.192   9.878  0.3219 -0.2604  0.3243
  116OSM   H12S12164   7.233   3.251   9.831 -0.1493 -0.4069  0.9368
  116OSM   H12T12165   7.304   3.089   9.837  0.9103 -0.4010  0.5212
  116OSM   C13S12166   7.453   3.244   9.823 -0.8694 -0.7168  0.2342
  116OSM   H13S12167   7.533   3.178   9.861 -0.2117  0.8105  1.6483
  116OSM   H13T12168   7.466   3.346   9.865 -0.3514 -0.0412 -1.4626
  116OSM   C14S12169   7.444   3.267   9.675  0.2881 -0.1972  0.5677
  116OSM   H14S12170   7.489   3.366   9.652  1.8737 -0.3116  2.8543
  116OSM   H14T12171   7.339   3.269   9.639  0.2632  1.3281  0.6825
  116OSM   C15S12172   7.515   3.159   9.603 -0.2213  0.4591  0.4804
  116OSM   H15S12173   7.470   3.059   9.620  1.6931 -0.0813  2.9922
  116OSM   H15T12174   7.622   3.148   9.630 -0.5663  0.0538  1.7490
  116OSM   C16S12175   7.503   3.180   9.453  0.0166  0.1811  0.0319
  116OSM   H16S12176   7.530   3.282   9.420 -1.6805  0.7914  0.4563
  116OSM   H16T12177   7.400   3.159   9.416  0.5345 -2.1287 -0.2926
  116OSM   C17S12178   7.573   3.065   9.389  0.2976  1.1543  0.0729
  116OSM   H17S12179   7.539   2.969   9.432  2.6231  0.6066  0.8367
  116OSM   H17T12180   7.683   3.070   9.402  0.4550 -2.5653  1.3374
  116OSM   C18S12181   7.543   3.041   9.237  0.9110 -0.8836  0.6043
  116OSM   H18S12182   7.434   3.030   9.219  0.5825  2.3646  0.0077
  116OSM   H18T12183   7.604   2.958   9.194  1.5793  0.7669 -1.9073
  116OSM   H18U12184   7.573   3.138   9.191  1.2253 -0.4485  1.7013
  116OSM    C1F12185   7.085   2.856  10.906  0.5304  0.6928  0.0410
  116OSM     OF12186   6.973   2.836  10.959  0.1954  0.9096  0.9189
  116OSM    C2F12187   7.164   2.743  10.872 -0.3803  0.4339  0.3826
  116OSM    H2F12188   7.181   2.672  10.956  1.2195  1.0872  0.6624
  116OSM    H2G12189   7.256   2.754  10.810 -0.0902  0.4667  0.8105
  116OSM    C3F12190   7.072   2.660  10.772 -0.5704  0.1563 -0.2730
  116OSM    H3F12191   6.984   2.636  10.835  0.5247 -0.1835  1.1919
  116OSM    H3G12192   7.107   2.556  10.759 -0.4541 -0.0934  1.6848
  116OSM    C4F12193   7.039   2.734  10.636 -0.6094  0.2558 -0.6010
  116OSM    H4F12194   6.974   2.822  10.658 -1.3870  0.3791 -3.0483
  116OSM    H4G12195   6.984   2.658  10.576 -0.5346 -0.9920  0.8737
  116OSM    C5F12196   7.158   2.786  10.557 -0.5224  0.1228 -0.0673
  116OSM    H5F12197   7.227   2.701  10.536 -0.8125  0.4518 -2.7742
  116OSM    H5G12198   7.201   2.869  10.616 -0.0403 -1.9558  2.6771
  116OSM    C6F12199   7.117   2.832  10.414 -1.6229  0.0243  0.5650
  116OSM    H6F12200   7.038   2.909  10.426 -2.8108 -0.7224 -1.8890
  116OSM    H6G12201   7.079   2.752  10.347  0.0644  0.6446 -1.2251
  116OSM    C7F12202   7.240   2.893  10.340 -0.0076 -0.1709 -0.5278
  116OSM    H7F12203   7.285   2.973  10.401  1.3822 -0.8709 -0.5933
  116OSM    H7G12204   7.207   2.945  10.248 -0.2813 -0.1457 -0.4178
  116OSM    C8F12205   7.337   2.785  10.294 -0.6126 -0.4092 -0.1027
  116OSM    H8F12206   7.358   2.711  10.374 -0.7027  0.1486  0.4478
  116OSM    H8G12207   7.435   2.835  10.276 -0.6767 -0.4559 -0.6046
  116OSM    C9F12208   7.295   2.710  10.169  0.0814  0.0056 -0.5230
  116OSM    H9F12209   7.197   2.664  10.189 -0.2184  0.1265 -1.6574
  116OSM   C10F12210   7.353   2.710  10.042 -0.6039  0.1657 -0.0383
  116OSM   H10F12211   7.313   2.649   9.959 -2.5671  1.4375 -0.1014
  116OSM   C11F12212   7.484   2.777  10.009  0.5500 -0.1056 -0.1060
  116OSM   H11F12213   7.576   2.715  10.018 -0.2203 -1.2480 -0.0301
  116OSM   H11G12214   7.504   2.866  10.073 -3.5935 -0.0373  1.3408
  116OSM   C12F12215   7.483   2.834   9.860 -0.0774  0.1181 -0.1900
  116OSM   H12F12216   7.568   2.905   9.851 -0.8888  0.8682 -3.5009
  116OSM   H12G12217   7.393   2.899   9.845  0.6636  1.1148 -0.4303
  116OSM   C13F12218   7.480   2.718   9.763  0.5107  0.7715  0.2594
  116OSM   H13F12219   7.382   2.666   9.758  0.5560  0.7848 -1.0283
  116OSM   H13G12220   7.550   2.638   9.797  1.8428  1.1460 -1.4576
  116OSM   C14F12221   7.492   2.754   9.613 -0.3170 -0.2931 -0.6643
  116OSM   H14F12222   7.585   2.813   9.604  0.3264 -1.2576 -0.4916
  116OSM   H14G12223   7.409   2.820   9.579  0.5721  1.5520  0.6158
  116OSM   C15F12224   7.482   2.644   9.510 -0.1702  0.2419 -0.8486
  116OSM   H15F12225   7.391   2.590   9.545 -1.1773  1.9088 -0.7780
  116OSM   H15G12226   7.577   2.588   9.503  1.1489  2.3158 -0.4709
  116OSM   C16F12227   7.469   2.694   9.367 -0.5658 -0.1934 -0.3688
  116OSM   H16F12228   7.547   2.767   9.341 -0.5881 -0.0295  0.0134
  116OSM   H16G12229   7.379   2.756   9.349 -1.2734 -1.4221 -1.1975
  116OSM   C17F12230   7.495   2.572   9.269 -0.5892 -0.2706 -0.0876
  116OSM   H17F12231   7.406   2.508   9.286 -1.5288  1.4595  2.0529
  116OSM   H17G12232   7.586   2.514   9.295 -0.7152 -0.4964 -0.1442
  116OSM   C18F12233   7.524   2.615   9.125 -0.3329  0.8461  1.1162
  116OSM   H18F12234   7.444   2.680   9.085  0.1125  1.1197  0.6598
  116OSM   H18G12235   7.536   2.528   9.057 -1.7548  1.5618 -0.0885
  116OSM   H18H12236   7.619   2.673   9.125  1.4723 -1.8502 -1.2151
  117OSM      N12237   3.133   5.860  11.219 -0.6724  0.4228 -0.4527
  117OSM    C1512238   3.007   5.930  11.261  0.0252 -0.6452  0.5386
  117OSM   H15A12239   2.980   5.908  11.364 -0.9861  0.6354  0.5767
  117OSM   H15B12240   2.925   5.898  11.198  0.3637  1.2298 -0.9393
  117OSM   H15C12241   3.015   6.034  11.231 -1.8816 -1.0517 -1.5922
  117OSM    C1412242   3.244   5.894  11.323  1.0887 -0.0694  0.3732
  117OSM   H14A12243   3.271   5.997  11.309  2.4641 -0.2730  1.2433
  117OSM   H14B12244   3.337   5.840  11.309  1.3045  0.5773 -0.8001
  117OSM   H14C12245   3.200   5.874  11.420  0.6508 -1.7367 -0.1408
  117OSM    C1312246   3.105   5.718  11.225 -0.2415 -0.2776  0.5048
  117OSM   H13A12247   3.196   5.663  11.211 -0.2586 -0.3389  0.6327
  117OSM   H13B12248   3.033   5.692  11.149  0.5063 -0.2891 -0.2103
  117OSM   H13C12249   3.063   5.694  11.322  0.1389 -2.4014  0.1811
  117OSM    C1212250   3.174   5.905  11.074  0.4055 -0.2836 -0.4573
  117OSM   H12A12251   3.098   5.869  11.006 -0.8985 -1.1797  1.3723
  117OSM   H12B12252   3.265   5.853  11.052  1.0260  0.4535  0.2845
  117OSM    C1112253   3.196   6.055  11.052  0.2381  0.5197 -0.0918
  117OSM   H11A12254   3.099   6.104  11.078 -1.7359 -2.6997 -0.7494
  117OSM   H11B12255   3.214   6.069  10.943 -1.7655 -0.8768 -0.6697
  117OSM      P12256   3.295   6.245  11.184  0.0362 -0.2580  0.1436
  117OSM    O1312257   3.227   6.236  11.316  0.1184  0.4024  0.1039
  117OSM    O1412258   3.432   6.298  11.199 -0.7087  0.5649  0.0854
  117OSM    O1112259   3.199   6.346  11.094  0.1502 -0.0200 -0.0539
  117OSM    O1212260   3.302   6.103  11.134  0.2912  0.5536  0.4664
  117OSM    C1S12261   3.243   6.399  10.976 -0.9609  0.1662 -0.1496
  117OSM    H1S12262   3.294   6.323  10.915  1.6434  0.8477  1.0243
  117OSM    H1T12263   3.319   6.478  10.997 -0.2564 -0.2070 -1.2394
  117OSM     NF12264   3.164   6.509  10.760  0.0591 -0.0145  0.1091
  117OSM    HNF12265   3.196   6.602  10.739  0.7346  0.1659  1.7639
  117OSM    C2S12266   3.128   6.479  10.902 -0.6201  0.0827 -0.4276
  117OSM    H2S12267   3.041   6.411  10.898 -0.6960  0.0665  1.1329
  117OSM    C3S12268   3.083   6.603  10.974 -0.9302 -0.3276  0.6954
  117OSM    H3S12269   3.171   6.669  10.991  0.5338 -1.9445 -0.2697
  117OSM     O312270   3.033   6.573  11.103 -0.4935 -0.1617 -0.0262
  117OSM    HO312271   3.067   6.484  11.115 -2.2065 -0.7350  0.9062
  117OSM    C4S12272   2.967   6.677  10.904  0.0690 -0.3996  0.4609
  117OSM    H4S12273   2.886   6.615  10.864 -3.0604  1.0062  3.9992
  117OSM    C5S12274   2.954   6.807  10.898  0.4007  0.3081 -0.4417
  117OSM    H5S12275   3.022   6.870  10.958  0.7460  1.2369 -1.7608
  117OSM    C6S12276   2.842   6.875  10.824 -0.4067  0.1547  0.5339
  117OSM    H6S12277   2.803   6.950  10.896 -1.8664 -0.6526  0.6401
  117OSM    H6T12278   2.752   6.811  10.807 -0.9967  0.4939  2.1903
  117OSM    C7S12279   2.887   6.940  10.689  0.0421  0.0712 -0.0725
  117OSM    H7S12280   2.929   6.864  10.621  0.7241  1.8540 -1.7350
  117OSM    H7T12281   2.969   7.012  10.708  0.3411  0.0199 -1.1358
  117OSM    C8S12282   2.775   7.018  10.613 -0.0701 -0.0229  0.6041
  117OSM    H8S12283   2.742   7.094  10.687  0.1514 -0.0562  0.7390
  117OSM    H8T12284   2.692   6.947  10.590  0.2261 -0.0899 -0.2878
  117OSM    C9S12285   2.841   7.074  10.485  0.1251  0.2051 -0.7599
  117OSM    H9S12286   2.935   7.017  10.474  1.4545  1.8276  1.4747
  117OSM    H9T12287   2.878   7.175  10.512  1.2329 -0.0043 -1.4139
  117OSM   C10S12288   2.763   7.062  10.354  0.6991 -0.2262  0.2116
  117OSM   H10S12289   2.664   7.112  10.362 -1.1204 -2.7804 -3.2022
  117OSM   H10T12290   2.749   6.952  10.342 -1.9237 -0.1398  1.7742
  117OSM   C11S12291   2.831   7.118  10.229 -0.6575  0.7360  0.1641
  117OSM   H11S12292   2.929   7.066  10.224 -0.0000  1.9676 -0.2968
  117OSM   H11T12293   2.858   7.226  10.238  0.4280  0.5334 -0.5110
  117OSM   C12S12294   2.749   7.089  10.101 -0.5887 -0.1696 -0.3979
  117OSM   H12S12295   2.653   7.144  10.097  0.0563  1.0154 -0.0687
  117OSM   H12T12296   2.714   6.983  10.102 -1.3947 -0.0533 -3.7297
  117OSM   C13S12297   2.825   7.108   9.967 -0.7488  0.3260  0.2041
  117OSM   H13S12298   2.929   7.071   9.971 -0.9701 -0.2418  0.7486
  117OSM   H13T12299   2.817   7.217   9.944 -1.1224  0.3372  0.3794
  117OSM   C14S12300   2.753   7.046   9.846 -0.1092 -0.4178  0.7025
  117OSM   H14S12301   2.658   7.099   9.821 -1.3269 -3.5562 -2.1463
  117OSM   H14T12302   2.725   6.939   9.860 -1.9783 -0.3340 -1.6470
  117OSM   C15S12303   2.846   7.062   9.726  0.8527 -0.4352 -0.4378
  117OSM   H15S12304   2.947   7.023   9.750  0.6938 -0.1584  0.7418
  117OSM   H15T12305   2.861   7.171   9.711 -1.1316  0.3021  2.1910
  117OSM   C16S12306   2.780   6.997   9.609  0.4272 -0.2579 -0.2370
  117OSM   H16S12307   2.679   7.044   9.615  1.0453  1.0041  0.7945
  117OSM   H16T12308   2.770   6.887   9.614  1.2561 -0.2931  2.0041
  117OSM   C17S12309   2.849   7.009   9.469 -0.4053 -0.2693  0.0069
  117OSM   H17S12310   2.946   6.956   9.479  0.1509 -0.0688 -3.2292
  117OSM   H17T12311   2.873   7.116   9.450 -0.4805 -0.2605 -0.0371
  117OSM   C18S12312   2.763   6.954   9.356  0.1210 -0.7001 -1.0750
  117OSM   H18S12313   2.759   6.844   9.342 -1.2062 -0.6776 -1.0673
  117OSM   H18T12314   2.804   6.997   9.262  0.3156  3.4296  0.6755
  117OSM   H18U12315   2.660   6.994   9.371  0.4484 -0.7569  1.7050
  117OSM    C1F12316   3.182   6.416  10.665 -0.3726  0.2682  0.0426
  117OSM     OF12317   3.165   6.297  10.694 -0.1412 -0.0517  0.4067
  117OSM    C2F12318   3.234   6.452  10.523 -0.3878  0.3578 -0.4038
  117OSM    H2F12319   3.345   6.452  10.530 -0.4766 -1.0363  4.1143
  117OSM    H2G12320   3.198   6.556  10.505  0.4345  0.8904  0.8773
  117OSM    C3F12321   3.188   6.351  10.411  0.1408 -0.2040  0.0633
  117OSM    H3F12322   3.078   6.353  10.404 -0.0229 -0.7625  1.8758
  117OSM    H3G12323   3.228   6.250  10.433  0.7536  0.0081 -0.0447
  117OSM    C4F12324   3.245   6.386  10.275  0.4965 -0.4891  0.0187
  117OSM    H4F12325   3.355   6.404  10.272  0.6363 -1.4041 -0.7379
  117OSM    H4G12326   3.194   6.477  10.236  1.0202 -1.2866 -2.6924
  117OSM    C5F12327   3.223   6.277  10.161 -0.4507 -0.4581 -0.1695
  117OSM    H5F12328   3.119   6.239  10.164  0.5716 -3.6138 -1.0212
  117OSM    H5G12329   3.287   6.191  10.191  2.5635  1.3581 -0.8998
  117OSM    C6F12330   3.266   6.329  10.022 -0.2855 -0.3079 -0.1792
  117OSM    H6F12331   3.377   6.331  10.017 -0.2481  3.5826 -1.4699
  117OSM    H6G12332   3.233   6.435  10.013  1.0477  0.5120  3.2099
  117OSM    C7F12333   3.208   6.253   9.908  0.0056  0.3742 -0.1576
  117OSM    H7F12334   3.098   6.241   9.907 -0.0228  0.6744 -0.7233
  117OSM    H7G12335   3.246   6.148   9.908  2.4349  1.1878  0.7784
  117OSM    C8F12336   3.232   6.324   9.768 -0.0745  0.1422 -0.0546
  117OSM    H8F12337   3.193   6.428   9.773  1.1390  0.5713  3.7667
  117OSM    H8G12338   3.166   6.268   9.698  0.4231 -0.0035 -0.4140
  117OSM    C9F12339   3.378   6.336   9.730 -0.1022  0.0888  0.1625
  117OSM    H9F12340   3.442   6.349   9.818  1.0295 -5.7098  0.5983
  117OSM   C10F12341   3.434   6.316   9.610  0.7015  0.0700  0.1536
  117OSM   H10F12342   3.539   6.344   9.592  1.1046 -0.7732  1.0551
  117OSM   C11F12343   3.363   6.260   9.481  0.2904 -0.1764 -0.0762
  117OSM   H11F12344   3.284   6.187   9.510 -0.7936  0.7773 -0.5433
  117OSM   H11G12345   3.434   6.222   9.405 -1.8740 -0.7480 -1.9274
  117OSM   C12F12346   3.307   6.386   9.406  0.4768  0.2873  0.6285
  117OSM   H12F12347   3.390   6.459   9.407 -0.5658  1.4956  0.9120
  117OSM   H12G12348   3.226   6.434   9.464 -0.5404  0.2831 -0.7523
  117OSM   C13F12349   3.258   6.344   9.273 -0.1313  0.0815 -0.2015
  117OSM   H13F12350   3.316   6.261   9.227  1.9644 -0.0571  2.4785
  117OSM   H13G12351   3.284   6.427   9.203  2.8063 -1.1471 -0.7158
  117OSM   C14F12352   3.108   6.312   9.263 -0.5212 -0.1228  0.1742
  117OSM   H14F12353   3.057   6.393   9.318  1.3518  1.5506 -0.4352
  117OSM   H14G12354   3.094   6.215   9.317  1.3490  0.1207  1.2042
  117OSM   C15F12355   3.056   6.315   9.118  0.2626  0.6040  0.2155
  117OSM   H15F12356   3.079   6.415   9.077  0.0859  0.4259 -0.3297
  117OSM   H15G12357   2.948   6.291   9.124  0.8488 -2.0344  2.2346
  117OSM   C16F12358   3.126   6.215   9.024 -0.1164  0.2010  0.5642
  117OSM   H16F12359   3.103   6.110   9.052 -3.7146  0.9536  0.9915
  117OSM   H16G12360   3.236   6.229   9.016 -0.4140  2.3405 -0.8538
  117OSM   C17F12361   3.070   6.212   8.879 -0.6156  0.1029  0.0478
  117OSM   H17F12362   2.959   6.213   8.884 -0.6536 -0.2629 -0.5826
  117OSM   H17G12363   3.099   6.116   8.831 -2.4688  0.7033 -2.4566
  117OSM   C18F12364   3.107   6.318   8.775  0.2705  0.3180 -0.0779
  117OSM   H18F12365   3.086   6.419   8.815  2.3739 -0.1873  2.5638
  117OSM   H18G12366   3.055   6.311   8.677  0.8006  4.0430 -0.7722
  117OSM   H18H12367   3.215   6.328   8.751  0.3280  3.8912  1.0660
  118OSM      N12368   4.916   6.204  11.662  0.0804 -0.0065  0.4751
  118OSM    C1512369   4.921   6.154  11.812 -0.0018 -0.0634  0.2062
  118OSM   H15A12370   4.999   6.202  11.870 -0.3089 -2.0007  2.4063
  118OSM   H15B12371   4.937   6.047  11.810 -0.0799 -0.0666 -0.1781
  118OSM   H15C12372   4.825   6.174  11.857  0.4116 -0.5991  1.3890
  118OSM    C1412373   4.788   6.157  11.601 -0.0096  0.1108  0.6790
  118OSM   H14A12374   4.707   6.212  11.647 -0.0286 -1.5676  2.8428
  118OSM   H14B12375   4.782   6.054  11.634  2.2215  0.1240  1.3492
  118OSM   H14C12376   4.796   6.166  11.494  2.6454 -0.2435  0.7598
  118OSM    C1312377   4.916   6.356  11.657  0.0804  0.0365  0.4199
  118OSM   H13A12378   4.917   6.387  11.554 -0.2084  2.2544  1.0341
  118OSM   H13B12379   5.011   6.389  11.696  1.4771 -2.0809 -0.9486
  118OSM   H13C12380   4.832   6.400  11.709  0.2434  1.1673 -0.2588
  118OSM    C1212381   5.043   6.155  11.597 -0.1394  0.8508  0.1603
  118OSM   H12A12382   5.134   6.171  11.652 -1.3281  0.0302  2.5302
  118OSM   H12B12383   5.066   6.199  11.501  2.8477 -0.2235  0.2956
  118OSM    C1112384   5.043   5.997  11.562 -0.2098 -0.1711 -0.5763
  118OSM   H11A12385   5.033   5.943  11.658  1.4852 -1.0886 -0.8841
  118OSM   H11B12386   5.138   5.958  11.520  0.4545 -1.1821  1.7017
  118OSM      P12387   4.951   5.969  11.316 -0.0790 -0.4293  0.0376
  118OSM    O1312388   4.810   5.967  11.257 -0.2456  0.3350 -0.1921
  118OSM    O1412389   5.032   6.087  11.281  0.2691  0.6470  0.1742
  118OSM    O1112390   5.032   5.839  11.271 -0.4189  0.0520 -0.0613
  118OSM    O1212391   4.940   5.957  11.479  0.1476  0.2280  1.0357
  118OSM    C1S12392   5.038   5.776  11.142 -0.0004  0.8452  0.0764
  118OSM    H1S12393   4.937   5.744  11.112  0.7584 -0.1596 -1.5396
  118OSM    H1T12394   5.087   5.677  11.158  1.3752  1.7162  1.7454
  118OSM     NF12395   5.108   5.763  10.912  0.5286  0.3340  0.7343
  118OSM    HNF12396   5.192   5.718  10.885  0.9292  0.7990  1.1937
  118OSM    C2S12397   5.116   5.850  11.029 -0.1757  0.1412 -0.3841
  118OSM    H2S12398   5.067   5.946  11.004  0.4288  0.8244  0.9584
  118OSM    C3S12399   5.268   5.875  11.069 -0.3468 -0.4267  0.3467
  118OSM    H3S12400   5.315   5.774  11.070 -0.3763 -0.4394  0.4781
  118OSM     O312401   5.280   5.927  11.201 -0.2795  0.1506  0.2356
  118OSM    HO312402   5.192   5.908  11.234  0.1712 -1.4565  0.6034
  118OSM    C4S12403   5.329   5.953  10.963 -0.1102 -0.0335 -0.1990
  118OSM    H4S12404   5.381   5.882  10.898  0.4349  0.4303 -0.2770
  118OSM    C5S12405   5.312   6.083  10.929  0.5996  0.2954  0.5987
  118OSM    H5S12406   5.231   6.146  10.970 -1.5343 -0.7814 -1.7240
  118OSM    C6S12407   5.386   6.151  10.815  0.0390 -0.0004 -0.0662
  118OSM    H6S12408   5.461   6.217  10.865 -0.9514  0.4062  0.9259
  118OSM    H6T12409   5.321   6.224  10.763 -0.2216  1.1485  1.7645
  118OSM    C7S12410   5.477   6.063  10.720  0.0022  0.0947  0.7872
  118OSM    H7S12411   5.422   5.982  10.667  1.5987  0.6946 -1.9722
  118OSM    H7T12412   5.545   6.011  10.791  0.5450 -0.7592 -0.3203
  118OSM    C8S12413   5.546   6.141  10.613 -0.0947 -0.5944  0.0811
  118OSM    H8S12414   5.582   6.240  10.648 -1.4635  0.9367 -2.6113
  118OSM    H8T12415   5.469   6.167  10.538 -0.9355 -2.3465  0.2920
  118OSM    C9S12416   5.664   6.066  10.548  0.3993 -0.5742 -0.7313
  118OSM    H9S12417   5.628   5.964  10.525  0.2823 -0.3909 -1.4017
  118OSM    H9T12418   5.748   6.063  10.620  0.4731  0.7107 -0.7388
  118OSM   C10S12419   5.702   6.130  10.413 -0.8261  0.1904  0.5216
  118OSM   H10S12420   5.786   6.071  10.369  1.2169  1.1345  2.8969
  118OSM   H10T12421   5.737   6.235  10.428  0.0603 -0.2801  1.9938
  118OSM   C11S12422   5.597   6.106  10.299  0.1148 -0.7103  0.6715
  118OSM   H11S12423   5.499   6.134  10.344 -0.2988  0.9261 -1.0990
  118OSM   H11T12424   5.582   6.000  10.270 -0.7887 -0.4611  0.1796
  118OSM   C12S12425   5.630   6.186  10.172  1.0089  0.0950 -0.1172
  118OSM   H12S12426   5.630   6.291  10.207 -0.2358 -0.6851  2.4331
  118OSM   H12T12427   5.544   6.168  10.104  0.3752 -2.1863  1.1623
  118OSM   C13S12428   5.761   6.149  10.101  0.3682 -0.1089  0.4888
  118OSM   H13S12429   5.777   6.039  10.106 -0.7949 -0.3401 -0.4066
  118OSM   H13T12430   5.851   6.199  10.144  0.0431 -0.1935  1.2816
  118OSM   C14S12431   5.760   6.206   9.953 -0.4064  0.6391  0.3290
  118OSM   H14S12432   5.869   6.210   9.935 -0.3923  1.2665  0.5500
  118OSM   H14T12433   5.706   6.303   9.953 -1.4655  0.0934  2.0345
  118OSM   C15S12434   5.693   6.103   9.860  0.6178 -0.0353 -0.3819
  118OSM   H15S12435   5.593   6.072   9.897  0.5506 -0.0294 -0.5560
  118OSM   H15T12436   5.752   6.009   9.848  0.2532 -0.3378  0.1525
  118OSM   C16S12437   5.659   6.152   9.717  0.4172 -0.0939 -0.4664
  118OSM   H16S12438   5.603   6.248   9.730 -0.8239 -0.8513 -0.0814
  118OSM   H16T12439   5.589   6.079   9.670  0.1335 -0.6735  0.8380
  118OSM   C17S12440   5.772   6.178   9.628  0.2667 -0.0363  0.2617
  118OSM   H17S12441   5.815   6.081   9.595 -0.4561  0.0946 -1.1336
  118OSM   H17T12442   5.853   6.212   9.696 -0.7655  0.0979  1.4700
  118OSM   C18S12443   5.742   6.274   9.520 -0.3869 -0.8163  0.7326
  118OSM   H18S12444   5.734   6.381   9.549 -0.5364  0.1191 -2.4575
  118OSM   H18T12445   5.646   6.256   9.466  0.1903 -1.7527  0.0026
  118OSM   H18U12446   5.825   6.268   9.447 -1.3312  0.0492 -0.4602
  118OSM    C1F12447   4.990   5.742  10.850 -0.6811  0.0657 -0.0163
  118OSM     OF12448   4.896   5.818  10.877 -0.4621 -0.7922 -0.4534
  118OSM    C2F12449   4.993   5.639  10.737  0.1700 -0.6926  0.4985
  118OSM    H2F12450   5.032   5.548  10.787 -1.1261 -0.2860  2.3783
  118OSM    H2G12451   5.070   5.679  10.669  0.9403 -2.9722 -0.0773
  118OSM    C3F12452   4.854   5.616  10.676 -0.3140  0.1279  0.3395
  118OSM    H3F12453   4.815   5.715  10.644  0.1791  1.7105  4.0550
  118OSM    H3G12454   4.798   5.574  10.763 -1.5221 -2.7774 -1.6649
  118OSM    C4F12455   4.846   5.500  10.573  0.0883 -0.2987 -0.2540
  118OSM    H4F12456   4.740   5.471  10.555  0.5163 -0.7747 -2.1155
  118OSM    H4G12457   4.912   5.419  10.609  0.8211  0.0505 -0.7764
  118OSM    C5F12458   4.902   5.543  10.439  0.0794 -0.2396  0.1432
  118OSM    H5F12459   4.915   5.457  10.369 -2.1579  1.3255 -2.4555
  118OSM    H5G12460   4.996   5.600  10.454 -0.3393  0.3761  0.4445
  118OSM    C6F12461   4.810   5.636  10.357  0.0502  0.3272 -0.5219
  118OSM    H6F12462   4.770   5.716  10.424 -0.4165 -1.2325  1.1322
  118OSM    H6G12463   4.719   5.585  10.319 -0.6316 -0.0345  1.4528
  118OSM    C7F12464   4.879   5.704  10.240 -0.9308 -0.0361 -0.4765
  118OSM    H7F12465   4.902   5.628  10.162 -0.2154  0.1435 -0.4515
  118OSM    H7G12466   4.979   5.737  10.275 -1.0962 -1.5206  1.6164
  118OSM    C8F12467   4.805   5.826  10.181  0.3758  0.2727  0.7200
  118OSM    H8F12468   4.812   5.897  10.266 -0.0152  0.2210  0.7954
  118OSM    H8G12469   4.700   5.804  10.153  0.5913  2.3570 -2.1476
  118OSM    C9F12470   4.876   5.871  10.055  0.4766 -0.4211 -0.9059
  118OSM    H9F12471   4.934   5.962  10.075  0.0963 -0.2789 -0.4252
  118OSM   C10F12472   4.860   5.815   9.933 -0.3050  0.2065 -0.0069
  118OSM   H10F12473   4.933   5.850   9.858  0.8025 -1.9039  0.0106
  118OSM   C11F12474   4.773   5.693   9.897  0.0804  0.1753 -0.3993
  118OSM   H11F12475   4.694   5.669   9.971 -1.1298  1.7136 -1.1582
  118OSM   H11G12476   4.827   5.596   9.883 -1.6739 -1.2314  1.7479
  118OSM   C12F12477   4.714   5.728   9.764 -0.7378  0.8802 -0.4256
  118OSM   H12F12478   4.647   5.817   9.757 -0.6360  1.0403  0.5448
  118OSM   H12G12479   4.639   5.650   9.737 -0.2465 -0.2120  1.2420
  118OSM   C13F12480   4.806   5.711   9.642  0.7879 -0.1492 -0.3399
  118OSM   H13F12481   4.838   5.608   9.615  3.4127 -0.0499  1.8685
  118OSM   H13G12482   4.890   5.782   9.661 -0.1943  1.1154 -0.5573
  118OSM   C14F12483   4.715   5.766   9.526 -0.2079 -0.1493 -0.7027
  118OSM   H14F12484   4.697   5.872   9.554  1.7932 -0.3475  1.6265
  118OSM   H14G12485   4.613   5.721   9.523  0.2096 -1.5879  2.6046
  118OSM   C15F12486   4.776   5.760   9.390 -0.7712  0.5347  0.0014
  118OSM   H15F12487   4.771   5.656   9.350 -0.7772  0.9232 -1.0527
  118OSM   H15G12488   4.882   5.794   9.389 -0.7891  0.7394  1.8923
  118OSM   C16F12489   4.687   5.835   9.288 -0.6779  0.5453  0.4053
  118OSM   H16F12490   4.658   5.937   9.320 -0.7979  0.1168  1.7099
  118OSM   H16G12491   4.598   5.769   9.291 -0.0293 -0.3134  3.4473
  118OSM   C17F12492   4.739   5.842   9.145  0.1393  0.7846 -0.0640
  118OSM   H17F12493   4.749   5.736   9.113 -1.1596 -0.0388  2.0652
  118OSM   H17G12494   4.829   5.907   9.144  0.1894  0.8607  2.6419
  118OSM   C18F12495   4.642   5.900   9.048 -0.4668  0.5342  0.2862
  118OSM   H18F12496   4.541   5.905   9.094  0.3441  0.0290  2.2279
  118OSM   H18G12497   4.622   5.848   8.952  3.0449  2.8157 -1.9031
  118OSM   H18H12498   4.668   6.007   9.034 -1.6030  0.8166  0.2698
  119OSM      N12499   4.003   5.694  11.149 -0.3198  0.3505  0.9358
  119OSM    C1512500   3.970   5.794  11.044  0.0880 -0.2951  0.3994
  119OSM   H15A12501   3.956   5.891  11.089  1.1816  0.7013 -1.3039
  119OSM   H15B12502   3.881   5.780  10.985 -1.8250  1.5959  2.6764
  119OSM   H15C12503   4.050   5.784  10.972  1.5055  1.2709  1.6623
  119OSM    C1412504   3.879   5.658  11.223  0.6212 -0.3506  0.1138
  119OSM   H14A12505   3.831   5.745  11.264  0.1810 -0.4073 -0.2790
  119OSM   H14B12506   3.894   5.580  11.296  1.2122 -1.4519 -1.1390
  119OSM   H14C12507   3.810   5.616  11.151 -3.8585  1.4607  2.9804
  119OSM    C1312508   4.058   5.573  11.076 -0.5455 -0.1539 -0.2177
  119OSM   H13A12509   4.154   5.595  11.032 -0.4754  1.2726  0.5814
  119OSM   H13B12510   3.995   5.546  10.992 -0.2215 -1.2828 -0.1164
  119OSM   H13C12511   4.077   5.486  11.137 -1.6394 -1.1254 -1.2157
  119OSM    C1212512   4.110   5.760  11.237 -0.4383 -0.0950 -0.1442
  119OSM   H12A12513   4.184   5.783  11.162 -1.5130  3.1446 -0.3784
  119OSM   H12B12514   4.153   5.686  11.304  0.7568  1.5370  0.9700
  119OSM    C1112515   4.090   5.879  11.329  0.3644 -1.4271  0.0242
  119OSM   H11A12516   4.194   5.912  11.348 -0.7249  2.4212  0.0769
  119OSM   H11B12517   4.041   5.842  11.422  0.1455 -1.3354 -0.0522
  119OSM      P12518   4.049   6.133  11.291 -0.2521 -0.2239  1.0195
  119OSM    O1312519   3.918   6.208  11.282 -0.0858  0.3395 -0.3451
  119OSM    O1412520   4.127   6.151  11.416 -0.1498 -0.8093 -0.5759
  119OSM    O1112521   4.137   6.172  11.155  0.6093  0.6739 -0.5055
  119OSM    O1212522   4.012   5.983  11.271  0.9290 -0.0912 -0.2812
  119OSM    C1S12523   4.073   6.157  11.026 -0.6844 -0.7145 -1.0863
  119OSM    H1S12524   4.011   6.249  11.013  2.5297  1.9368  0.6812
  119OSM    H1T12525   4.008   6.068  11.015  0.9753 -1.9214 -1.3906
  119OSM     NF12526   4.142   6.185  10.775  0.5667  0.5158  0.3801
  119OSM    HNF12527   4.118   6.114  10.710  0.3118  0.7100  0.2600
  119OSM    C2S12528   4.187   6.154  10.917 -0.0481 -0.4929  0.3869
  119OSM    H2S12529   4.259   6.236  10.938 -2.2600  2.2549 -1.8752
  119OSM    C3S12530   4.260   6.018  10.925 -0.0358 -0.6155 -0.0306
  119OSM    H3S12531   4.191   5.942  10.883 -1.4709 -0.2820  1.5861
  119OSM     O312532   4.288   5.979  11.059 -1.0541  0.5170 -0.3551
  119OSM    HO312533   4.231   6.027  11.119 -1.6163 -1.0103  0.3828
  119OSM    C4S12534   4.381   6.008  10.836  0.8852 -0.2401  0.5960
  119OSM    H4S12535   4.450   6.092  10.853 -1.6921  1.6224  2.4843
  119OSM    C5S12536   4.404   5.908  10.747 -0.3058  0.5234  0.6585
  119OSM    H5S12537   4.327   5.830  10.747 -0.2229  0.4424  0.8573
  119OSM    C6S12538   4.517   5.891  10.648 -0.2342 -0.1644  0.1323
  119OSM    H6S12539   4.577   5.801  10.670  0.3251  0.4202  1.0477
  119OSM    H6T12540   4.592   5.973  10.653 -1.5455  1.0896  0.0121
  119OSM    C7S12541   4.473   5.883  10.496 -1.2024  0.6813 -0.1471
  119OSM    H7S12542   4.567   5.888  10.437 -1.7280  0.6864 -0.9869
  119OSM    H7T12543   4.415   5.974  10.472  0.8337  1.5630 -2.0433
  119OSM    C8S12544   4.387   5.761  10.466  0.4270  0.2469 -0.1318
  119OSM    H8S12545   4.303   5.762  10.539  1.8988  1.0410  1.6448
  119OSM    H8T12546   4.452   5.670  10.466  1.1900  0.6789 -3.1027
  119OSM    C9S12547   4.312   5.774  10.336 -0.4888  0.0824 -0.1922
  119OSM    H9S12548   4.231   5.849  10.350 -1.6935 -1.2870  0.5110
  119OSM    H9T12549   4.256   5.678  10.329  1.5877 -1.1490 -0.5652
  119OSM   C10S12550   4.409   5.797  10.212  0.0131 -0.7215  0.2024
  119OSM   H10S12551   4.475   5.711  10.189 -0.8039 -0.9108 -1.5884
  119OSM   H10T12552   4.479   5.880  10.236  0.2419 -1.0751  0.7668
  119OSM   C11S12553   4.327   5.824  10.086  0.0245 -0.1911  0.0935
  119OSM   H11S12554   4.268   5.917  10.103 -0.4907 -0.5358  0.2409
  119OSM   H11T12555   4.254   5.740  10.093  0.1038 -0.3501 -0.8666
  119OSM   C12S12556   4.404   5.849   9.956  0.0268 -0.1995  0.1966
  119OSM   H12S12557   4.444   5.748   9.935 -0.3668 -0.3711  0.2793
  119OSM   H12T12558   4.485   5.923   9.973 -1.3816  1.5940 -0.4844
  119OSM   C13S12559   4.307   5.892   9.846 -0.2374 -0.0880 -0.0020
  119OSM   H13S12560   4.282   6.000   9.858  2.2477  0.8173 -2.0735
  119OSM   H13T12561   4.215   5.831   9.854  1.5426 -2.8005  1.2302
  119OSM   C14S12562   4.365   5.866   9.706 -0.5314 -0.6794 -0.5142
  119OSM   H14S12563   4.424   5.772   9.695  0.8199  0.1997 -1.1318
  119OSM   H14T12564   4.446   5.941   9.691 -1.0486  0.1636  0.7691
  119OSM   C15S12565   4.263   5.877   9.594  0.1341 -0.7966 -0.3001
  119OSM   H15S12566   4.231   5.983   9.587  0.8726 -0.6678 -2.3418
  119OSM   H15T12567   4.169   5.821   9.614 -0.0898 -0.0873  0.7469
  119OSM   C16S12568   4.323   5.845   9.456 -0.2511  0.0889  0.8677
  119OSM   H16S12569   4.301   5.741   9.422 -0.0376  0.4961 -0.5544
  119OSM   H16T12570   4.432   5.864   9.455 -0.4051  0.9781  0.3095
  119OSM   C17S12571   4.277   5.944   9.338 -0.5598  0.1505 -0.1464
  119OSM   H17S12572   4.329   5.906   9.247 -0.4732 -0.1128  0.0107
  119OSM   H17T12573   4.317   6.043   9.368 -1.3408 -0.0895  1.8077
  119OSM   C18S12574   4.127   5.944   9.317 -1.6033 -0.3185 -0.4017
  119OSM   H18S12575   4.091   6.032   9.259  0.4758  0.7981 -0.0732
  119OSM   H18T12576   4.089   5.934   9.421  1.7863  0.5196  1.0454
  119OSM   H18U12577   4.102   5.855   9.254 -0.4306  0.0672 -1.4513
  119OSM    C1F12578   4.088   6.300  10.744  0.1992  0.1213 -0.8155
  119OSM     OF12579   4.082   6.387  10.828 -0.3596  0.1701  0.6195
  119OSM    C2F12580   4.035   6.327  10.606 -0.3737  1.0605 -0.0321
  119OSM    H2F12581   3.983   6.425  10.602  0.5166  1.5328 -0.2894
  119OSM    H2G12582   3.957   6.249  10.591  0.5104  0.1279  0.1221
  119OSM    C3F12583   4.141   6.312  10.498  0.1415 -0.3665  0.2341
  119OSM    H3F12584   4.168   6.206  10.479  2.3796  0.1245  0.4058
  119OSM    H3G12585   4.231   6.370  10.527  0.4466 -0.6134 -0.2143
  119OSM    C4F12586   4.096   6.386  10.365  0.9741  0.2804  0.6063
  119OSM    H4F12587   4.115   6.495  10.377 -2.1078  1.0459 -0.4200
  119OSM    H4G12588   3.985   6.375  10.355  1.0755  0.2505 -0.5101
  119OSM    C5F12589   4.164   6.344  10.232 -0.4715 -0.1132 -0.5190
  119OSM    H5F12590   4.178   6.234  10.239  0.9959  0.0857  0.0840
  119OSM    H5G12591   4.270   6.380  10.234 -0.7927  0.9466 -1.5935
  119OSM    C6F12592   4.104   6.390  10.101  0.2910 -0.3073 -0.2207
  119OSM    H6F12593   4.104   6.501  10.105 -1.8409 -0.3005  2.3703
  119OSM    H6G12594   3.995   6.366  10.099  0.8359 -2.9748 -0.8337
  119OSM    C7F12595   4.191   6.354   9.984  0.2309  0.2213 -0.7973
  119OSM    H7F12596   4.225   6.248   9.990 -0.3860 -0.1462 -2.8110
  119OSM    H7G12597   4.277   6.424   9.982 -1.1574  2.0109 -1.1029
  119OSM    C8F12598   4.111   6.357   9.854 -0.3130 -0.2074 -0.9744
  119OSM    H8F12599   4.102   6.462   9.817 -2.9452  0.1370  0.4371
  119OSM    H8G12600   4.004   6.329   9.866  0.0477 -0.9437  0.6748
  119OSM    C9F12601   4.171   6.275   9.749  0.3838  0.0502  0.2469
  119OSM    H9F12602   4.228   6.188   9.784 -1.3603 -1.2561 -0.0038
  119OSM   C10F12603   4.134   6.283   9.622 -0.4312  0.0107  1.0711
  119OSM   H10F12604   4.178   6.216   9.547  1.9110 -0.8774  3.1008
  119OSM   C11F12605   4.028   6.375   9.571  0.2925 -0.4169  0.0621
  119OSM   H11F12606   4.073   6.473   9.543  1.8731 -1.2039 -0.2655
  119OSM   H11G12607   3.954   6.391   9.652  1.9912  0.8698  1.4242
  119OSM   C12F12608   3.950   6.330   9.445 -0.1988 -0.5659 -1.0324
  119OSM   H12F12609   3.891   6.245   9.483  1.2855 -0.8895  0.6936
  119OSM   H12G12610   4.021   6.296   9.366 -0.7773  0.0932 -1.8532
  119OSM   C13F12611   3.864   6.445   9.384  0.2640 -0.0509 -0.4498
  119OSM   H13F12612   3.925   6.531   9.346 -0.5925  1.1629  0.8150
  119OSM   H13G12613   3.806   6.477   9.473 -0.0129 -2.7184  0.4147
  119OSM   C14F12614   3.767   6.395   9.272 -0.4727  0.1101  0.7284
  119OSM   H14F12615   3.692   6.320   9.304 -1.1016 -0.6223 -2.2230
  119OSM   H14G12616   3.821   6.348   9.187  1.0992 -2.5783  3.0110
  119OSM   C15F12617   3.679   6.505   9.222 -0.1520  0.4117 -0.1469
  119OSM   H15F12618   3.727   6.601   9.193 -1.7336  0.6110 -2.3822
  119OSM   H15G12619   3.606   6.544   9.295 -0.7882  1.0705 -1.1117
  119OSM   C16F12620   3.600   6.453   9.096  0.4256 -0.4352  0.0092
  119OSM   H16F12621   3.552   6.357   9.123 -0.7232  0.1569  0.1538
  119OSM   H16G12622   3.674   6.431   9.017 -1.1071 -0.0430 -1.5931
  119OSM   C17F12623   3.490   6.544   9.053  0.3449  0.1923 -0.1559
  119OSM   H17F12624   3.530   6.637   9.006  1.0723 -0.3490 -0.6163
  119OSM   H17G12625   3.430   6.564   9.144  1.0903  2.7913 -0.1553
  119OSM   C18F12626   3.414   6.464   8.948  0.9124  0.0427  0.3251
  119OSM   H18F12627   3.329   6.531   8.926  0.4960 -0.4636  0.3680
  119OSM   H18G12628   3.391   6.363   8.990  2.0408 -0.2763  0.2124
  119OSM   H18H12629   3.478   6.445   8.859  1.5758  1.1824  0.5414
  120OSM      N12630   5.058   3.336  11.262 -0.3669  0.2486 -0.1857
  120OSM    C1512631   4.994   3.224  11.342 -0.2828  0.2834  0.0645
  120OSM   H15A12632   5.030   3.220  11.444 -0.9408  1.5654  0.3641
  120OSM   H15B12633   5.019   3.138  11.282 -4.4113 -2.7859  2.2013
  120OSM   H15C12634   4.887   3.238  11.335 -0.1601  2.5698  1.6767
  120OSM    C1412635   5.029   3.468  11.326 -0.6509 -0.7702 -0.5239
  120OSM   H14A12636   5.088   3.476  11.416 -1.3211 -0.7206 -0.0843
  120OSM   H14B12637   4.927   3.477  11.358 -0.6043  0.2875 -0.6131
  120OSM   H14C12638   5.053   3.546  11.255  0.9486 -1.0568 -0.3306
  120OSM    C1312639   5.202   3.316  11.251  0.4113 -0.0978  0.2810
  120OSM   H13A12640   5.244   3.302  11.349 -0.3304  0.9861  0.7763
  120OSM   H13B12641   5.244   3.410  11.216  0.5857  0.3275  1.5687
  120OSM   H13C12642   5.230   3.247  11.173  1.9737  1.0683 -0.2506
  120OSM    C1212643   4.993   3.346  11.121 -0.8329  0.0350  0.1294
  120OSM   H12A12644   5.042   3.420  11.059 -0.5546  1.8807  2.4395
  120OSM   H12B12645   4.890   3.376  11.122 -0.6187  0.8162 -0.2803
  120OSM    C1112646   4.998   3.216  11.030  0.5313 -0.2355 -0.5080
  120OSM   H11A12647   4.940   3.247  10.941  3.7711  1.5052 -2.1850
  120OSM   H11B12648   4.940   3.145  11.092 -1.0064  0.5059 -1.0442
  120OSM      P12649   5.171   3.033  10.971 -0.5478 -0.0633 -0.0782
  120OSM    O1312650   5.317   3.004  10.980 -0.5188 -0.2836  0.4967
  120OSM    O1412651   5.082   2.940  11.044  0.6231 -0.4595 -0.0806
  120OSM    O1112652   5.131   3.044  10.817  0.5911 -0.0077 -0.0146
  120OSM    O1212653   5.141   3.186  11.005  0.3637  0.0569 -0.4919
  120OSM    C1S12654   5.224   3.000  10.718  0.2481  0.1408  0.2023
  120OSM    H1S12655   5.238   2.890  10.724 -2.0867 -0.2624 -0.4582
  120OSM    H1T12656   5.324   3.047  10.724 -0.0560  0.9990 -0.8818
  120OSM     NF12657   5.231   2.982  10.472  0.2751 -0.3696  0.3900
  120OSM    HNF12658   5.298   3.031  10.416 -1.0586  3.3008  1.6866
  120OSM    C2S12659   5.159   3.047  10.581 -0.6982 -0.5415 -0.4116
  120OSM    H2S12660   5.053   3.014  10.589 -0.1155 -2.1489  2.2144
  120OSM    C3S12661   5.177   3.206  10.581 -0.2645  0.3449  0.1187
  120OSM    H3S12662   5.285   3.227  10.593 -0.3101  3.1304 -2.8860
  120OSM     O312663   5.110   3.277  10.687  0.1161  0.2199  0.1409
  120OSM    HO312664   5.086   3.209  10.749  0.6292 -1.5361 -1.4834
  120OSM    C4S12665   5.111   3.255  10.464  0.9312  0.0394 -0.3567
  120OSM    H4S12666   5.008   3.218  10.454  0.4017  0.9874  1.2701
  120OSM    C5S12667   5.160   3.344  10.381 -1.0380  0.2300 -0.3544
  120OSM    H5S12668   5.256   3.395  10.397 -1.8880  2.2369 -1.3444
  120OSM    C6S12669   5.098   3.389  10.256  0.6282 -0.1857 -0.0094
  120OSM    H6S12670   5.002   3.338  10.236  0.0407  0.7936  0.2579
  120OSM    H6T12671   5.165   3.381  10.167 -0.6442 -1.9614 -0.8585
  120OSM    C7S12672   5.051   3.540  10.253  0.1995  0.3120 -0.5933
  120OSM    H7S12673   5.143   3.603  10.260 -1.0068  1.9706  2.3108
  120OSM    H7T12674   5.002   3.565  10.350  1.7543 -1.2968  0.6840
  120OSM    C8S12675   4.974   3.586  10.129  0.5143 -0.0152 -0.1516
  120OSM    H8S12676   4.963   3.696  10.139 -1.4280 -0.1968  0.1094
  120OSM    H8T12677   4.872   3.544  10.117  1.0058 -1.1064 -0.5604
  120OSM    C9S12678   5.026   3.533   9.997  0.4457  0.0572  0.2837
  120OSM    H9S12679   5.009   3.425   9.977  1.2322  0.0809 -0.5861
  120OSM    H9T12680   5.136   3.549   9.994  0.3135  0.8157 -2.0371
  120OSM   C10S12681   4.969   3.592   9.867  0.0148  1.1239 -0.0631
  120OSM   H10S12682   4.987   3.701   9.854  1.4337  0.6749 -2.4467
  120OSM   H10T12683   4.860   3.570   9.863 -0.0137 -0.5110  4.1950
  120OSM   C11S12684   5.032   3.522   9.747 -0.0296 -0.3367  0.1940
  120OSM   H11S12685   5.025   3.411   9.754  3.2154 -0.7712 -1.3673
  120OSM   H11T12686   5.143   3.532   9.747 -0.0648  0.1040  0.7985
  120OSM   C12S12687   4.983   3.589   9.620 -0.3909 -0.1410  0.1625
  120OSM   H12S12688   5.009   3.697   9.621  2.4182 -0.6649 -2.3906
  120OSM   H12T12689   4.872   3.592   9.620 -0.3832  2.3561 -0.6405
  120OSM   C13S12690   5.049   3.513   9.500 -0.4374  0.3818  0.2108
  120OSM   H13S12691   5.023   3.406   9.516 -0.3848  0.6473  2.2608
  120OSM   H13T12692   5.158   3.534   9.493 -0.8163  2.1254 -1.1550
  120OSM   C14S12693   4.990   3.569   9.370 -1.2350 -0.1235 -0.3158
  120OSM   H14S12694   5.015   3.676   9.361 -1.4163  0.0188  0.7113
  120OSM   H14T12695   4.879   3.571   9.380 -1.0804  1.9954  1.8698
  120OSM   C15S12696   5.050   3.498   9.244 -0.6564 -0.0939 -0.5184
  120OSM   H15S12697   5.003   3.530   9.149 -0.2322  0.3381 -0.5874
  120OSM   H15T12698   5.050   3.389   9.265 -2.3040 -0.0318 -0.0850
  120OSM   C16S12699   5.201   3.531   9.227  0.1706  0.0115  0.2539
  120OSM   H16S12700   5.227   3.628   9.275 -1.6926  0.3993  0.5671
  120OSM   H16T12701   5.214   3.538   9.117  1.0451 -0.5777  0.3110
  120OSM   C17S12702   5.303   3.423   9.258  0.3412 -0.1282  1.2447
  120OSM   H17S12703   5.300   3.387   9.363  2.4362 -1.0979  1.0242
  120OSM   H17T12704   5.402   3.472   9.248  0.7885 -1.0910  0.7937
  120OSM   C18S12705   5.294   3.292   9.170 -0.1363 -0.4448 -0.2270
  120OSM   H18S12706   5.302   3.325   9.065  3.2402 -2.5592 -0.7724
  120OSM   H18T12707   5.193   3.247   9.175 -1.7915  2.8107 -1.4862
  120OSM   H18U12708   5.377   3.220   9.188 -2.3157 -2.6556  1.6364
  120OSM    C1F12709   5.203   2.860  10.436  0.4771 -1.1289  0.4469
  120OSM     OF12710   5.124   2.793  10.498  0.2229 -0.0795  0.3820
  120OSM    C2F12711   5.274   2.804  10.318  0.1249  0.3794 -0.1660
  120OSM    H2F12712   5.379   2.841  10.311  1.0335 -2.1719 -1.2833
  120OSM    H2G12713   5.231   2.835  10.221  2.0457  0.2762 -1.0995
  120OSM    C3F12714   5.280   2.650  10.323 -0.6640  0.6736 -0.4193
  120OSM    H3F12715   5.180   2.612  10.355  0.2074 -1.4380 -0.1039
  120OSM    H3G12716   5.347   2.617  10.405 -1.9023  0.7743  0.6780
  120OSM    C4F12717   5.324   2.582  10.191 -0.8038 -0.6986  0.6116
  120OSM    H4F12718   5.322   2.471  10.193 -2.0902 -0.7412 -1.0650
  120OSM    H4G12719   5.431   2.609  10.174 -1.0938 -0.2379 -0.5699
  120OSM    C5F12720   5.236   2.620  10.072  0.2625 -0.1841 -0.0016
  120OSM    H5F12721   5.228   2.730  10.062 -0.2821 -0.1706  0.5254
  120OSM    H5G12722   5.132   2.580  10.078  0.3145 -0.5760 -1.4195
  120OSM    C6F12723   5.294   2.563   9.939 -0.2813 -0.0050  1.1602
  120OSM    H6F12724   5.281   2.454   9.928  0.7343  0.1039 -2.9506
  120OSM    H6G12725   5.404   2.581   9.938 -0.4640  1.5378 -1.2787
  120OSM    C7F12726   5.225   2.628   9.819  0.3883  0.0038  0.9770
  120OSM    H7F12727   5.225   2.738   9.832 -0.2628 -0.0375  1.3133
  120OSM    H7G12728   5.118   2.602   9.828 -0.1637  2.6470  2.9500
  120OSM    C8F12729   5.291   2.588   9.683  0.5721  0.1119  0.5166
  120OSM    H8F12730   5.399   2.607   9.700  0.8385 -1.2068  0.4449
  120OSM    H8G12731   5.251   2.660   9.608  0.4073 -1.3077 -0.8215
  120OSM    C9F12732   5.269   2.443   9.638  0.4475 -0.0695 -0.8738
  120OSM    H9F12733   5.320   2.368   9.701  1.0495  1.4755  0.5629
  120OSM   C10F12734   5.186   2.402   9.546  0.5743 -0.4278  0.2633
  120OSM   H10F12735   5.198   2.298   9.514 -0.5017 -1.0770  1.8352
  120OSM   C11F12736   5.099   2.492   9.461  0.0015 -0.0549 -0.3445
  120OSM   H11F12737   5.110   2.458   9.356  0.3014  0.2696 -0.4220
  120OSM   H11G12738   5.128   2.600   9.456  2.7498 -0.7565 -1.5848
  120OSM   C12F12739   4.953   2.489   9.513 -0.0030 -0.1549 -0.0903
  120OSM   H12F12740   4.950   2.497   9.624  0.9198 -1.1608  0.0240
  120OSM   H12G12741   4.902   2.391   9.496 -0.8810  0.2101  0.3997
  120OSM   C13F12742   4.875   2.603   9.456 -0.2784 -0.7578 -0.2086
  120OSM   H13F12743   4.935   2.697   9.454 -0.9496 -0.2881  1.0059
  120OSM   H13G12744   4.788   2.627   9.520  1.4662  1.3216  1.5418
  120OSM   C14F12745   4.808   2.570   9.321 -0.2945  0.1272 -0.3291
  120OSM   H14F12746   4.745   2.481   9.345  1.4997 -0.8070  1.1607
  120OSM   H14G12747   4.881   2.530   9.247 -0.7188  1.2919 -1.3957
  120OSM   C15F12748   4.724   2.675   9.256 -0.0396  0.2501 -0.5431
  120OSM   H15F12749   4.780   2.770   9.270 -1.5243  0.8600  1.8793
  120OSM   H15G12750   4.639   2.695   9.325 -0.6067  3.4071 -1.9778
  120OSM   C16F12751   4.676   2.640   9.113 -0.5366 -0.3383 -0.6796
  120OSM   H16F12752   4.608   2.722   9.081 -0.0391  0.1577 -0.4875
  120OSM   H16G12753   4.624   2.544   9.129  1.0181 -1.0229  0.5684
  120OSM   C17F12754   4.778   2.643   8.998  0.6133  0.1370 -1.0578
  120OSM   H17F12755   4.850   2.562   9.020 -0.7047 -1.0352 -0.9356
  120OSM   H17G12756   4.825   2.741   8.975 -0.4313  0.6819 -0.9222
  120OSM   C18F12757   4.727   2.594   8.859  0.2417 -0.0652 -0.2788
  120OSM   H18F12758   4.807   2.594   8.783 -0.7628 -3.6495 -1.5357
  120OSM   H18G12759   4.646   2.657   8.818  0.8734  1.1173  0.2525
  120OSM   H18H12760   4.687   2.490   8.860  0.4549 -0.1716 -1.4453
  121OSM      N12761   2.826   6.391  11.387 -0.0932  0.3574 -0.2370
  121OSM    C1512762   2.732   6.470  11.472  0.5185 -0.3097 -0.3170
  121OSM   H15A12763   2.770   6.468  11.573 -2.1228  1.7768  0.8392
  121OSM   H15B12764   2.634   6.427  11.488 -0.2955  1.6641  0.3831
  121OSM   H15C12765   2.714   6.575  11.452  0.8418  0.6199  3.4431
  121OSM    C1412766   2.964   6.444  11.391 -0.4426  0.0352 -0.2132
  121OSM   H14A12767   2.980   6.533  11.333  0.4205  0.2636  0.3581
  121OSM   H14B12768   3.033   6.369  11.355 -0.8166  0.1642 -1.2443
  121OSM   H14C12769   2.985   6.479  11.491  1.6000  1.7451 -1.1691
  121OSM    C1312770   2.813   6.254  11.456 -0.1837  0.4890 -0.1207
  121OSM   H13A12771   2.848   6.256  11.559  0.4906 -0.0960 -0.3256
  121OSM   H13B12772   2.874   6.178  11.409  1.3347 -0.1993  2.6724
  121OSM   H13C12773   2.712   6.217  11.460  0.3474 -1.2472 -1.4744
  121OSM    C1212774   2.771   6.378  11.247  0.6974 -0.0382 -0.2741
  121OSM   H12A12775   2.782   6.480  11.213 -0.8125  0.7304  1.3604
  121OSM   H12B12776   2.665   6.358  11.256  0.7014 -0.5331 -1.2640
  121OSM    C1112777   2.839   6.281  11.149 -0.3390 -0.0092 -0.0148
  121OSM   H11A12778   2.950   6.283  11.153 -0.3303 -0.0264 -0.2390
  121OSM   H11B12779   2.815   6.320  11.048 -3.6832 -0.8457  0.3039
  121OSM      P12780   2.685   6.075  11.098 -0.1319 -0.0303 -0.0090
  121OSM    O1312781   2.684   5.933  11.136 -0.6232 -0.1537 -0.1720
  121OSM    O1412782   2.558   6.147  11.115  0.2379  0.0030 -0.1970
  121OSM    O1112783   2.721   6.093  10.949  0.5556 -0.4594 -0.2895
  121OSM    O1212784   2.807   6.145  11.165 -0.1799 -0.7509  0.0627
  121OSM    C1S12785   2.847   6.061  10.886  0.1366  0.0854 -0.0720
  121OSM    H1S12786   2.865   5.953  10.901  1.5098  0.2680 -0.3183
  121OSM    H1T12787   2.930   6.110  10.941  0.7913 -0.3502 -0.6577
  121OSM     NF12788   3.002   6.073  10.693 -0.2483 -0.4242 -0.5027
  121OSM    HNF12789   3.062   6.152  10.681 -1.2016  0.5847  0.9023
  121OSM    C2S12790   2.866   6.103  10.736  0.5308 -0.2722 -0.0561
  121OSM    H2S12791   2.799   6.035  10.679  1.1989 -0.1385 -1.0245
  121OSM    C3S12792   2.831   6.248  10.714 -0.0444  0.5133 -0.0572
  121OSM    H3S12793   2.912   6.316  10.749 -0.6215  0.1911  2.0603
  121OSM     O312794   2.722   6.297  10.795  0.0127  0.5382  0.3412
  121OSM    HO312795   2.701   6.228  10.859 -2.2905 -0.0851 -0.9686
  121OSM    C4S12796   2.821   6.279  10.561  0.5103 -0.4197 -0.0662
  121OSM    H4S12797   2.918   6.272  10.509  0.0655 -1.0791 -0.8261
  121OSM    C5S12798   2.711   6.315  10.495 -0.1575  0.2488 -0.5386
  121OSM    H5S12799   2.622   6.342  10.554  0.4130 -0.2010  0.5569
  121OSM    C6S12800   2.708   6.363  10.353 -0.0451  0.3832 -0.3868
  121OSM    H6S12801   2.796   6.430  10.341  1.9643 -1.9619  0.2254
  121OSM    H6T12802   2.615   6.420  10.333 -1.5987 -0.0087  4.3828
  121OSM    C7S12803   2.730   6.249  10.247 -0.1301 -0.0544  0.4321
  121OSM    H7S12804   2.643   6.180  10.249  0.9184 -1.3864  1.4834
  121OSM    H7T12805   2.811   6.179  10.275 -0.5839 -0.7997 -0.0835
  121OSM    C8S12806   2.754   6.309  10.104 -0.5102  0.9176 -0.2095
  121OSM    H8S12807   2.854   6.356  10.097 -0.3716  0.8007  0.8172
  121OSM    H8T12808   2.673   6.382  10.081 -0.7323  0.4422 -0.9762
  121OSM    C9S12809   2.748   6.197   9.996 -0.1153 -0.3796 -0.7447
  121OSM    H9S12810   2.645   6.154   9.989 -1.2371  1.6611  1.7684
  121OSM    H9T12811   2.823   6.119  10.022 -1.6634 -1.3523  1.0934
  121OSM   C10S12812   2.746   6.263   9.857  0.0908  0.0297 -0.5210
  121OSM   H10S12813   2.823   6.343   9.850 -0.4221  0.6969  0.9724
  121OSM   H10T12814   2.648   6.315   9.851 -0.6726 -1.2755  0.1379
  121OSM   C11S12815   2.775   6.159   9.748  0.0713  0.3451 -0.0499
  121OSM   H11S12816   2.692   6.085   9.756  1.4329 -1.3434 -0.9009
  121OSM   H11T12817   2.864   6.097   9.772 -0.1164  1.0170  2.8049
  121OSM   C12S12818   2.770   6.204   9.605 -0.2128 -0.1572  0.1510
  121OSM   H12S12819   2.824   6.298   9.580  1.1704 -0.6058  1.3180
  121OSM   H12T12820   2.662   6.213   9.583 -0.2196  1.6453  0.7479
  121OSM   C13S12821   2.803   6.094   9.500 -1.0834 -0.5750  0.1861
  121OSM   H13S12822   2.761   6.002   9.547  1.5961 -0.7319  2.6091
  121OSM   H13T12823   2.913   6.080   9.507 -0.8608 -0.1618 -1.9581
  121OSM   C14S12824   2.763   6.121   9.354 -0.9359  0.5580 -0.5537
  121OSM   H14S12825   2.824   6.208   9.322 -0.4282  0.2420 -0.4632
  121OSM   H14T12826   2.659   6.160   9.353 -1.6592 -1.0921  1.5978
  121OSM   C15S12827   2.789   6.004   9.259 -0.7024  0.8709  0.0178
  121OSM   H15S12828   2.720   5.923   9.292 -1.3523  1.1378 -0.6789
  121OSM   H15T12829   2.893   5.963   9.262 -0.8010  0.6477  0.7776
  121OSM   C16S12830   2.774   6.021   9.099 -0.1755  0.0080 -0.0596
  121OSM   H16S12831   2.849   6.094   9.061  0.3789  0.4971  1.8531
  121OSM   H16T12832   2.677   6.066   9.068 -0.3969 -1.4436 -1.6253
  121OSM   C17S12833   2.809   5.903   9.019 -0.6626 -0.2688  0.6669
  121OSM   H17S12834   2.715   5.844   9.011 -0.1313 -1.0920  0.3996
  121OSM   H17T12835   2.881   5.838   9.074 -0.2132 -1.3380 -1.1187
  121OSM   C18S12836   2.854   5.924   8.877 -0.6617  0.1086  0.5369
  121OSM   H18S12837   2.964   5.940   8.874 -0.5383 -0.3688  1.8035
  121OSM   H18T12838   2.810   6.015   8.832  0.9295  1.4871  1.6272
  121OSM   H18U12839   2.829   5.833   8.819  1.9423  0.2096 -0.9315
  121OSM    C1F12840   3.054   5.952  10.689  0.2492  0.0707  0.2432
  121OSM     OF12841   2.985   5.851  10.705  0.5074 -0.0996 -0.1870
  121OSM    C2F12842   3.201   5.953  10.662  0.4185  0.1042 -0.2709
  121OSM    H2F12843   3.264   5.937  10.752 -1.0743  2.5848  1.3215
  121OSM    H2G12844   3.242   6.053  10.639  0.1961  0.4077  0.6058
  121OSM    C3F12845   3.244   5.845  10.548  0.6978  0.2806  0.6077
  121OSM    H3F12846   3.177   5.757  10.557  0.1592  0.7307  1.0936
  121OSM    H3G12847   3.353   5.824  10.553  0.5272 -2.0033 -2.3821
  121OSM    C4F12848   3.210   5.903  10.407  0.0803 -0.0360  0.1449
  121OSM    H4F12849   3.262   6.000  10.394 -0.5421  0.6534  2.2752
  121OSM    H4G12850   3.102   5.922  10.388  0.4028  0.8611 -0.8596
  121OSM    C5F12851   3.257   5.803  10.299 -0.0677 -1.3235 -0.3397
  121OSM    H5F12852   3.190   5.715  10.313 -0.8210 -0.6757  0.1781
  121OSM    H5G12853   3.364   5.776  10.313  0.1305  0.2461  1.4921
  121OSM    C6F12854   3.246   5.851  10.152  0.5053  0.3751  0.0233
  121OSM    H6F12855   3.293   5.951  10.138  0.8211 -0.1019 -2.9380
  121OSM    H6G12856   3.139   5.868  10.126  0.6346  1.0546 -0.0822
  121OSM    C7F12857   3.303   5.757  10.049 -0.6728  0.4101 -0.3827
  121OSM    H7F12858   3.266   5.655  10.071  1.1658 -0.3866 -0.8133
  121OSM    H7G12859   3.413   5.748  10.052 -0.6694  0.5211 -0.0802
  121OSM    C8F12860   3.258   5.800   9.905 -0.1080 -0.3163 -0.5373
  121OSM    H8F12861   3.306   5.899   9.895 -0.8902  0.0437 -0.8389
  121OSM    H8G12862   3.148   5.812   9.914 -0.1945 -1.0415 -0.5512
  121OSM    C9F12863   3.311   5.718   9.791 -0.0906  0.2379 -0.4402
  121OSM    H9F12864   3.363   5.625   9.821  0.4666  0.9306  0.8393
  121OSM   C10F12865   3.290   5.743   9.659 -0.0515 -0.0757 -0.5710
  121OSM   H10F12866   3.342   5.679   9.586 -1.9463 -2.5602  0.1054
  121OSM   C11F12867   3.214   5.855   9.599 -0.1131  1.3802  0.0228
  121OSM   H11F12868   3.279   5.933   9.553 -1.1533  0.0916 -4.0701
  121OSM   H11G12869   3.153   5.907   9.676  0.6567 -1.4982  2.7564
  121OSM   C12F12870   3.116   5.805   9.480 -0.2406  0.1555 -0.0961
  121OSM   H12F12871   3.030   5.875   9.468 -1.4744 -1.0237  1.4447
  121OSM   H12G12872   3.073   5.708   9.511 -1.0823  0.7371  0.5962
  121OSM   C13F12873   3.188   5.786   9.346 -0.6732  0.2154  0.2483
  121OSM   H13F12874   3.112   5.741   9.279 -1.2189 -1.5275  1.9598
  121OSM   H13G12875   3.272   5.714   9.360 -2.1862 -1.1838  2.7360
  121OSM   C14F12876   3.238   5.916   9.279  0.1031  0.2835  0.3976
  121OSM   H14F12877   3.309   5.970   9.346 -1.6306  1.7871  1.1024
  121OSM   H14G12878   3.161   5.994   9.261  0.2914 -0.0654 -2.2013
  121OSM   C15F12879   3.304   5.886   9.143 -0.4396  0.4298 -0.4207
  121OSM   H15F12880   3.387   5.821   9.177 -0.1017  0.5152 -1.0790
  121OSM   H15G12881   3.348   5.977   9.097  1.8640 -0.9032 -0.9793
  121OSM   C16F12882   3.209   5.817   9.045  0.1495  0.3868  0.1486
  121OSM   H16F12883   3.111   5.870   9.052  0.2064  0.2811  2.2668
  121OSM   H16G12884   3.180   5.717   9.083  0.8289  0.5182  1.0375
  121OSM   C17F12885   3.256   5.817   8.898  0.2372 -0.0164  0.0719
  121OSM   H17F12886   3.288   5.912   8.850 -1.0039 -0.2451 -1.2859
  121OSM   H17G12887   3.168   5.781   8.841  0.4286  2.2388 -1.7837
  121OSM   C18F12888   3.362   5.703   8.886  0.7304  0.0265 -0.4172
  121OSM   H18F12889   3.328   5.620   8.953 -1.6219  0.5386 -0.8765
  121OSM   H18G12890   3.461   5.746   8.914  1.2287 -0.3348 -1.5851
  121OSM   H18H12891   3.358   5.673   8.779  2.0711  3.6363 -1.6197
  122OSM      N12892   5.469   4.264  11.193 -0.1175 -0.3278  0.0801
  122OSM    C1512893   5.320   4.241  11.213  0.9579  0.3766 -0.5248
  122OSM   H15A12894   5.265   4.331  11.191 -1.0305 -1.1024 -1.9253
  122OSM   H15B12895   5.301   4.208  11.315 -1.5182  1.7528 -0.4779
  122OSM   H15C12896   5.289   4.160  11.148  1.4600 -0.3430  0.1003
  122OSM    C1412897   5.513   4.382  11.270 -0.6273 -0.1930 -1.0714
  122OSM   H14A12898   5.479   4.374  11.372  1.1300 -1.9338 -0.5507
  122OSM   H14B12899   5.469   4.474  11.236 -0.8810 -0.3441 -1.1534
  122OSM   H14C12900   5.620   4.399  11.262 -0.7542  0.6936 -0.9983
  122OSM    C1312901   5.550   4.149  11.240 -0.2848  0.8154  0.1435
  122OSM   H13A12902   5.518   4.058  11.193 -0.7875  1.1193 -0.1101
  122OSM   H13B12903   5.542   4.147  11.348  1.0451  1.3217  0.2731
  122OSM   H13C12904   5.657   4.158  11.228 -0.1300  1.0352  1.5108
  122OSM    C1212905   5.497   4.288  11.047 -0.6085  0.2575 -0.1367
  122OSM   H12A12906   5.498   4.196  10.989  0.3370  0.2285 -0.0964
  122OSM   H12B12907   5.597   4.330  11.041 -0.7373  0.9725  2.1050
  122OSM    C1112908   5.405   4.381  10.967 -0.1137 -0.3276  0.4231
  122OSM   H11A12909   5.304   4.339  10.949 -1.0172  0.7078  2.6645
  122OSM   H11B12910   5.452   4.404  10.869 -1.2518 -0.7250 -0.2323
  122OSM      P12911   5.489   4.630  11.023  0.0799  0.1663  0.3589
  122OSM    O1312912   5.431   4.735  11.110  0.1849  0.3603 -0.0652
  122OSM    O1412913   5.631   4.606  11.043  0.0807 -0.0439 -0.1408
  122OSM    O1112914   5.458   4.665  10.868  0.2582  0.3532  0.0764
  122OSM    O1212915   5.387   4.507  11.036  0.1815 -0.1837 -0.2072
  122OSM    C1S12916   5.555   4.647  10.767  0.6154  0.8433 -0.1161
  122OSM    H1S12917   5.568   4.536  10.762 -0.2539  0.5501  2.3821
  122OSM    H1T12918   5.653   4.686  10.802  0.3460  0.7049  0.8267
  122OSM     NF12919   5.571   4.615  10.518 -0.6135  0.3333  0.2536
  122OSM    HNF12920   5.647   4.657  10.468  0.1632 -1.8691 -0.5038
  122OSM    C2S12921   5.502   4.685  10.629  0.3436  1.0162  0.3576
  122OSM    H2S12922   5.397   4.650  10.619  1.4545 -3.0395  0.8715
  122OSM    C3S12923   5.502   4.841  10.624 -0.2197  0.0346 -0.1197
  122OSM    H3S12924   5.610   4.866  10.628  0.1879 -1.4834 -0.9880
  122OSM     O312925   5.445   4.899  10.739 -0.4877  0.2889  0.4682
  122OSM    HO312926   5.450   4.827  10.802  0.0945 -1.3973 -1.4133
  122OSM    C4S12927   5.427   4.889  10.500 -0.1014 -0.0299  0.1999
  122OSM    H4S12928   5.322   4.857  10.498  0.8616 -3.5380 -0.9955
  122OSM    C5S12929   5.491   4.974  10.413  0.5276  0.4405 -0.2691
  122OSM    H5S12930   5.599   4.994  10.424  0.1633  1.6016  1.6533
  122OSM    C6S12931   5.430   5.038  10.288  0.1994  0.1688  0.0717
  122OSM    H6S12932   5.497   5.017  10.202 -0.0491 -1.5739  0.2824
  122OSM    H6T12933   5.438   5.147  10.311  1.7632 -0.4893  3.2648
  122OSM    C7S12934   5.281   5.011  10.261  0.5321 -0.9646 -0.5874
  122OSM    H7S12935   5.215   5.083  10.314  1.4530 -1.9063  1.9860
  122OSM    H7T12936   5.250   4.908  10.291 -0.0966 -0.2552  1.3900
  122OSM    C8S12937   5.252   5.025  10.113  0.3403  0.0148 -0.0047
  122OSM    H8S12938   5.146   4.992  10.104 -0.2144  1.3535  1.2356
  122OSM    H8T12939   5.317   4.959  10.052 -0.7345 -1.7466  0.6341
  122OSM    C9S12940   5.264   5.170  10.067 -0.0945  0.7463 -0.0509
  122OSM    H9S12941   5.295   5.169   9.960  1.4573  1.1502  0.3759
  122OSM    H9T12942   5.351   5.215  10.120 -0.6687  0.7740  0.8955
  122OSM   C10S12943   5.144   5.262  10.086 -0.5916  0.1661 -0.3752
  122OSM   H10S12944   5.134   5.280  10.195 -1.0956  0.5430 -0.4800
  122OSM   H10T12945   5.059   5.210  10.036  1.7829 -2.4727 -1.9761
  122OSM   C11S12946   5.166   5.405  10.027 -0.1889  0.1364  0.3316
  122OSM   H11S12947   5.257   5.442  10.079  0.2387  0.4278 -0.6074
  122OSM   H11T12948   5.081   5.468  10.060  0.4878  1.2519 -0.0022
  122OSM   C12S12949   5.187   5.408   9.872 -0.6999  0.2863 -0.0489
  122OSM   H12S12950   5.102   5.359   9.820 -0.9486  1.4056 -0.7228
  122OSM   H12T12951   5.280   5.350   9.855 -0.3092  0.7214  0.5669
  122OSM   C13S12952   5.191   5.551   9.824  0.0932  0.2888 -0.2599
  122OSM   H13S12953   5.286   5.590   9.867 -0.2558 -0.8461  1.6413
  122OSM   H13T12954   5.108   5.618   9.855 -0.9887  0.1164 -2.5469
  122OSM   C14S12955   5.199   5.576   9.671 -0.6072 -0.0189  0.4065
  122OSM   H14S12956   5.111   5.535   9.617  0.6499 -0.0555 -1.7095
  122OSM   H14T12957   5.288   5.520   9.635 -0.6436 -0.2617  0.6898
  122OSM   C15S12958   5.216   5.728   9.621  0.3810  0.0942  0.4248
  122OSM   H15S12959   5.316   5.762   9.656  0.4259  0.7771 -0.3262
  122OSM   H15T12960   5.128   5.779   9.666 -1.2930 -1.8651 -0.4499
  122OSM   C16S12961   5.214   5.727   9.463  0.9365 -0.7550  0.8037
  122OSM   H16S12962   5.113   5.703   9.422 -0.9887  5.0849  1.0645
  122OSM   H16T12963   5.284   5.650   9.426 -0.8673 -2.1803  0.2254
  122OSM   C17S12964   5.248   5.859   9.389 -0.6855  0.0347  0.3695
  122OSM   H17S12965   5.352   5.895   9.404  0.2775 -1.3129 -2.3435
  122OSM   H17T12966   5.166   5.929   9.417 -0.7655  0.8732 -1.7285
  122OSM   C18S12967   5.234   5.831   9.234  0.0156 -0.6589 -0.3294
  122OSM   H18S12968   5.134   5.790   9.211  0.9132 -1.9141 -2.2852
  122OSM   H18T12969   5.309   5.754   9.206  1.2229  0.4167 -0.1622
  122OSM   H18U12970   5.250   5.926   9.177  1.4698 -0.6574  0.0390
  122OSM    C1F12971   5.562   4.490  10.491 -0.8463  0.0944  0.3551
  122OSM     OF12972   5.480   4.420  10.546  0.6412  0.3669 -0.5610
  122OSM    C2F12973   5.669   4.442  10.393  0.2210 -0.0213  0.6728
  122OSM    H2F12974   5.769   4.455  10.439 -0.0090  1.0658  0.9135
  122OSM    H2G12975   5.669   4.512  10.307 -0.1915  0.1394  0.7979
  122OSM    C3F12976   5.629   4.304  10.337 -0.2689  0.1813  0.5073
  122OSM    H3F12977   5.534   4.312  10.280 -0.6358 -1.8684  0.7386
  122OSM    H3G12978   5.612   4.226  10.414  0.5885  1.1692  1.7309
  122OSM    C4F12979   5.748   4.262  10.249 -0.2254 -0.0694 -0.8355
  122OSM    H4F12980   5.739   4.156  10.217  1.2203 -1.7207  3.6108
  122OSM    H4G12981   5.833   4.251  10.319 -1.2383 -2.0316  0.1799
  122OSM    C5F12982   5.755   4.348  10.120  0.2931 -0.0838  0.5462
  122OSM    H5F12983   5.806   4.445  10.135  2.7805 -0.6508 -2.8589
  122OSM    H5G12984   5.651   4.365  10.084  0.8222 -1.8289 -2.1039
  122OSM    C6F12985   5.826   4.285   9.996 -1.0552  0.8072 -0.2709
  122OSM    H6F12986   5.811   4.353   9.909 -1.2143 -0.3918 -1.2040
  122OSM    H6G12987   5.767   4.193   9.975 -1.0849  0.9087 -0.6469
  122OSM    C7F12988   5.982   4.256  10.021  0.4633 -0.2944 -0.0415
  122OSM    H7F12989   5.996   4.213  10.122 -1.2706 -2.3416 -0.5920
  122OSM    H7G12990   6.039   4.351  10.018 -0.0619  0.1702  2.4924
  122OSM    C8F12991   6.048   4.154   9.922  0.6054 -0.1509 -0.3155
  122OSM    H8F12992   6.008   4.051   9.933  0.2169  0.2619  3.3706
  122OSM    H8G12993   6.151   4.142   9.961  0.6337 -1.8776 -0.8352
  122OSM    C9F12994   6.055   4.196   9.779  0.1716 -0.4896  0.0832
  122OSM    H9F12995   5.975   4.265   9.748  0.5160  1.2136  2.7058
  122OSM   C10F12996   6.144   4.159   9.688  0.2156  0.0069 -0.2725
  122OSM   H10F12997   6.137   4.190   9.583 -1.0283  1.6360  0.2473
  122OSM   C11F12998   6.268   4.066   9.702  0.2771  0.0138  0.7058
  122OSM   H11F12999   6.236   3.977   9.760 -2.0177  0.0679 -0.3466
  122OSM   H11G13000   6.345   4.105   9.771  1.0571 -1.5971  0.7808
  122OSM   C12F13001   6.333   4.015   9.566  0.1061  0.1720 -0.1863
  122OSM   H12F13002   6.247   3.974   9.508 -0.9215 -0.4800  1.6882
  122OSM   H12G13003   6.406   3.935   9.590  1.5585  1.0850 -1.4546
  122OSM   C13F13004   6.402   4.123   9.482 -1.0250  1.3349  0.0341
  122OSM   H13F13005   6.481   4.182   9.535  1.8142 -0.7825 -1.5347
  122OSM   H13G13006   6.332   4.200   9.442  1.7841  5.0673  1.5989
  122OSM   C14F13007   6.471   4.063   9.356 -0.4003  0.3409 -1.0819
  122OSM   H14F13008   6.395   4.018   9.289 -1.6941 -2.3424  1.9051
  122OSM   H14G13009   6.540   3.986   9.397 -0.7797 -0.0418 -1.1573
  122OSM   C15F13010   6.561   4.156   9.271 -0.3106  0.2313 -0.0087
  122OSM   H15F13011   6.627   4.206   9.345 -0.5116  1.3612 -0.5719
  122OSM   H15G13012   6.485   4.230   9.238  0.3199  1.2246  0.7165
  122OSM   C16F13013   6.645   4.100   9.161  0.2503 -0.3453  0.4589
  122OSM   H16F13014   6.578   4.040   9.096 -0.5207 -0.2887  1.1922
  122OSM   H16G13015   6.711   4.029   9.216 -2.2845 -1.4541  2.2728
  122OSM   C17F13016   6.725   4.201   9.072 -0.4726  0.7825 -0.2939
  122OSM   H17F13017   6.804   4.246   9.136 -0.4105 -0.0931  0.2484
  122OSM   H17G13018   6.661   4.289   9.047 -1.5804 -0.5171 -2.2919
  122OSM   C18F13019   6.799   4.139   8.951 -0.2819 -0.2812  0.4602
  122OSM   H18F13020   6.885   4.202   8.918 -1.5033  0.8313 -0.7172
  122OSM   H18G13021   6.725   4.144   8.869 -0.8947  2.8560  1.0680
  122OSM   H18H13022   6.821   4.031   8.969  1.1064  0.0393  0.8110
  123OSM      N13023   2.265   3.018   6.417 -0.5994 -0.1434  0.2919
  123OSM    C1513024   2.328   3.012   6.283  0.3711 -0.0234 -0.1324
  123OSM   H15A13025   2.289   3.092   6.222  1.6159  0.3512 -0.4516
  123OSM   H15B13026   2.323   2.916   6.235  0.8590  0.4304 -1.1108
  123OSM   H15C13027   2.434   3.031   6.280  0.0413  1.8969 -2.1467
  123OSM    C1413028   2.242   3.159   6.469 -0.4977 -0.3496 -0.3302
  123OSM   H14A13029   2.335   3.214   6.462 -0.3268 -0.8218 -2.5424
  123OSM   H14B13030   2.214   3.163   6.573  1.4892  0.6759  0.2245
  123OSM   H14C13031   2.167   3.210   6.410 -2.2657 -2.0900  0.3181
  123OSM    C1313032   2.125   2.968   6.410  0.8140  0.0369  0.1330
  123OSM   H13A13033   2.070   2.990   6.500 -1.1723  1.3660 -1.3221
  123OSM   H13B13034   2.104   2.862   6.407 -1.3468  0.4381 -1.8726
  123OSM   H13C13035   2.060   3.001   6.330 -1.2381 -1.0691  1.2438
  123OSM    C1213036   2.348   2.932   6.515 -0.3006 -0.2803  0.9827
  123OSM   H12A13037   2.373   2.845   6.456  2.4028  0.8279  0.3718
  123OSM   H12B13038   2.288   2.912   6.603 -0.2389  0.9343  1.3134
  123OSM    C1113039   2.484   3.002   6.559 -0.3297  0.7598 -0.3434
  123OSM   H11A13040   2.531   2.937   6.635 -2.0536 -1.8891 -1.4184
  123OSM   H11B13041   2.440   3.091   6.609 -0.6855  1.2565 -1.4953
  123OSM      P13042   2.638   3.174   6.463 -0.2039 -0.0596 -0.3261
  123OSM    O1313043   2.764   3.177   6.379  0.2533 -0.1745  0.4642
  123OSM    O1413044   2.535   3.276   6.435 -0.5337 -0.2010 -0.0507
  123OSM    O1113045   2.678   3.187   6.608 -0.5085  0.5681  0.2116
  123OSM    O1213046   2.572   3.025   6.452  0.0116 -0.4828  0.1860
  123OSM    C1S13047   2.785   3.118   6.673 -0.0122  0.1629  0.6661
  123OSM    H1S13048   2.885   3.137   6.627 -0.5505  0.8521 -0.2348
  123OSM    H1T13049   2.775   3.010   6.650  0.1323  0.1921  0.4619
  123OSM     NF13050   2.919   3.097   6.879 -0.8779 -0.4547  0.0248
  123OSM    HNF13051   2.920   3.005   6.919  0.8903 -0.9450 -1.0383
  123OSM    C2S13052   2.797   3.155   6.826  0.7315  0.0389 -0.2844
  123OSM    H2S13053   2.789   3.264   6.846 -2.0540 -0.2151  0.4472
  123OSM    C3S13054   2.663   3.096   6.893  0.1977 -0.5955 -0.1157
  123OSM    H3S13055   2.669   2.988   6.870  1.0703 -1.0689  2.0610
  123OSM     O313056   2.538   3.156   6.854 -0.0403 -0.0726 -0.0393
  123OSM    HO313057   2.559   3.221   6.786  0.1949  2.0118  1.9235
  123OSM    C4S13058   2.681   3.094   7.048  0.1322 -0.8396  1.1611
  123OSM    H4S13059   2.709   2.992   7.079  0.2098 -0.9540  0.7221
  123OSM    C5S13060   2.649   3.197   7.132 -0.0848  0.7335 -0.1299
  123OSM    H5S13061   2.600   3.280   7.080 -1.4348 -0.2248 -0.4476
  123OSM    C6S13062   2.662   3.189   7.282  0.3762 -0.4468  0.3760
  123OSM    H6S13063   2.562   3.173   7.329  1.4278 -4.0993  1.7039
  123OSM    H6T13064   2.693   3.291   7.315  0.2482 -0.1488 -0.3980
  123OSM    C7S13065   2.738   3.072   7.340  0.0819  0.3741  0.3591
  123OSM    H7S13066   2.823   3.055   7.271 -0.2503 -0.0719  0.0536
  123OSM    H7T13067   2.668   2.986   7.331 -0.6962  1.0799 -0.5259
  123OSM    C8S13068   2.788   3.106   7.481  0.3675 -0.5563 -0.8086
  123OSM    H8S13069   2.850   3.198   7.472  1.4175 -0.8002  2.4195
  123OSM    H8T13070   2.861   3.033   7.522  0.1279 -0.4013 -0.0871
  123OSM    C9S13071   2.671   3.134   7.566 -0.3395  0.8890  0.0511
  123OSM    H9S13072   2.598   3.053   7.549 -1.2270  1.7264 -0.2537
  123OSM    H9T13073   2.637   3.240   7.556  0.8553  1.2452 -0.5235
  123OSM   C10S13074   2.718   3.111   7.713  0.2137  0.3827  0.2688
  123OSM   H10S13075   2.797   3.188   7.728  0.7783 -0.4270  1.5935
  123OSM   H10T13076   2.775   3.017   7.726 -1.9256 -1.0347 -0.0681
  123OSM   C11S13077   2.600   3.107   7.810  0.1841 -1.0939 -0.1016
  123OSM   H11S13078   2.521   3.037   7.775  1.6501 -1.8638 -2.0648
  123OSM   H11T13079   2.549   3.205   7.821  1.8892  0.0408 -1.7054
  123OSM   C12S13080   2.649   3.066   7.948 -0.0691  0.2005 -0.4588
  123OSM   H12S13081   2.740   3.120   7.981  0.7848 -2.0567  1.1569
  123OSM   H12T13082   2.664   2.957   7.960 -3.0793 -0.4104 -1.2638
  123OSM   C13S13083   2.535   3.103   8.045 -0.0207 -0.0020 -0.0219
  123OSM   H13S13084   2.439   3.062   8.009 -0.2743 -0.3429  0.9871
  123OSM   H13T13085   2.520   3.212   8.062 -0.2136  0.0517 -0.5450
  123OSM   C14S13086   2.560   3.045   8.185  0.2552 -0.4623 -1.1246
  123OSM   H14S13087   2.660   3.072   8.225  0.6580 -2.4205 -0.7290
  123OSM   H14T13088   2.559   2.935   8.179 -0.5325 -0.4204 -1.9039
  123OSM   C15S13089   2.457   3.093   8.289 -0.0536  0.2694  0.4231
  123OSM   H15S13090   2.362   3.091   8.232  0.8526 -1.1851 -1.1426
  123OSM   H15T13091   2.478   3.199   8.312 -0.7502  0.9429 -1.8193
  123OSM   C16S13092   2.444   3.023   8.420 -0.0542 -0.1191  0.3821
  123OSM   H16S13093   2.402   2.920   8.408  1.8265 -1.2820  2.8609
  123OSM   H16T13094   2.362   3.067   8.481 -1.3118 -1.4127 -0.2953
  123OSM   C17S13095   2.569   3.014   8.507  0.2255 -0.2826  0.0351
  123OSM   H17S13096   2.626   3.108   8.493 -0.1409 -0.0179  0.2956
  123OSM   H17T13097   2.651   2.946   8.474  0.6488 -0.2288  0.9207
  123OSM   C18S13098   2.536   2.985   8.656  0.1991  0.0605 -0.0482
  123OSM   H18S13099   2.477   2.892   8.665 -0.4606  0.5386  0.7555
  123OSM   H18T13100   2.473   3.073   8.683  0.3247  0.8409 -2.1337
  123OSM   H18U13101   2.630   2.983   8.714 -0.5005  0.5897  1.1649
  123OSM    C1F13102   3.036   3.155   6.849  0.1013 -0.4343 -0.9098
  123OSM     OF13103   3.036   3.261   6.782  0.3076 -0.3642 -0.1028
  123OSM    C2F13104   3.160   3.090   6.897 -0.2314  1.1675  0.0475
  123OSM    H2F13105   3.204   3.058   6.799  0.3484  0.9589  0.3685
  123OSM    H2G13106   3.138   2.998   6.955  2.3997  0.5892  0.2551
  123OSM    C3F13107   3.259   3.190   6.970 -0.1370 -0.2119  0.0561
  123OSM    H3F13108   3.212   3.238   7.058 -1.5154 -2.7776  0.8394
  123OSM    H3G13109   3.284   3.269   6.897 -0.5881  0.3420  0.4929
  123OSM    C4F13110   3.392   3.132   7.019 -0.5565 -0.0470 -0.4359
  123OSM    H4F13111   3.452   3.211   7.068  0.1657 -1.8929  1.8316
  123OSM    H4G13112   3.450   3.101   6.930  1.8260  1.7535  0.3920
  123OSM    C5F13113   3.369   3.022   7.128 -0.6512  0.4796  0.6372
  123OSM    H5F13114   3.469   2.993   7.167 -1.4274 -1.5765  1.2325
  123OSM    H5G13115   3.329   2.940   7.065 -1.2844  1.0639  0.2688
  123OSM    C6F13116   3.278   3.063   7.243 -0.4519  0.7284 -0.8540
  123OSM    H6F13117   3.170   3.066   7.218 -0.9004 -1.8819  0.4713
  123OSM    H6G13118   3.307   3.155   7.298 -0.1973 -0.6437  1.4163
  123OSM    C7F13119   3.300   2.959   7.365 -0.2980  0.6105  0.6005
  123OSM    H7F13120   3.407   2.960   7.392  0.1672 -0.4858 -1.0475
  123OSM    H7G13121   3.279   2.864   7.311 -5.4855  1.9547 -0.3607
  123OSM    C8F13122   3.215   2.986   7.487 -0.8151  0.6339 -0.4543
  123OSM    H8F13123   3.107   2.986   7.460 -1.7622  0.3111  2.8273
  123OSM    H8G13124   3.245   3.085   7.527  2.6995  0.4431 -2.2251
  123OSM    C9F13125   3.239   2.882   7.589  0.0690  1.2016 -0.3797
  123OSM    H9F13126   3.330   2.820   7.582 -0.6691 -0.0042  0.2999
  123OSM   C10F13127   3.167   2.859   7.707  0.8484  0.4361 -0.0634
  123OSM   H10F13128   3.198   2.770   7.763  1.2770  0.3995 -0.3561
  123OSM   C11F13129   3.043   2.924   7.752  0.4666  0.4756 -0.0329
  123OSM   H11F13130   2.958   2.854   7.759  0.2528  0.7060 -0.2850
  123OSM   H11G13131   3.013   3.004   7.680  3.5294  0.0644 -1.9471
  123OSM   C12F13132   3.060   2.978   7.892 -0.3153 -0.5457  0.1354
  123OSM   H12F13133   2.974   3.040   7.926 -0.1553 -0.1455 -0.1821
  123OSM   H12G13134   3.147   3.047   7.897  0.4062 -1.5212  2.8211
  123OSM   C13F13135   3.063   2.863   7.996 -0.1056  0.2826  0.3253
  123OSM   H13F13136   3.152   2.799   7.976  0.1133  0.7305 -0.1576
  123OSM   H13G13137   2.979   2.790   7.990  0.3713 -0.3384  1.0688
  123OSM   C14F13138   3.068   2.919   8.137  0.5006 -0.5573  0.3321
  123OSM   H14F13139   3.068   3.030   8.126 -3.1201 -0.4717  0.0855
  123OSM   H14G13140   3.167   2.896   8.181  0.4278  1.5863  1.7668
  123OSM   C15F13141   2.951   2.872   8.223 -0.4749 -0.1985  0.7129
  123OSM   H15F13142   2.959   2.761   8.224  1.1776 -0.1041  1.1163
  123OSM   H15G13143   2.858   2.903   8.171 -1.2167  0.7450  2.4903
  123OSM   C16F13144   2.965   2.933   8.359  0.0914  0.0239  0.5261
  123OSM   H16F13145   2.869   2.914   8.411  0.4495 -2.5248  0.3411
  123OSM   H16G13146   2.966   3.044   8.348 -2.9000  0.1208  0.4003
  123OSM   C17F13147   3.079   2.873   8.433 -0.0426  0.2114 -0.3254
  123OSM   H17F13148   3.177   2.913   8.398  1.0921 -0.1046  2.2556
  123OSM   H17G13149   3.092   2.763   8.422 -1.2652 -0.1928  1.7885
  123OSM   C18F13150   3.060   2.899   8.583  0.1989 -0.3921  0.5359
  123OSM   H18F13151   3.052   3.008   8.606  0.9808 -0.1226 -0.3893
  123OSM   H18G13152   3.145   2.868   8.647 -0.6687  0.4383  2.1594
  123OSM   H18H13153   2.963   2.851   8.605 -0.2324  1.0079  1.9271
  124OSM      N13154   5.413   1.617   6.073  0.2607  0.4193  0.2975
  124OSM    C1513155   5.458   1.742   5.987  0.0003 -0.3123  0.3666
  124OSM   H15A13156   5.537   1.795   6.038 -1.6516  2.6896  0.0159
  124OSM   H15B13157   5.380   1.816   5.978 -1.3439 -1.5457  1.3229
  124OSM   H15C13158   5.499   1.721   5.890 -1.7306  2.8778 -1.2113
  124OSM    C1413159   5.314   1.552   5.982 -0.2306 -0.4246 -0.5995
  124OSM   H14A13160   5.255   1.476   6.030 -0.5233 -1.0742 -1.9244
  124OSM   H14B13161   5.356   1.519   5.888  0.4434 -0.4536 -0.2957
  124OSM   H14C13162   5.247   1.625   5.939  0.3478 -0.6601 -1.9763
  124OSM    C1313163   5.533   1.526   6.087  0.9094  0.2845 -0.5331
  124OSM   H13A13164   5.568   1.502   5.987 -0.1056 -1.0220 -0.5955
  124OSM   H13B13165   5.498   1.444   6.147 -0.2603  1.9016  1.1150
  124OSM   H13C13166   5.607   1.579   6.146  0.7639  0.3421 -0.4028
  124OSM    C1213167   5.349   1.652   6.207 -0.7179  0.6679  0.1917
  124OSM   H12A13168   5.259   1.711   6.193 -1.5327  0.2938  3.0950
  124OSM   H12B13169   5.417   1.714   6.265  0.8841 -0.1907 -0.7134
  124OSM    C1113170   5.303   1.530   6.296 -0.2477 -0.0991  0.4625
  124OSM   H11A13171   5.249   1.448   6.243  0.6512 -0.8559  0.6881
  124OSM   H11B13172   5.223   1.564   6.365 -3.2628 -1.6702 -2.0034
  124OSM      P13173   5.448   1.487   6.512 -0.1101 -0.0365 -0.5647
  124OSM    O1313174   5.439   1.348   6.566 -0.1516  0.3542 -0.5406
  124OSM    O1413175   5.571   1.572   6.530 -0.0567  0.0966  0.1796
  124OSM    O1113176   5.325   1.576   6.571 -0.4204  0.0423 -0.2622
  124OSM    O1213177   5.417   1.465   6.362  0.3806 -0.4514 -0.2730
  124OSM    C1S13178   5.278   1.540   6.708  0.5489  0.2909 -0.5013
  124OSM    H1S13179   5.325   1.445   6.740  0.4158 -0.1468 -1.5850
  124OSM    H1T13180   5.168   1.534   6.720  0.4628  0.0768 -1.3787
  124OSM     NF13181   5.346   1.630   6.934 -0.0447  0.7061 -0.2281
  124OSM    HNF13182   5.266   1.613   6.990 -1.4103 -3.2967 -2.9157
  124OSM    C2S13183   5.323   1.666   6.795  0.2262  0.3325 -0.5484
  124OSM    H2S13184   5.419   1.705   6.754  2.7599 -1.9400  2.7014
  124OSM    C3S13185   5.213   1.770   6.773  0.3472 -0.1421  0.2867
  124OSM    H3S13186   5.112   1.735   6.805  0.3251  1.4885  2.2201
  124OSM     O313187   5.189   1.823   6.641 -0.3500  0.0326  0.1255
  124OSM    HO313188   5.236   1.769   6.576 -1.4288  2.3337 -2.8009
  124OSM    C4S13189   5.250   1.887   6.858  0.4544  0.1817 -0.3492
  124OSM    H4S13190   5.346   1.932   6.827  0.6244 -0.1386 -0.2922
  124OSM    C5S13191   5.176   1.951   6.951  0.2303  0.0640 -0.6923
  124OSM    H5S13192   5.076   1.909   6.971  0.4916 -1.4097 -2.2293
  124OSM    C6S13193   5.229   2.061   7.021 -1.0056 -0.3395 -0.1663
  124OSM    H6S13194   5.167   2.152   7.007 -0.7932  0.4283  3.0068
  124OSM    H6T13195   5.337   2.079   6.998 -0.4166 -3.2712 -0.1101
  124OSM    C7S13196   5.227   2.038   7.178  0.1952 -0.3525  0.3487
  124OSM    H7S13197   5.119   2.034   7.202 -0.6844 -1.1524 -3.2314
  124OSM    H7T13198   5.255   2.137   7.219  1.0839 -0.7619  0.7619
  124OSM    C8S13199   5.305   1.914   7.223 -0.3576 -0.3744 -0.5789
  124OSM    H8S13200   5.412   1.918   7.193 -0.1655 -0.0108  0.1189
  124OSM    H8T13201   5.266   1.825   7.170  1.1422 -2.9252  2.2845
  124OSM    C9S13202   5.295   1.882   7.374 -0.0629  0.2634 -0.3237
  124OSM    H9S13203   5.189   1.896   7.402  0.5292  2.7000  1.0718
  124OSM    H9T13204   5.356   1.957   7.430  1.3996 -1.2567  0.1899
  124OSM   C10S13205   5.339   1.744   7.413  0.3617 -0.1758  0.3372
  124OSM   H10S13206   5.450   1.741   7.408  0.3258 -0.2266 -0.7384
  124OSM   H10T13207   5.296   1.672   7.341  0.8265 -1.0673  0.9406
  124OSM   C11S13208   5.299   1.719   7.560 -0.4468 -0.0288 -0.0272
  124OSM   H11S13209   5.319   1.610   7.572  1.7444  0.3740  0.3595
  124OSM   H11T13210   5.188   1.725   7.566 -0.5390 -1.5827  0.2261
  124OSM   C12S13211   5.374   1.802   7.668  0.4282  0.0993 -0.1921
  124OSM   H12S13212   5.336   1.907   7.667 -2.2073 -0.7424 -2.5858
  124OSM   H12T13213   5.482   1.815   7.647  1.2743 -2.6204  1.9507
  124OSM   C13S13214   5.354   1.760   7.813  0.8108  0.9489  0.2020
  124OSM   H13S13215   5.359   1.649   7.816 -0.5050  0.8793  2.4019
  124OSM   H13T13216   5.254   1.773   7.861  0.9999  1.5665  0.4294
  124OSM   C14S13217   5.473   1.803   7.901 -0.0309 -0.4583 -0.5765
  124OSM   H14S13218   5.495   1.911   7.887 -0.4252  0.0109  1.9476
  124OSM   H14T13219   5.563   1.750   7.863  1.6104  0.6758  1.4813
  124OSM   C15S13220   5.467   1.777   8.057 -0.0259 -0.1245 -0.5273
  124OSM   H15S13221   5.440   1.670   8.070 -2.0142  0.4884  0.8434
  124OSM   H15T13222   5.381   1.835   8.098 -0.1534 -0.6074 -0.1043
  124OSM   C16S13223   5.596   1.808   8.128 -0.0364 -0.3114  0.1109
  124OSM   H16S13224   5.593   1.919   8.138 -1.7133 -0.4735  2.1817
  124OSM   H16T13225   5.680   1.765   8.070 -1.7518 -1.5074 -1.6276
  124OSM   C17S13226   5.588   1.750   8.272  0.0798 -0.1711 -0.1666
  124OSM   H17S13227   5.487   1.776   8.310  0.5525  1.0223  0.3334
  124OSM   H17T13228   5.667   1.800   8.332 -0.1092 -0.1261  0.0444
  124OSM   C18S13229   5.614   1.601   8.272 -0.5162  0.1685  0.5776
  124OSM   H18S13230   5.632   1.551   8.370  2.7266  0.6603  0.3540
  124OSM   H18T13231   5.708   1.575   8.219  0.7372  1.5480  1.9914
  124OSM   H18U13232   5.532   1.541   8.229 -0.6400  0.1399  0.8501
  124OSM    C1F13233   5.456   1.583   6.983  0.1930  0.8498 -0.1235
  124OSM     OF13234   5.560   1.590   6.915  0.2922  0.5446 -0.2822
  124OSM    C2F13235   5.465   1.527   7.119  0.6005 -0.1190  0.1978
  124OSM    H2F13236   5.474   1.418   7.098 -0.5162 -0.1051 -0.4404
  124OSM    H2G13237   5.369   1.552   7.170 -0.2311  1.4879 -1.9860
  124OSM    C3F13238   5.588   1.568   7.203 -0.0477 -0.1830  0.1331
  124OSM    H3F13239   5.594   1.678   7.221  1.3462 -0.0846 -0.7562
  124OSM    H3G13240   5.680   1.532   7.152 -0.5013 -2.6823  0.9502
  124OSM    C4F13241   5.588   1.497   7.341  0.0156  0.1770  0.0557
  124OSM    H4F13242   5.570   1.390   7.316  0.9716 -0.0940  0.4859
  124OSM    H4G13243   5.509   1.533   7.409  0.5683  1.1143  0.2148
  124OSM    C5F13244   5.712   1.503   7.428  0.3497  0.8539 -0.5246
  124OSM    H5F13245   5.749   1.607   7.438  1.8676  0.3058 -0.1337
  124OSM    H5G13246   5.791   1.448   7.372 -3.0253 -3.3217 -1.7042
  124OSM    C6F13247   5.709   1.416   7.559 -0.1533  0.3747  0.1904
  124OSM    H6F13248   5.812   1.419   7.601 -1.0725  0.7236  2.5189
  124OSM    H6G13249   5.685   1.310   7.533  1.4297  0.2433 -0.9564
  124OSM    C7F13250   5.611   1.467   7.653  0.0423  0.5044  0.6481
  124OSM    H7F13251   5.514   1.459   7.600  0.9220  0.6168 -1.0740
  124OSM    H7G13252   5.634   1.571   7.684  0.2804  0.0409  2.1146
  124OSM    C8F13253   5.611   1.389   7.786 -0.1447 -0.5837  0.3059
  124OSM    H8F13254   5.551   1.450   7.858  0.1819  1.7227 -1.2658
  124OSM    H8G13255   5.719   1.380   7.811  0.0623 -0.0919 -0.3675
  124OSM    C9F13256   5.536   1.256   7.772 -0.6771  0.9034  1.0277
  124OSM    H9F13257   5.443   1.245   7.714  1.1192 -0.1780 -1.8641
  124OSM   C10F13258   5.591   1.143   7.813 -0.4099 -0.1184  0.2937
  124OSM   H10F13259   5.528   1.054   7.803  0.6191 -0.6577 -1.8258
  124OSM   C11F13260   5.727   1.119   7.880 -0.3250  0.1058 -0.0175
  124OSM   H11F13261   5.793   1.208   7.883  0.5889 -0.4720 -1.4726
  124OSM   H11G13262   5.792   1.052   7.819 -1.1546 -0.0582 -0.7488
  124OSM   C12F13263   5.713   1.048   8.014 -0.0178  0.0822 -0.0452
  124OSM   H12F13264   5.809   1.014   8.059 -0.7909 -1.2339  0.6591
  124OSM   H12G13265   5.659   0.952   8.000  1.2686 -0.8256  0.9768
  124OSM   C13F13266   5.651   1.144   8.117  0.1319  0.0392 -0.2693
  124OSM   H13F13267   5.556   1.182   8.073 -1.0752 -2.6018 -0.1520
  124OSM   H13G13268   5.713   1.233   8.142 -2.0989  1.4917  0.3815
  124OSM   C14F13269   5.618   1.074   8.245  0.0547 -0.0530 -0.0066
  124OSM   H14F13270   5.709   1.037   8.296 -0.1680 -0.5428  0.0348
  124OSM   H14G13271   5.557   0.983   8.225  0.5622 -0.4665  0.3224
  124OSM   C15F13272   5.535   1.161   8.347  0.4039  0.2776 -0.8881
  124OSM   H15F13273   5.434   1.187   8.310 -0.5407 -1.4894  0.2843
  124OSM   H15G13274   5.588   1.250   8.386 -1.4253  0.5247  1.2076
  124OSM   C16F13275   5.503   1.073   8.474  0.6159  0.4777  0.5323
  124OSM   H16F13276   5.594   1.024   8.514  0.2829 -1.3155 -0.7750
  124OSM   H16G13277   5.437   0.994   8.432 -2.2235  3.5916 -1.4080
  124OSM   C17F13278   5.433   1.161   8.574 -0.7846 -0.3717  0.0509
  124OSM   H17F13279   5.483   1.260   8.581  0.0762 -0.6691 -1.4942
  124OSM   H17G13280   5.445   1.112   8.673 -1.5542  0.8558  0.7719
  124OSM   C18F13281   5.287   1.192   8.553 -0.0991 -1.2212 -0.1269
  124OSM   H18F13282   5.270   1.253   8.463  0.7284  1.0566  1.1834
  124OSM   H18G13283   5.250   1.252   8.639 -1.0004 -0.4074 -1.0581
  124OSM   H18H13284   5.225   1.099   8.554  0.2057 -1.6583  4.6776
  125OSM      N13285   4.622   3.529   6.208 -0.1669 -0.2748 -0.3031
  125OSM    C1513286   4.493   3.475   6.266  0.2660 -0.1886 -0.7387
  125OSM   H15A13287   4.491   3.450   6.371 -2.6022  0.5679 -0.5148
  125OSM   H15B13288   4.472   3.378   6.223 -1.2899 -0.4956  0.5863
  125OSM   H15C13289   4.407   3.536   6.242  0.2866 -0.9625 -2.9597
  125OSM    C1413290   4.727   3.422   6.219 -0.4694 -0.4536 -0.9843
  125OSM   H14A13291   4.752   3.405   6.322  0.4545  2.9740 -0.5208
  125OSM   H14B13292   4.811   3.465   6.167 -0.7437  0.4013 -0.7249
  125OSM   H14C13293   4.707   3.339   6.153 -1.3949 -1.2932  0.3027
  125OSM    C1313294   4.584   3.544   6.062  0.4682  0.0224  0.2859
  125OSM   H13A13295   4.661   3.603   6.013 -0.9256  1.8069  0.1315
  125OSM   H13B13296   4.497   3.608   6.055  0.5308  0.2825  1.6355
  125OSM   H13C13297   4.556   3.448   6.021  1.2596  0.9205 -2.6628
  125OSM    C1213298   4.667   3.658   6.273 -1.2909 -1.0077  0.0872
  125OSM   H12A13299   4.710   3.646   6.371 -1.7807  0.7512  0.5465
  125OSM   H12B13300   4.584   3.725   6.286 -0.5224  0.4414 -1.9829
  125OSM    C1113301   4.783   3.736   6.200  0.1121  0.0486  0.4809
  125OSM   H11A13302   4.793   3.830   6.258 -0.5152  0.8110 -0.5916
  125OSM   H11B13303   4.759   3.771   6.097 -0.7187 -3.1606 -0.5254
  125OSM      P13304   5.019   3.689   6.296  0.1842 -0.3034  0.2945
  125OSM    O1313305   5.117   3.581   6.273  0.3638  0.0630  0.0736
  125OSM    O1413306   5.057   3.832   6.286 -0.1794  0.4909 -0.0807
  125OSM    O1113307   4.950   3.660   6.437 -0.1685 -0.7233 -0.0007
  125OSM    O1213308   4.905   3.656   6.188  0.1648 -0.7643  0.0721
  125OSM    C1S13309   5.040   3.656   6.545  0.0381 -0.4094 -0.3621
  125OSM    H1S13310   5.082   3.758   6.559  0.4119 -0.5153 -0.6948
  125OSM    H1T13311   5.125   3.586   6.536  0.4469  0.2959 -2.7811
  125OSM     NF13312   5.027   3.657   6.787 -0.5371  0.9731  0.0701
  125OSM    HNF13313   5.086   3.588   6.829  0.6111 -0.1433 -3.0731
  125OSM    C2S13314   4.957   3.616   6.669 -0.1927 -0.3859 -0.0941
  125OSM    H2S13315   4.856   3.661   6.663 -0.7023 -1.6381 -1.6874
  125OSM    C3S13316   4.936   3.464   6.661 -0.1205 -0.5730 -0.7539
  125OSM    H3S13317   5.035   3.414   6.667  0.0138 -0.2143  0.1305
  125OSM     O313318   4.880   3.428   6.533  0.0131 -0.1834 -0.2717
  125OSM    HO313319   4.899   3.501   6.473 -2.4090 -1.0034 -2.1894
  125OSM    C4S13320   4.846   3.411   6.773 -0.1820  0.1824 -1.6398
  125OSM    H4S13321   4.740   3.441   6.771  0.6917  3.6559 -1.3387
  125OSM    C5S13322   4.890   3.349   6.884 -0.4027 -0.6499  0.2115
  125OSM    H5S13323   4.997   3.329   6.896 -0.2953 -0.8474 -0.9451
  125OSM    C6S13324   4.801   3.295   6.999  0.5511  0.0336  0.8348
  125OSM    H6S13325   4.842   3.318   7.100 -0.5266 -0.3573  1.3831
  125OSM    H6T13326   4.809   3.185   6.986 -0.4888 -0.0238  0.5968
  125OSM    C7S13327   4.655   3.349   7.010  0.1405 -0.2507  0.0077
  125OSM    H7S13328   4.594   3.290   7.082  2.0169 -1.0486  1.0123
  125OSM    H7T13329   4.610   3.330   6.910  2.8560  1.0773 -1.5708
  125OSM    C8S13330   4.648   3.500   7.041  0.0648  0.2058  0.4569
  125OSM    H8S13331   4.538   3.516   7.034 -0.0424 -1.2442 -2.2192
  125OSM    H8T13332   4.688   3.561   6.958 -2.2614  1.4039  0.1341
  125OSM    C9S13333   4.704   3.531   7.187 -0.0540  0.7943  0.6487
  125OSM    H9S13334   4.697   3.637   7.220  0.7741  0.6648  1.2709
  125OSM    H9T13335   4.812   3.507   7.194  0.5265  2.5473 -1.2271
  125OSM   C10S13336   4.642   3.452   7.298 -0.2636 -0.1912 -0.2672
  125OSM   H10S13337   4.659   3.344   7.279  2.8623  0.1234  0.3455
  125OSM   H10T13338   4.532   3.467   7.298 -0.6424 -2.5796 -0.2755
  125OSM   C11S13339   4.686   3.493   7.441  0.3776 -0.4373 -0.1525
  125OSM   H11S13340   4.707   3.602   7.435  2.4528 -0.7023  1.1339
  125OSM   H11T13341   4.774   3.434   7.476 -2.3699 -3.6387  2.0367
  125OSM   C12S13342   4.568   3.482   7.543  0.0293 -1.1250 -0.2855
  125OSM   H12S13343   4.518   3.384   7.534 -1.7000 -0.2729 -0.3199
  125OSM   H12T13344   4.497   3.554   7.498 -0.4142 -1.2869  0.1478
  125OSM   C13S13345   4.588   3.529   7.692 -0.0036  0.1226 -0.2001
  125OSM   H13S13346   4.482   3.536   7.727 -1.0043 -1.8934 -2.5293
  125OSM   H13T13347   4.636   3.628   7.702  0.8669 -0.1988 -1.1074
  125OSM   C14S13348   4.664   3.423   7.780 -0.1687  0.5678  0.4619
  125OSM   H14S13349   4.772   3.419   7.756 -0.2079 -1.6196  0.4829
  125OSM   H14T13350   4.607   3.330   7.761 -0.6346  0.4810  2.0972
  125OSM   C15S13351   4.657   3.439   7.934  0.4414 -0.0355 -0.2692
  125OSM   H15S13352   4.554   3.454   7.972  0.0447  1.2169 -1.7350
  125OSM   H15T13353   4.689   3.541   7.964 -2.0517  0.5685  0.5508
  125OSM   C16S13354   4.729   3.322   8.004  0.1199 -0.4489 -1.0063
  125OSM   H16S13355   4.826   3.292   7.959 -0.3616  0.0433 -2.4336
  125OSM   H16T13356   4.657   3.238   8.002  0.4047 -0.7511  0.4000
  125OSM   C17S13357   4.763   3.343   8.154 -0.4565  0.2638  0.1071
  125OSM   H17S13358   4.674   3.365   8.216 -0.2808  0.0105  0.4517
  125OSM   H17T13359   4.818   3.440   8.153 -2.1066  1.2480  1.0477
  125OSM   C18S13360   4.843   3.227   8.211  0.3142 -1.1888 -0.6868
  125OSM   H18S13361   4.881   3.253   8.312  1.5636  0.2795 -1.5013
  125OSM   H18T13362   4.927   3.201   8.144 -1.2259 -1.6117 -2.5560
  125OSM   H18U13363   4.772   3.143   8.229 -1.5398  0.4544  0.0937
  125OSM    C1F13364   5.025   3.782   6.842  0.2521  0.0554  0.4764
  125OSM     OF13365   4.999   3.881   6.780 -0.2061  0.5137  0.4868
  125OSM    C2F13366   5.077   3.795   6.979  0.3456  0.1402  0.0560
  125OSM    H2F13367   5.120   3.895   7.002  1.1974 -0.2995  0.4219
  125OSM    H2G13368   5.160   3.722   6.987  1.0174  0.8885  0.1044
  125OSM    C3F13369   4.970   3.755   7.087  0.2592  0.5817 -0.1499
  125OSM    H3F13370   4.956   3.645   7.090 -0.0476  0.6384  0.7358
  125OSM    H3G13371   4.868   3.788   7.059  0.0989  0.9379  0.8271
  125OSM    C4F13372   5.015   3.803   7.226 -0.5163 -0.3520 -0.0399
  125OSM    H4F13373   5.049   3.909   7.230  0.5351 -0.6846  0.4532
  125OSM    H4G13374   5.104   3.743   7.255  0.5887  1.6920  1.0960
  125OSM    C5F13375   4.912   3.778   7.338 -0.2364  0.8745 -0.2279
  125OSM    H5F13376   4.875   3.674   7.328  1.1806  0.2972  0.2505
  125OSM    H5G13377   4.819   3.838   7.327  1.0654  2.8716 -0.6898
  125OSM    C6F13378   4.978   3.786   7.471  0.9892  0.0865 -0.4019
  125OSM    H6F13379   5.024   3.887   7.483 -0.0986  0.7844 -1.8953
  125OSM    H6G13380   5.063   3.715   7.480  1.1379 -0.1915 -3.1737
  125OSM    C7F13381   4.882   3.778   7.593 -0.1915 -0.7280 -0.1308
  125OSM    H7F13382   4.831   3.680   7.603  0.5698 -0.8897  3.6319
  125OSM    H7G13383   4.801   3.853   7.577  0.4819  0.2561  0.8962
  125OSM    C8F13384   4.953   3.817   7.717  0.1147 -0.0294 -0.7832
  125OSM    H8F13385   4.969   3.927   7.709 -1.9014  0.1679 -3.4214
  125OSM    H8G13386   5.053   3.769   7.727  0.5452  1.2404  1.7377
  125OSM    C9F13387   4.860   3.795   7.831 -0.3970 -0.2501 -0.2659
  125OSM    H9F13388   4.752   3.802   7.816 -0.2949  1.4287 -0.4084
  125OSM   C10F13389   4.908   3.766   7.956  0.5597 -0.3543 -0.5136
  125OSM   H10F13390   4.842   3.763   8.044 -2.0660 -1.9334 -2.3777
  125OSM   C11F13391   5.056   3.742   7.992  0.3092  0.0297 -1.1143
  125OSM   H11F13392   5.103   3.832   8.038 -0.7170 -1.4493  3.3663
  125OSM   H11G13393   5.118   3.721   7.902  0.3590  1.2728 -1.3812
  125OSM   C12F13394   5.081   3.616   8.078 -0.1839 -0.2328  0.2736
  125OSM   H12F13395   5.188   3.591   8.090 -0.1250  0.3068  0.9030
  125OSM   H12G13396   5.045   3.526   8.023  2.4622  0.6084 -3.1608
  125OSM   C13F13397   5.020   3.621   8.218  0.3002  0.1284 -1.0314
  125OSM   H13F13398   4.911   3.626   8.197  0.3579 -0.4561 -1.4872
  125OSM   H13G13399   5.051   3.719   8.261 -1.3059 -0.4496  1.6899
  125OSM   C14F13400   5.070   3.511   8.311  0.6314  0.3019  0.0493
  125OSM   H14F13401   5.181   3.513   8.309  0.6721 -1.2871 -2.2443
  125OSM   H14G13402   5.039   3.416   8.264 -1.6255  1.3486 -0.7022
  125OSM   C15F13403   5.018   3.529   8.459 -0.5865 -0.5059 -0.5589
  125OSM   H15F13404   4.907   3.531   8.458 -0.6273  2.3806 -2.7799
  125OSM   H15G13405   5.056   3.624   8.504 -2.3646 -0.2118  0.4183
  125OSM   C16F13406   5.061   3.412   8.555  0.9111 -0.4002 -0.8145
  125OSM   H16F13407   5.166   3.428   8.588 -0.0946  2.5307  1.3677
  125OSM   H16G13408   5.053   3.314   8.504  0.8782 -1.3205  0.8702
  125OSM   C17F13409   4.972   3.401   8.681  0.2470 -0.2058  0.6868
  125OSM   H17F13410   4.948   3.506   8.709  1.0622  0.6884 -1.7227
  125OSM   H17G13411   5.032   3.344   8.754 -1.0308 -1.6741  0.6348
  125OSM   C18F13412   4.841   3.324   8.662 -0.1119 -0.5436  0.1537
  125OSM   H18F13413   4.767   3.359   8.738 -1.0066  0.5756 -1.1731
  125OSM   H18G13414   4.876   3.219   8.661 -1.2837 -0.9445 -1.1457
  125OSM   H18H13415   4.797   3.359   8.566 -0.2101  2.6638  1.2225
  126OSM      N13416   3.796   2.129   6.389  0.0274  0.4933 -0.0404
  126OSM    C1513417   3.699   2.019   6.378 -0.5212 -0.9773 -0.1356
  126OSM   H15A13418   3.738   1.947   6.448 -1.8359 -1.5019  0.0835
  126OSM   H15B13419   3.700   1.990   6.274  1.6066  0.5349 -0.5959
  126OSM   H15C13420   3.602   2.052   6.412 -0.3724 -1.4320  0.7512
  126OSM    C1413421   3.932   2.074   6.367  0.4176 -0.7097 -0.2804
  126OSM   H14A13422   3.939   1.978   6.415 -1.5793 -0.5662  0.3972
  126OSM   H14B13423   4.002   2.135   6.423 -1.5971  0.3615  1.2114
  126OSM   H14C13424   3.952   2.062   6.262 -0.2710  1.7637 -0.7765
  126OSM    C1313425   3.779   2.235   6.279 -0.4543 -0.7009 -0.2793
  126OSM   H13A13426   3.678   2.273   6.283 -0.2421 -0.2173  0.7278
  126OSM   H13B13427   3.794   2.193   6.181  0.2023 -0.9683 -0.0678
  126OSM   H13C13428   3.847   2.318   6.292 -1.4753  0.1884 -0.4090
  126OSM    C1213429   3.789   2.200   6.524 -0.0682 -0.3829 -0.5497
  126OSM   H12A13430   3.864   2.278   6.523  2.2643 -2.4781  0.8612
  126OSM   H12B13431   3.800   2.131   6.606  0.3658 -0.6060 -0.7985
  126OSM    C1113432   3.660   2.276   6.565 -0.5459  0.4707  0.2836
  126OSM   H11A13433   3.650   2.367   6.502 -0.2325  1.9960  2.3346
  126OSM   H11B13434   3.665   2.327   6.663 -2.1708  1.1477  0.0538
  126OSM      P13435   3.491   2.120   6.670  0.0594 -0.4529 -0.3589
  126OSM    O1313436   3.345   2.085   6.655  0.0855  0.0133  0.2619
  126OSM    O1413437   3.587   2.011   6.694  0.2263  0.3720 -0.2170
  126OSM    O1113438   3.508   2.221   6.787  0.8578 -0.3306  0.2271
  126OSM    O1213439   3.541   2.200   6.542 -0.2233  0.0966  0.1606
  126OSM    C1S13440   3.420   2.236   6.893 -0.3170  0.8605  0.5539
  126OSM    H1S13441   3.318   2.199   6.868 -0.0401  2.6929 -4.3376
  126OSM    H1T13442   3.402   2.339   6.931 -1.3873 -0.0570  2.7613
  126OSM     NF13443   3.365   2.192   7.138  0.2723 -0.3274 -0.0056
  126OSM    HNF13444   3.386   2.265   7.203  0.4251 -1.7384  1.6076
  126OSM    C2S13445   3.465   2.168   7.029 -0.6768 -0.3010  0.2154
  126OSM    H2S13446   3.474   2.058   7.012 -0.6173 -0.3036  0.2616
  126OSM    C3S13447   3.610   2.214   7.071  0.3716 -0.4089  0.1844
  126OSM    H3S13448   3.595   2.323   7.086 -0.4861 -0.0512 -2.6466
  126OSM     O313449   3.712   2.198   6.969 -0.7674 -0.1404 -0.2402
  126OSM    HO313450   3.660   2.204   6.888  1.0512 -0.2748 -1.4766
  126OSM    C4S13451   3.650   2.136   7.200  0.4347  0.2325  0.8633
  126OSM    H4S13452   3.578   2.141   7.283 -0.6805 -1.6500  0.0818
  126OSM    C5S13453   3.753   2.049   7.211  0.0812 -0.5255  0.2503
  126OSM    H5S13454   3.815   2.031   7.122  1.0748  0.2780  0.7418
  126OSM    C6S13455   3.799   1.979   7.337  0.2199  0.0019  0.4489
  126OSM    H6S13456   3.904   1.945   7.330 -0.0935 -1.0982  0.7658
  126OSM    H6T13457   3.735   1.889   7.354 -0.8859  0.8441  0.8625
  126OSM    C7S13458   3.789   2.069   7.457 -0.0701 -0.3890  0.0572
  126OSM    H7S13459   3.684   2.102   7.472 -0.9087 -2.1735 -1.5500
  126OSM    H7T13460   3.850   2.159   7.436 -0.3720 -0.2129 -0.0517
  126OSM    C8S13461   3.846   2.008   7.594  0.5289 -0.3087  0.1607
  126OSM    H8S13462   3.949   1.974   7.571  0.1403  0.4958 -3.3134
  126OSM    H8T13463   3.796   1.911   7.617 -0.2234 -0.1494 -0.7435
  126OSM    C9S13464   3.839   2.119   7.704  0.4295 -0.6034  0.1186
  126OSM    H9S13465   3.735   2.156   7.711  0.1219 -1.3667 -0.2952
  126OSM    H9T13466   3.896   2.207   7.666 -0.5332  0.3479  0.8279
  126OSM   C10S13467   3.901   2.075   7.844 -0.2190  0.5140  0.2032
  126OSM   H10S13468   4.003   2.034   7.827  0.3882  0.7659  2.7581
  126OSM   H10T13469   3.839   1.988   7.874  0.6274 -0.4756 -0.8372
  126OSM   C11S13470   3.907   2.184   7.948 -0.0811  0.2990 -0.4526
  126OSM   H11S13471   3.805   2.221   7.972 -0.0460 -0.3994  0.8687
  126OSM   H11T13472   3.964   2.265   7.899 -0.3660  1.3123  0.8312
  126OSM   C12S13473   3.954   2.144   8.087 -0.5794 -0.0092 -0.2693
  126OSM   H12S13474   4.064   2.124   8.086 -0.5371 -0.0521  1.5693
  126OSM   H12T13475   3.908   2.046   8.115 -1.7745 -0.2072 -2.6473
  126OSM   C13S13476   3.912   2.248   8.190 -0.1702  0.1343 -0.1450
  126OSM   H13S13477   3.802   2.261   8.198 -0.1432  0.2497  0.0445
  126OSM   H13T13478   3.968   2.343   8.177 -0.4472  0.5908  1.7226
  126OSM   C14S13479   3.956   2.202   8.334  0.0714 -0.1725 -0.5336
  126OSM   H14S13480   4.067   2.195   8.331  0.0110 -0.9928 -2.0971
  126OSM   H14T13481   3.916   2.099   8.347  0.3024 -0.1272  0.5754
  126OSM   C15S13482   3.906   2.285   8.452  0.6286  0.4423  0.2882
  126OSM   H15S13483   3.795   2.285   8.446  0.5806 -1.0345  0.6000
  126OSM   H15T13484   3.949   2.386   8.439 -0.9207  1.1672  0.6277
  126OSM   C16S13485   3.947   2.209   8.583 -0.3243  1.0634  0.0758
  126OSM   H16S13486   4.057   2.227   8.586 -0.4473  1.7351  0.7001
  126OSM   H16T13487   3.938   2.098   8.579  1.8952  0.8091  0.8944
  126OSM   C17S13488   3.876   2.262   8.709 -0.6242  0.0050 -0.0858
  126OSM   H17S13489   3.916   2.200   8.793  1.9678  0.6794 -0.7226
  126OSM   H17T13490   3.767   2.246   8.700 -0.7280  1.0013 -0.6653
  126OSM   C18S13491   3.918   2.408   8.740 -0.0063  0.4417 -0.4745
  126OSM   H18S13492   4.029   2.415   8.742  0.2032 -1.8453  1.7146
  126OSM   H18T13493   3.873   2.446   8.834 -0.1116  0.3592 -0.4917
  126OSM   H18U13494   3.877   2.480   8.666  0.0165  3.2304  2.0413
  126OSM    C1F13495   3.247   2.128   7.142 -0.2198 -0.8856 -0.1521
  126OSM     OF13496   3.208   2.057   7.045 -0.1211  0.0729  0.1438
  126OSM    C2F13497   3.164   2.152   7.262  0.7622 -0.5931 -0.7927
  126OSM    H2F13498   3.180   2.258   7.289  0.8526 -0.8436  0.1614
  126OSM    H2G13499   3.204   2.100   7.352  2.2455  0.1596 -0.9957
  126OSM    C3F13500   3.015   2.119   7.228  0.3171  0.1595 -0.2020
  126OSM    H3F13501   3.005   2.013   7.199 -1.1855  0.5569 -1.2488
  126OSM    H3G13502   2.981   2.175   7.138  0.3872  1.4061  0.5181
  126OSM    C4F13503   2.915   2.161   7.340  0.0024 -0.0063 -0.0066
  126OSM    H4F13504   2.808   2.159   7.309  0.2439  1.9980 -1.1707
  126OSM    H4G13505   2.933   2.268   7.362  0.8768 -0.2899  0.7276
  126OSM    C5F13506   2.914   2.074   7.468  0.3168 -0.4863 -0.3491
  126OSM    H5F13507   3.018   2.062   7.503 -0.2043 -2.3620  0.7221
  126OSM    H5G13508   2.870   1.975   7.440  3.2106 -1.9799  0.0171
  126OSM    C6F13509   2.835   2.121   7.591 -0.5090  1.2202 -0.1645
  126OSM    H6F13510   2.727   2.125   7.565 -0.6648 -0.8637  0.0576
  126OSM    H6G13511   2.875   2.222   7.614  2.6341  0.2973 -1.0751
  126OSM    C7F13512   2.867   2.040   7.720  0.5929 -0.2806 -0.1437
  126OSM    H7F13513   2.975   2.036   7.742  0.7479 -2.7776 -0.9890
  126OSM    H7G13514   2.840   1.935   7.696  0.8914 -0.2839 -0.4817
  126OSM    C8F13515   2.786   2.078   7.849 -0.8121 -0.3211 -0.0001
  126OSM    H8F13516   2.764   1.991   7.914  0.6791 -0.6765  0.0717
  126OSM    H8G13517   2.698   2.131   7.808  0.9411  1.3003 -1.9128
  126OSM    C9F13518   2.875   2.164   7.936 -0.3722  0.1866  0.1248
  126OSM    H9F13519   2.924   2.242   7.875 -1.5218  2.1597  1.6328
  126OSM   C10F13520   2.900   2.147   8.068  0.3895 -0.2923 -0.1968
  126OSM   H10F13521   2.971   2.212   8.122  0.8161  1.1625 -2.3742
  126OSM   C11F13522   2.835   2.049   8.153  0.4748  0.1976 -0.1411
  126OSM   H11F13523   2.853   1.946   8.114  0.2926  0.1096  0.0015
  126OSM   H11G13524   2.727   2.075   8.152  0.0338 -1.4578  0.5206
  126OSM   C12F13525   2.868   2.048   8.302 -0.7707 -0.1761  0.4669
  126OSM   H12F13526   2.820   2.140   8.344 -0.5786  0.7099 -1.1527
  126OSM   H12G13527   2.977   2.049   8.322 -1.1710 -0.1251  2.9552
  126OSM   C13F13528   2.808   1.936   8.386  0.6669 -0.1538 -0.5204
  126OSM   H13F13529   2.827   1.832   8.353 -2.2657 -0.7831 -0.5346
  126OSM   H13G13530   2.697   1.948   8.379  0.2304 -2.9751  0.4790
  126OSM   C14F13531   2.832   1.938   8.538  0.2401 -0.1174  0.0899
  126OSM   H14F13532   2.831   2.042   8.575 -0.4488 -0.2515  0.4682
  126OSM   H14G13533   2.934   1.900   8.560  0.4756  0.8704  0.7654
  126OSM   C15F13534   2.732   1.863   8.623  0.5359  0.8701 -0.1519
  126OSM   H15F13535   2.629   1.893   8.598  0.1561  0.2818  0.6455
  126OSM   H15G13536   2.744   1.882   8.732  1.3079  2.0519 -0.4267
  126OSM   C16F13537   2.730   1.714   8.610 -0.0371  0.4743  0.3946
  126OSM   H16F13538   2.828   1.674   8.643 -0.2406 -1.5915 -1.2800
  126OSM   H16G13539   2.711   1.697   8.502  0.0608  0.8568  0.3162
  126OSM   C17F13540   2.623   1.647   8.695 -0.2911 -0.5262 -0.2702
  126OSM   H17F13541   2.526   1.684   8.655  0.5355 -0.1628 -2.0275
  126OSM   H17G13542   2.620   1.685   8.799  1.6228 -1.6250  0.2480
  126OSM   C18F13543   2.614   1.492   8.687 -0.3556 -0.2675  0.1911
  126OSM   H18F13544   2.605   1.450   8.585 -0.1044 -0.1962  0.1398
  126OSM   H18G13545   2.524   1.471   8.749 -2.3281  0.1175 -2.4045
  126OSM   H18H13546   2.702   1.450   8.741  1.2629  1.8825 -0.6607
  127OSM      N13547   3.020   6.389   5.774 -0.4769  0.3266  0.4704
  127OSM    C1513548   3.166   6.363   5.798 -0.2525  0.5811  0.5096
  127OSM   H15A13549   3.180   6.282   5.868  1.9570  1.0568  0.6841
  127OSM   H15B13550   3.208   6.445   5.856 -0.3654 -0.0080  1.4514
  127OSM   H15C13551   3.213   6.340   5.704 -2.4848  0.9146 -0.7653
  127OSM    C1413552   3.023   6.466   5.648  0.3833 -0.4973 -0.2055
  127OSM   H14A13553   3.077   6.558   5.670  0.0770 -0.2292 -0.5695
  127OSM   H14B13554   2.922   6.483   5.615  0.3831  0.9282  0.4265
  127OSM   H14C13555   3.078   6.414   5.571 -0.0523 -1.2642 -0.0041
  127OSM    C1313556   2.941   6.265   5.747 -0.0912  0.4850  0.3027
  127OSM   H13A13557   2.958   6.182   5.813  0.3514  1.4212  1.3868
  127OSM   H13B13558   2.969   6.224   5.651 -0.5516 -0.6230  0.6187
  127OSM   H13C13559   2.835   6.279   5.727 -0.0311 -0.1241 -0.5448
  127OSM    C1213560   2.960   6.465   5.894 -0.2034 -0.1682 -1.1535
  127OSM   H12A13561   2.854   6.482   5.885 -1.0686 -1.5801  3.6396
  127OSM   H12B13562   3.008   6.562   5.891  0.7819 -0.5611  0.5479
  127OSM    C1113563   2.984   6.397   6.035 -1.1028 -0.3163 -0.6064
  127OSM   H11A13564   2.963   6.289   6.019  0.4848 -0.6546 -0.5620
  127OSM   H11B13565   2.909   6.444   6.102  0.3081 -0.3089  1.0502
  127OSM      P13566   3.165   6.319   6.207  0.4685 -0.1794 -0.0023
  127OSM    O1313567   3.132   6.176   6.187  0.3604 -0.3548 -0.3339
  127OSM    O1413568   3.312   6.336   6.242  0.4237  0.1051 -0.0268
  127OSM    O1113569   3.066   6.360   6.323  0.6503  0.1476 -0.1542
  127OSM    O1213570   3.119   6.414   6.082 -0.7800 -0.3336 -0.2871
  127OSM    C1S13571   3.117   6.374   6.456 -0.5009 -0.0893  0.1558
  127OSM    H1S13572   3.156   6.476   6.474  0.1489 -0.4955  1.2037
  127OSM    H1T13573   3.199   6.300   6.472 -0.4988 -0.2052 -0.3729
  127OSM     NF13574   3.070   6.349   6.695 -0.4030  0.1823 -0.3450
  127OSM    HNF13575   3.112   6.264   6.727  0.6166  0.6048 -0.4959
  127OSM    C2S13576   3.006   6.339   6.566  0.5318  0.5685  0.8236
  127OSM    H2S13577   2.933   6.423   6.564  2.4278  2.3082 -1.2994
  127OSM    C3S13578   2.948   6.200   6.531 -0.4813  0.7294  0.2120
  127OSM    H3S13579   3.037   6.134   6.528  0.5263  2.0498 -2.2970
  127OSM     O313580   2.874   6.199   6.406  0.4345 -0.2040  0.1368
  127OSM    HO313581   2.910   6.274   6.358 -0.8454 -0.2100 -0.9079
  127OSM    C4S13582   2.848   6.158   6.626  0.3073  0.4998 -0.6331
  127OSM    H4S13583   2.742   6.172   6.598  0.0232  0.5743  0.4403
  127OSM    C5S13584   2.878   6.090   6.742 -0.3420 -0.7404  0.2606
  127OSM    H5S13585   2.981   6.065   6.774  0.2090 -0.3501 -1.1349
  127OSM    C6S13586   2.776   6.060   6.847 -0.1047  1.0967 -0.1363
  127OSM    H6S13587   2.780   5.952   6.875  0.7878  2.2484  5.4097
  127OSM    H6T13588   2.670   6.088   6.826 -0.8566 -0.6207  1.0932
  127OSM    C7S13589   2.814   6.137   6.977 -0.2649  0.4056  0.7545
  127OSM    H7S13590   2.833   6.245   6.960  0.8049  0.6940  3.2283
  127OSM    H7T13591   2.908   6.095   7.020  0.3180 -1.6089 -2.2221
  127OSM    C8S13592   2.698   6.139   7.080 -0.3154  0.6313  0.0037
  127OSM    H8S13593   2.676   6.031   7.095 -0.4716  0.5325 -0.8921
  127OSM    H8T13594   2.602   6.181   7.042 -1.4190 -2.3066 -0.6783
  127OSM    C9S13595   2.736   6.230   7.205  0.6437  0.1540 -0.1641
  127OSM    H9S13596   2.654   6.260   7.273  1.6317 -0.6492  1.4347
  127OSM    H9T13597   2.787   6.325   7.177  1.6593 -0.3037  0.0885
  127OSM   C10S13598   2.842   6.167   7.295 -0.4810 -0.4390 -0.3188
  127OSM   H10S13599   2.936   6.156   7.238  0.8929 -0.1063  1.7871
  127OSM   H10T13600   2.819   6.062   7.323 -0.7626 -0.3194 -0.0988
  127OSM   C11S13601   2.881   6.255   7.422  0.4562 -0.3156  0.0228
  127OSM   H11S13602   2.844   6.358   7.403 -1.7341 -1.1961 -0.8296
  127OSM   H11T13603   2.991   6.261   7.417  0.3815  0.2301 -3.1845
  127OSM   C12S13604   2.830   6.195   7.555 -0.4731  0.4314  0.4165
  127OSM   H12S13605   2.890   6.249   7.632  1.3699  0.0740 -0.7160
  127OSM   H12T13606   2.841   6.084   7.554 -1.0642  0.3753 -0.0121
  127OSM   C13S13607   2.678   6.215   7.571  0.3149  1.1878 -0.4917
  127OSM   H13S13608   2.617   6.157   7.499 -0.1465 -2.9697  2.8081
  127OSM   H13T13609   2.654   6.323   7.563 -0.7211  0.9624 -0.5118
  127OSM   C14S13610   2.625   6.171   7.714 -0.0778 -1.3797  0.4920
  127OSM   H14S13611   2.649   6.063   7.724 -1.8544 -1.7816  0.8155
  127OSM   H14T13612   2.516   6.193   7.719  0.3471  1.4737 -1.0112
  127OSM   C15S13613   2.685   6.248   7.834 -0.6509 -0.2863 -0.7941
  127OSM   H15S13614   2.796   6.245   7.829 -0.6490 -1.2132 -0.4669
  127OSM   H15T13615   2.654   6.191   7.925 -2.1200  1.1929 -0.3037
  127OSM   C16S13616   2.639   6.395   7.852  0.0997  0.0208  0.0644
  127OSM   H16S13617   2.528   6.390   7.857  0.1593 -0.1491  2.5575
  127OSM   H16T13618   2.651   6.460   7.763  2.1028 -0.3378  0.0109
  127OSM   C17S13619   2.689   6.484   7.965  0.6670  0.1537 -0.3124
  127OSM   H17S13620   2.642   6.584   7.953 -1.0979 -0.2877  2.1189
  127OSM   H17T13621   2.800   6.487   7.959  0.5876  2.4440 -1.7114
  127OSM   C18S13622   2.649   6.427   8.101  0.5508 -0.1749  0.3649
  127OSM   H18S13623   2.657   6.504   8.181  1.4084  2.0522 -1.7314
  127OSM   H18T13624   2.704   6.334   8.128 -0.0173 -0.1306  1.7664
  127OSM   H18U13625   2.542   6.397   8.099  0.5337 -0.2371 -2.6596
  127OSM    C1F13626   3.086   6.459   6.755 -0.0586  0.6722 -0.8977
  127OSM     OF13627   3.047   6.567   6.711 -0.2553 -0.3278 -0.8717
  127OSM    C2F13628   3.130   6.449   6.897  0.2589  0.3731 -0.3474
  127OSM    H2F13629   3.199   6.362   6.908  1.9833  1.2043 -3.3722
  127OSM    H2G13630   3.043   6.434   6.964  0.7958 -0.0407  0.2759
  127OSM    C3F13631   3.205   6.571   6.955  0.0639 -0.2775  0.2822
  127OSM    H3F13632   3.136   6.659   6.955 -1.3119 -1.2109 -3.0344
  127OSM    H3G13633   3.281   6.605   6.882 -1.1118  0.9672 -0.4137
  127OSM    C4F13634   3.281   6.537   7.083 -0.5298 -1.3465  0.3551
  127OSM    H4F13635   3.340   6.625   7.117 -2.0376 -0.6687  1.3552
  127OSM    H4G13636   3.363   6.469   7.055 -0.1361 -1.2956  1.3295
  127OSM    C5F13637   3.199   6.483   7.203  0.7097  0.0368 -0.1605
  127OSM    H5F13638   3.132   6.400   7.172  0.8265  0.5551 -1.8881
  127OSM    H5G13639   3.138   6.565   7.247  0.0393 -1.0655  1.0621
  127OSM    C6F13640   3.284   6.447   7.328 -0.0530  0.4156 -0.0796
  127OSM    H6F13641   3.352   6.367   7.291 -4.3679 -1.8108 -4.2104
  127OSM    H6G13642   3.214   6.408   7.405 -0.2328  3.3785  1.3969
  127OSM    C7F13643   3.362   6.573   7.371 -0.1080  0.5677 -0.4602
  127OSM    H7F13644   3.293   6.660   7.365 -0.7308  0.1850  0.8958
  127OSM    H7G13645   3.447   6.585   7.300 -1.3021  3.1923 -1.5944
  127OSM    C8F13646   3.425   6.555   7.517  0.1020 -0.2602 -0.0856
  127OSM    H8F13647   3.475   6.456   7.528 -0.0153 -0.2754  0.3339
  127OSM    H8G13648   3.337   6.551   7.585 -1.7347 -1.3364 -2.4224
  127OSM    C9F13649   3.513   6.670   7.553 -0.3894  0.5438 -0.0460
  127OSM    H9F13650   3.519   6.749   7.477  3.7676  0.8345  0.3523
  127OSM   C10F13651   3.574   6.676   7.670 -0.1623 -0.0293 -0.5146
  127OSM   H10F13652   3.643   6.759   7.688  0.3366 -0.0035 -2.3393
  127OSM   C11F13653   3.569   6.588   7.788 -0.5670  0.0218  0.4611
  127OSM   H11F13654   3.620   6.491   7.773 -2.7725 -1.2748  0.8158
  127OSM   H11G13655   3.466   6.550   7.805 -0.0438 -1.5834  0.1816
  127OSM   C12F13656   3.625   6.665   7.907 -0.3738  0.0074 -0.5599
  127OSM   H12F13657   3.571   6.760   7.924  2.2198  1.3929  0.4483
  127OSM   H12G13658   3.727   6.710   7.900  0.6926 -1.7654  1.9901
  127OSM   C13F13659   3.622   6.585   8.042  0.0936  0.0712 -0.6194
  127OSM   H13F13660   3.708   6.514   8.038  0.9188  1.1109 -3.0621
  127OSM   H13G13661   3.529   6.526   8.048  1.2052 -1.5958  1.6420
  127OSM   C14F13662   3.632   6.677   8.169 -0.2929 -0.0983 -0.3498
  127OSM   H14F13663   3.543   6.739   8.190 -0.0010  1.0122 -2.1787
  127OSM   H14G13664   3.719   6.742   8.146  1.1396 -1.3506  1.2384
  127OSM   C15F13665   3.670   6.603   8.296 -0.9535  0.3494  0.5167
  127OSM   H15F13666   3.709   6.676   8.370 -1.5672  0.0739  1.1190
  127OSM   H15G13667   3.762   6.546   8.271  0.4861  2.6778  0.1367
  127OSM   C16F13668   3.552   6.516   8.342 -0.5881  0.4455 -0.4976
  127OSM   H16F13669   3.589   6.426   8.397 -0.9840  1.4553  1.5277
  127OSM   H16G13670   3.486   6.472   8.265 -0.1366 -1.0036 -0.1010
  127OSM   C17F13671   3.473   6.584   8.448 -0.8340  0.1873 -0.1959
  127OSM   H17F13672   3.436   6.683   8.414 -1.4231 -0.5860 -1.9356
  127OSM   H17G13673   3.538   6.602   8.536 -0.9913  0.3668 -0.1160
  127OSM   C18F13674   3.352   6.506   8.494 -0.1779  0.3328 -0.7661
  127OSM   H18F13675   3.267   6.496   8.423 -0.2676 -0.9721 -0.5031
  127OSM   H18G13676   3.308   6.555   8.584  0.1293  0.9455 -0.9444
  127OSM   H18H13677   3.376   6.398   8.504 -1.1742  0.1022 -0.7028
  128OSM      N13678   6.590   2.831   6.231  0.5249  0.0871 -0.2222
  128OSM    C1513679   6.716   2.805   6.309  0.5679  0.0735  0.5288
  128OSM   H15A13680   6.704   2.716   6.370 -2.1146 -0.0802 -0.1143
  128OSM   H15B13681   6.734   2.887   6.378 -0.6460 -0.9319  2.1252
  128OSM   H15C13682   6.802   2.793   6.245  0.1045 -0.6993  0.0310
  128OSM    C1413683   6.588   2.965   6.158 -0.1905  0.7234 -0.3724
  128OSM   H14A13684   6.520   2.970   6.075  1.0920 -0.4475 -1.5407
  128OSM   H14B13685   6.682   2.991   6.112 -0.4661  3.5588  0.4738
  128OSM   H14C13686   6.576   3.041   6.234 -0.9877 -0.4638  0.7445
  128OSM    C1313687   6.581   2.725   6.128 -0.2004 -0.1947  0.0021
  128OSM   H13A13688   6.659   2.743   6.056  0.6839  0.9758  1.1943
  128OSM   H13B13689   6.479   2.721   6.094  0.1345 -0.3668 -0.9931
  128OSM   H13C13690   6.605   2.631   6.176  0.1591 -0.3085 -0.3936
  128OSM    C1213691   6.464   2.824   6.319  0.4224 -0.4159  0.0161
  128OSM   H12A13692   6.461   2.723   6.356  0.2994 -0.8708 -1.1978
  128OSM   H12B13693   6.378   2.858   6.262  0.8339  3.9053  1.5708
  128OSM    C1113694   6.469   2.924   6.436 -0.5841 -0.1718  0.0412
  128OSM   H11A13695   6.563   2.912   6.494 -2.4079 -1.1427  3.0086
  128OSM   H11B13696   6.378   2.895   6.494  0.0586 -1.0750  0.6173
  128OSM      P13697   6.335   3.147   6.397  0.4818  0.4206  0.4089
  128OSM    O1313698   6.348   3.282   6.345 -0.0962 -0.3409 -0.3027
  128OSM    O1413699   6.221   3.067   6.346 -0.2708 -0.2346 -0.0076
  128OSM    O1113700   6.324   3.161   6.549  0.2082 -0.3885  0.0014
  128OSM    O1213701   6.469   3.060   6.398  0.6280 -0.4325  0.2351
  128OSM    C1S13702   6.417   3.217   6.641  0.0863 -0.2922  0.4165
  128OSM    H1S13703   6.458   3.310   6.596 -0.5753  0.2391  0.8940
  128OSM    H1T13704   6.506   3.156   6.667  0.3375  0.5813  1.7212
  128OSM     NF13705   6.426   3.302   6.875  0.0133  0.0076  0.4901
  128OSM    HNF13706   6.457   3.264   6.962  3.7826 -0.1603 -0.7426
  128OSM    C2S13707   6.345   3.222   6.780 -0.4295 -0.3072  0.7293
  128OSM    H2S13708   6.245   3.272   6.771 -2.0370 -3.3000  0.7019
  128OSM    C3S13709   6.312   3.071   6.820 -0.8559 -0.7465 -0.3691
  128OSM    H3S13710   6.404   3.011   6.829  0.8059  1.5173 -1.3039
  128OSM     O313711   6.223   3.018   6.726  0.7659 -0.4736  0.0599
  128OSM    HO313712   6.228   3.075   6.649  0.0335  0.4196  0.6530
  128OSM    C4S13713   6.241   3.072   6.956 -0.5753  0.3061  0.7624
  128OSM    H4S13714   6.304   3.072   7.047 -0.3525 -1.1387  0.6287
  128OSM    C5S13715   6.111   3.067   6.984  0.0752 -0.4873 -0.5294
  128OSM    H5S13716   6.051   3.047   6.895  2.6286 -0.2082 -2.4404
  128OSM    C6S13717   6.033   3.072   7.118 -0.3099  0.5615 -0.1064
  128OSM    H6S13718   5.959   2.991   7.134 -1.4434  1.7929  1.1334
  128OSM    H6T13719   5.967   3.161   7.134 -0.5838  0.4979 -0.8347
  128OSM    C7S13720   6.124   3.077   7.241 -0.7061 -0.2884 -0.6151
  128OSM    H7S13721   6.201   3.156   7.232 -1.0023  0.1310  0.3704
  128OSM    H7T13722   6.180   2.983   7.261 -0.8043  0.0924  1.7520
  128OSM    C8S13723   6.045   3.103   7.378  0.1521 -0.3336  0.6819
  128OSM    H8S13724   5.988   3.009   7.397 -0.4245 -0.1144  0.0612
  128OSM    H8T13725   5.967   3.182   7.365  0.3603 -0.3414 -0.7529
  128OSM    C9S13726   6.137   3.137   7.497  1.3130 -0.5784 -0.5967
  128OSM    H9S13727   6.168   3.244   7.495  1.6980 -0.5449  2.2870
  128OSM    H9T13728   6.221   3.067   7.478  1.0028 -1.2625  0.4502
  128OSM   C10S13729   6.076   3.092   7.630 -0.3017 -0.4185 -0.3275
  128OSM   H10S13730   6.058   2.983   7.638 -1.1223 -0.3737 -1.3209
  128OSM   H10T13731   5.985   3.153   7.648  0.2400  0.5715 -0.8491
  128OSM   C11S13732   6.171   3.132   7.750 -0.4172  0.3052 -0.4174
  128OSM   H11S13733   6.192   3.240   7.733 -2.8398  0.7456 -0.9587
  128OSM   H11T13734   6.263   3.071   7.740 -0.8350 -0.4741  0.3587
  128OSM   C12S13735   6.092   3.107   7.879 -0.6532  0.4177 -0.1565
  128OSM   H12S13736   6.044   3.007   7.878  0.1774  0.0183 -0.5349
  128OSM   H12T13737   6.010   3.182   7.888 -0.1421  0.8697  0.9104
  128OSM   C13S13738   6.184   3.119   8.002 -0.0838  0.0085 -0.5497
  128OSM   H13S13739   6.256   3.203   7.996  0.9988 -0.7919  0.5908
  128OSM   H13T13740   6.235   3.020   8.001  2.0835  1.0499  0.0439
  128OSM   C14S13741   6.101   3.126   8.133 -0.3798 -0.0413  0.6734
  128OSM   H14S13742   6.037   3.037   8.150 -2.0836  0.5753 -1.9120
  128OSM   H14T13743   6.038   3.217   8.123  0.5739  0.5496 -0.1911
  128OSM   C15S13744   6.193   3.147   8.262 -0.3540  0.0348  0.5341
  128OSM   H15S13745   6.250   3.242   8.250  0.4487 -0.6407 -1.5155
  128OSM   H15T13746   6.263   3.060   8.264 -0.9595 -0.4379  1.6812
  128OSM   C16S13747   6.111   3.150   8.389  0.3097 -0.0369  0.1337
  128OSM   H16S13748   6.076   3.047   8.411  0.9725 -0.2996 -0.0026
  128OSM   H16T13749   6.028   3.224   8.386  0.6568  0.4007  1.1455
  128OSM   C17S13750   6.193   3.203   8.513  0.2735 -0.3844  0.1833
  128OSM   H17S13751   6.128   3.245   8.593 -0.8355  0.7435 -1.2480
  128OSM   H17T13752   6.263   3.281   8.474  1.0201 -0.3997  1.4241
  128OSM   C18S13753   6.289   3.112   8.580 -0.9413  0.4278 -0.9575
  128OSM   H18S13754   6.384   3.125   8.524 -1.0422 -0.6781 -1.3985
  128OSM   H18T13755   6.254   3.007   8.579 -1.1494  0.4982 -1.1291
  128OSM   H18U13756   6.316   3.150   8.681 -0.7451  0.3267 -0.9718
  128OSM    C1F13757   6.468   3.418   6.847 -0.6989 -0.6541 -0.7787
  128OSM     OF13758   6.423   3.480   6.746  0.3409 -0.3234  0.1433
  128OSM    C2F13759   6.555   3.484   6.948 -0.4591  0.3126  0.2156
  128OSM    H2F13760   6.626   3.410   6.992 -0.1062 -1.2219 -2.6165
  128OSM    H2G13761   6.481   3.523   7.020 -2.2737 -0.6969 -1.0211
  128OSM    C3F13762   6.638   3.608   6.894 -0.2138 -0.2183  0.5317
  128OSM    H3F13763   6.575   3.670   6.827  0.9753 -1.4161 -1.8255
  128OSM    H3G13764   6.727   3.570   6.839 -0.1935 -0.2733  0.6016
  128OSM    C4F13765   6.702   3.704   6.999 -0.2477  0.4403 -0.4749
  128OSM    H4F13766   6.619   3.760   7.047  1.2564  2.4099 -0.0671
  128OSM    H4G13767   6.748   3.783   6.936 -0.5673 -0.5523 -2.0040
  128OSM    C5F13768   6.794   3.638   7.100 -1.3224  0.6276 -0.2114
  128OSM    H5F13769   6.882   3.589   7.053 -1.9083 -0.4835 -0.1763
  128OSM    H5G13770   6.742   3.552   7.147 -0.6086 -0.9199 -2.1163
  128OSM    C6F13771   6.842   3.735   7.209 -0.3845 -0.4710 -0.4432
  128OSM    H6F13772   6.748   3.781   7.248 -0.1935 -1.0555  0.7382
  128OSM    H6G13773   6.909   3.808   7.157 -1.0485  1.6506  1.4907
  128OSM    C7F13774   6.928   3.671   7.311  0.4315 -0.1411 -0.1564
  128OSM    H7F13775   7.020   3.633   7.260  2.0187  0.8999  1.7868
  128OSM    H7G13776   6.870   3.582   7.346 -1.7349  1.0900 -0.4517
  128OSM    C8F13777   6.972   3.758   7.433 -0.0844 -0.4423 -0.2621
  128OSM    H8F13778   6.878   3.798   7.477  1.0079  1.5259  0.4021
  128OSM    H8G13779   7.038   3.841   7.401  1.0300 -1.1180  0.2223
  128OSM    C9F13780   7.046   3.675   7.528 -0.9633  1.1012  0.2745
  128OSM    H9F13781   7.131   3.631   7.473  0.2286  3.0212  0.4868
  128OSM   C10F13782   7.030   3.659   7.660  0.1923 -0.0076  0.0941
  128OSM   H10F13783   7.091   3.588   7.718 -0.0211 -0.1967  0.0934
  128OSM   C11F13784   6.925   3.731   7.744  0.6803  0.0562  0.4553
  128OSM   H11F13785   6.845   3.658   7.767  0.8771 -1.5612 -3.2882
  128OSM   H11G13786   6.881   3.822   7.697  0.7741  1.5517  3.0588
  128OSM   C12F13787   6.976   3.799   7.880  0.9057  0.5536 -0.1419
  128OSM   H12F13788   6.923   3.895   7.897  0.7079  0.0272  2.6109
  128OSM   H12G13789   7.077   3.840   7.858  2.0120  0.5453  4.1746
  128OSM   C13F13790   6.977   3.711   8.003 -0.5748 -0.0515 -0.1019
  128OSM   H13F13791   7.040   3.623   7.978 -0.3412  0.2069 -0.4390
  128OSM   H13G13792   6.870   3.690   8.023 -0.0354 -1.8787  1.1647
  128OSM   C14F13793   7.037   3.782   8.128 -0.6603  0.4441  0.1035
  128OSM   H14F13794   7.091   3.878   8.112  0.3396 -0.2896 -1.1785
  128OSM   H14G13795   7.123   3.716   8.154 -0.4694  0.1729 -1.1580
  128OSM   C15F13796   6.931   3.807   8.241 -0.8325 -0.7454  0.7463
  128OSM   H15F13797   6.859   3.727   8.267 -0.3689 -1.1369  0.8447
  128OSM   H15G13798   6.865   3.887   8.202  0.1212 -0.5376 -0.5350
  128OSM   C16F13799   6.989   3.845   8.376  0.1256  0.3853 -0.1931
  128OSM   H16F13800   7.043   3.942   8.363 -2.0793  1.4994 -1.6671
  128OSM   H16G13801   7.057   3.766   8.415 -1.5777 -2.2764 -2.3064
  128OSM   C17F13802   6.875   3.857   8.485  0.1706 -0.4226 -0.1649
  128OSM   H17F13803   6.825   3.758   8.480 -1.0658  0.0439  1.8908
  128OSM   H17G13804   6.796   3.925   8.449  0.3216  0.2499  0.7380
  128OSM   C18F13805   6.920   3.901   8.629 -0.0932 -0.3693 -0.1048
  128OSM   H18F13806   7.016   3.848   8.648 -0.3835 -0.4449  1.2803
  128OSM   H18G13807   6.854   3.872   8.714  1.7263 -3.5065  0.3894
  128OSM   H18H13808   6.945   4.009   8.629 -2.1026  0.1769  2.1922
  129OSM      N13809   1.687   6.005   6.215 -0.0658  0.3970 -0.3875
  129OSM    C1513810   1.788   6.030   6.106 -0.1425  0.1972 -0.1324
  129OSM   H15A13811   1.734   6.057   6.016 -1.5899  0.6711  0.8455
  129OSM   H15B13812   1.839   5.937   6.084  0.3715  0.8084 -1.6655
  129OSM   H15C13813   1.860   6.109   6.122  1.0126 -0.9228  0.3819
  129OSM    C1413814   1.594   6.121   6.204  0.2577 -0.5613  0.3666
  129OSM   H14A13815   1.649   6.214   6.203 -0.0095 -0.3859  1.0063
  129OSM   H14B13816   1.523   6.108   6.285 -1.0223  0.7389 -0.4764
  129OSM   H14C13817   1.529   6.114   6.118 -0.0423  1.1022  0.4241
  129OSM    C1313818   1.616   5.878   6.178 -0.0030  0.0544 -0.0967
  129OSM   H13A13819   1.681   5.793   6.185 -1.7044 -1.2866  0.1974
  129OSM   H13B13820   1.573   5.888   6.080 -2.6529  1.2515  1.0690
  129OSM   H13C13821   1.531   5.861   6.244 -0.5103 -0.1777 -0.7978
  129OSM    C1213822   1.760   5.997   6.347 -0.0545 -0.0578 -0.5263
  129OSM   H12A13823   1.821   6.085   6.354  0.0172 -0.1904  0.7786
  129OSM   H12B13824   1.828   5.913   6.339 -0.0066 -0.2849  1.6226
  129OSM    C1113825   1.687   5.971   6.481 -0.2940  0.3077 -0.0704
  129OSM   H11A13826   1.758   5.995   6.563  1.5177 -0.1576 -1.4278
  129OSM   H11B13827   1.667   5.862   6.494 -0.3979  0.3956  0.5310
  129OSM      P13828   1.450   6.002   6.594  0.6736  0.3309  0.3156
  129OSM    O1313829   1.348   6.107   6.606  0.6112 -0.8641 -0.1836
  129OSM    O1413830   1.398   5.873   6.546 -0.3307 -0.0300 -0.1400
  129OSM    O1113831   1.533   5.985   6.731 -0.0327  0.3069 -0.3373
  129OSM    O1213832   1.570   6.048   6.497  0.0552  0.9589 -0.2509
  129OSM    C1S13833   1.612   6.088   6.785  0.9155 -0.7738  0.8068
  129OSM    H1S13834   1.554   6.181   6.805  0.1404 -0.7927 -1.1547
  129OSM    H1T13835   1.700   6.105   6.719  1.5380 -2.7692  1.0491
  129OSM     NF13836   1.764   6.150   6.965 -0.0582  0.2387  0.7141
  129OSM    HNF13837   1.859   6.159   6.934 -0.3856 -0.0770 -0.4229
  129OSM    C2S13838   1.679   6.041   6.915 -0.3426 -0.2874  0.4007
  129OSM    H2S13839   1.588   6.038   6.979  0.3839  0.6656  1.5392
  129OSM    C3S13840   1.746   5.898   6.900  0.9874 -1.2798 -0.3416
  129OSM    H3S13841   1.833   5.908   6.832  1.0342  2.5286  0.0830
  129OSM     O313842   1.651   5.793   6.866 -0.2243  0.4220 -0.7791
  129OSM    HO313843   1.570   5.832   6.831 -0.3159  1.5016  0.5596
  129OSM    C4S13844   1.814   5.874   7.037  0.5337 -0.0934 -0.1660
  129OSM    H4S13845   1.741   5.829   7.106 -0.7707 -0.7861 -1.9066
  129OSM    C5S13846   1.943   5.884   7.076 -0.2845  0.9782  0.4862
  129OSM    H5S13847   2.014   5.907   6.995 -0.9056 -0.5461 -0.5199
  129OSM    C6S13848   2.006   5.853   7.207 -0.4964  0.2470 -0.0981
  129OSM    H6S13849   2.076   5.937   7.227  0.4781 -0.7767  0.8694
  129OSM    H6T13850   2.066   5.760   7.203  0.0294  0.5164  1.2284
  129OSM    C7S13851   1.902   5.834   7.322  0.2452 -0.1396 -0.3182
  129OSM    H7S13852   1.824   5.761   7.293  1.7398 -1.6399 -0.7652
  129OSM    H7T13853   1.862   5.937   7.331  1.3362  0.7708 -4.1226
  129OSM    C8S13854   1.967   5.769   7.442 -0.4749  0.3479 -0.3881
  129OSM    H8S13855   2.060   5.820   7.474 -1.1287  1.7552 -0.6818
  129OSM    H8T13856   1.998   5.668   7.406  3.0879  0.8879  0.7345
  129OSM    C9S13857   1.882   5.769   7.573 -0.4723  0.2857 -0.2462
  129OSM    H9S13858   1.935   5.717   7.656  0.7325  1.3248 -0.3395
  129OSM    H9T13859   1.788   5.711   7.560  0.9074 -3.0264  2.7747
  129OSM   C10S13860   1.872   5.910   7.633  0.1541 -0.4121 -0.2768
  129OSM   H10S13861   1.837   5.971   7.547 -0.1144 -2.2153 -1.5057
  129OSM   H10T13862   1.967   5.949   7.675 -0.8724  1.2547  0.6169
  129OSM   C11S13863   1.768   5.922   7.748 -0.6411 -0.0997 -0.2032
  129OSM   H11S13864   1.667   5.897   7.708 -1.2573  1.0095  0.5940
  129OSM   H11T13865   1.759   6.032   7.760 -0.1630 -0.2168  1.5869
  129OSM   C12S13866   1.799   5.851   7.882  0.7743 -0.4374  0.2172
  129OSM   H12S13867   1.885   5.908   7.922 -0.3841  2.3172 -0.9795
  129OSM   H12T13868   1.840   5.750   7.862  0.6338 -0.5011  0.2486
  129OSM   C13S13869   1.693   5.846   7.990  0.0669  0.1133 -0.3088
  129OSM   H13S13870   1.597   5.798   7.960  1.0309 -1.6429 -0.7063
  129OSM   H13T13871   1.675   5.954   8.006  2.0971  0.4756 -0.2158
  129OSM   C14S13872   1.750   5.790   8.118 -0.0148 -0.2989  0.4412
  129OSM   H14S13873   1.696   5.840   8.201 -1.5720 -0.1618 -0.6256
  129OSM   H14T13874   1.857   5.818   8.129 -0.6370  2.4251  0.1808
  129OSM   C15S13875   1.736   5.639   8.133 -0.4515 -0.4871  0.1479
  129OSM   H15S13876   1.775   5.586   8.043 -2.2448  2.9768 -2.9368
  129OSM   H15T13877   1.626   5.624   8.137 -0.7481  1.3399  0.0180
  129OSM   C16S13878   1.789   5.601   8.272 -0.1125 -0.4831  0.6148
  129OSM   H16S13879   1.781   5.676   8.354  1.7642  1.5237 -0.9220
  129OSM   H16T13880   1.900   5.593   8.262  0.1967  3.3227 -0.5334
  129OSM   C17S13881   1.730   5.474   8.322 -0.4461 -0.1246 -0.0275
  129OSM   H17S13882   1.761   5.393   8.252  1.0899 -0.3161  0.8396
  129OSM   H17T13883   1.620   5.483   8.332 -0.4725 -0.9803  0.5578
  129OSM   C18S13884   1.781   5.438   8.459 -0.5309 -0.4832  0.0340
  129OSM   H18S13885   1.891   5.431   8.454 -0.5814 -0.8073 -0.9298
  129OSM   H18T13886   1.741   5.339   8.492 -1.1081 -0.3684 -0.2991
  129OSM   H18U13887   1.742   5.511   8.533 -0.4209 -0.1065 -0.2780
  129OSM    C1F13888   1.723   6.251   7.037  0.2734  0.1197  0.6260
  129OSM     OF13889   1.605   6.260   7.077 -0.2824  0.0834 -0.1748
  129OSM    C2F13890   1.822   6.360   7.050 -0.5579  0.1637 -0.0028
  129OSM    H2F13891   1.784   6.461   7.024 -0.9512 -0.4935 -2.0927
  129OSM    H2G13892   1.915   6.340   6.993  1.3388 -0.2581  2.9918
  129OSM    C3F13893   1.879   6.358   7.199 -0.3245 -0.2503  0.0113
  129OSM    H3F13894   1.940   6.451   7.210  1.1706 -1.1967 -0.0616
  129OSM    H3G13895   1.940   6.271   7.228  1.5285  1.6566  2.1519
  129OSM    C4F13896   1.771   6.378   7.309 -0.5585 -0.2099 -0.5870
  129OSM    H4F13897   1.710   6.286   7.323  1.3842 -1.4847 -0.0973
  129OSM    H4G13898   1.699   6.457   7.280  0.8866  1.1899 -0.4884
  129OSM    C5F13899   1.826   6.413   7.445  0.2762  0.5979 -0.2336
  129OSM    H5F13900   1.897   6.497   7.428 -0.7624  1.1610 -2.1642
  129OSM    H5G13901   1.882   6.325   7.485  0.5664  0.3301 -1.2023
  129OSM    C6F13902   1.713   6.472   7.536 -0.1951 -0.1125 -0.2479
  129OSM    H6F13903   1.641   6.388   7.549 -0.3211 -0.0604 -0.5920
  129OSM    H6G13904   1.659   6.561   7.496 -1.8164  0.0338  2.0440
  129OSM    C7F13905   1.770   6.512   7.672 -0.8443 -0.5762  0.2708
  129OSM    H7F13906   1.848   6.591   7.661 -1.8036  0.2062 -1.2290
  129OSM    H7G13907   1.831   6.430   7.715  0.9714  1.4618  1.7999
  129OSM    C8F13908   1.662   6.563   7.774  0.1036  0.0460 -0.0644
  129OSM    H8F13909   1.568   6.506   7.759 -0.9333  1.6391  0.1137
  129OSM    H8G13910   1.630   6.665   7.743  0.0033 -0.3938 -1.4797
  129OSM    C9F13911   1.707   6.562   7.921 -0.1231  0.1882  0.0294
  129OSM    H9F13912   1.773   6.646   7.948 -1.0221  0.5803  1.1332
  129OSM   C10F13913   1.683   6.469   8.017 -0.5873 -0.6564  1.4290
  129OSM   H10F13914   1.734   6.469   8.114  2.1633  0.4728  0.0833
  129OSM   C11F13915   1.593   6.352   7.988  0.0703 -0.1832  0.2453
  129OSM   H11F13916   1.623   6.313   7.888  0.0554 -0.9815  0.5471
  129OSM   H11G13917   1.485   6.381   7.988  0.5177  1.7669  2.6738
  129OSM   C12F13918   1.624   6.242   8.083  0.1553  0.5351 -0.2555
  129OSM   H12F13919   1.734   6.226   8.085  0.2544  1.0905 -0.8847
  129OSM   H12G13920   1.575   6.151   8.041 -1.6856  1.9775 -1.3766
  129OSM   C13F13921   1.573   6.270   8.226 -0.6318  0.6002 -0.4968
  129OSM   H13F13922   1.465   6.293   8.219 -0.2905  2.2264 -0.7152
  129OSM   H13G13923   1.623   6.363   8.262 -0.9905  1.9742 -3.3236
  129OSM   C14F13924   1.611   6.155   8.323  0.0993 -0.2223 -0.2596
  129OSM   H14F13925   1.721   6.146   8.331 -0.1010 -2.3439  0.9044
  129OSM   H14G13926   1.573   6.056   8.290  0.8239 -0.7661  0.4852
  129OSM   C15F13927   1.543   6.172   8.461 -0.1758  0.1887  0.1993
  129OSM   H15F13928   1.436   6.154   8.437 -0.5672  1.1925  1.0824
  129OSM   H15G13929   1.557   6.279   8.489 -1.5392  0.3355  0.3980
  129OSM   C16F13930   1.598   6.081   8.563 -0.0950  0.0865  0.6634
  129OSM   H16F13931   1.585   6.114   8.668 -0.5949 -1.0572  0.9635
  129OSM   H16G13932   1.709   6.069   8.557 -0.0040  1.1238 -0.1434
  129OSM   C17F13933   1.546   5.933   8.553 -0.0716  0.4122  0.5515
  129OSM   H17F13934   1.561   5.895   8.450  0.3645 -1.6645  1.3477
  129OSM   H17G13935   1.440   5.920   8.585  0.2087 -0.6415  1.0758
  129OSM   C18F13936   1.610   5.839   8.644  0.8136 -0.5273 -0.1818
  129OSM   H18F13937   1.621   5.879   8.747 -2.2104 -0.6229  0.2525
  129OSM   H18G13938   1.715   5.823   8.610  1.1617 -1.1333  1.0827
  129OSM   H18H13939   1.557   5.741   8.650 -1.2992  0.6621  3.0554
  130OSM      N13940   4.616   2.420   6.355 -0.1895 -0.1964 -0.3911
  130OSM    C1513941   4.573   2.320   6.468 -0.8097 -0.5729  0.4164
  130OSM   H15A13942   4.644   2.245   6.500  0.0627  0.4047  0.8511
  130OSM   H15B13943   4.479   2.269   6.454 -1.1685 -0.0997  1.0611
  130OSM   H15C13944   4.553   2.374   6.559 -1.1491  2.5759 -1.3708
  130OSM    C1413945   4.637   2.339   6.232 -0.0858  0.5739 -0.2307
  130OSM   H14A13946   4.544   2.288   6.210  0.1331  0.5428 -1.1319
  130OSM   H14B13947   4.702   2.255   6.249  0.0215  0.5590 -0.6981
  130OSM   H14C13948   4.665   2.401   6.148  0.4583 -0.5232 -0.8728
  130OSM    C1313949   4.497   2.501   6.346 -0.1094 -0.2116 -0.0575
  130OSM   H13A13950   4.522   2.567   6.264 -0.3045  2.1461  1.6740
  130OSM   H13B13951   4.488   2.566   6.432  2.4771 -2.0113  1.7324
  130OSM   H13C13952   4.407   2.444   6.328 -0.3660  0.1217  0.1517
  130OSM    C1213953   4.748   2.491   6.385 -0.6955  0.3927 -0.2293
  130OSM   H12A13954   4.827   2.421   6.404 -0.4681  1.0491  1.3809
  130OSM   H12B13955   4.736   2.538   6.481 -1.7211 -0.8509  0.2722
  130OSM    C1113956   4.795   2.598   6.284  0.6804 -0.4429  0.0593
  130OSM   H11A13957   4.797   2.553   6.183  1.1968 -1.3668  0.4775
  130OSM   H11B13958   4.896   2.639   6.302 -0.1193  1.5675  0.2765
  130OSM      P13959   4.693   2.804   6.407  0.0249  0.0028  0.1612
  130OSM    O1313960   4.773   2.925   6.385 -0.9329  0.0884 -0.1560
  130OSM    O1413961   4.547   2.815   6.421 -0.8605 -0.0591 -0.1982
  130OSM    O1113962   4.754   2.719   6.524 -0.1554  0.0530  0.7128
  130OSM    O1213963   4.707   2.720   6.282  0.0634 -0.4647  0.8181
  130OSM    C1S13964   4.722   2.749   6.659  0.1232 -0.0881 -0.0185
  130OSM    H1S13965   4.621   2.717   6.691 -0.2526 -0.9844 -1.9246
  130OSM    H1T13966   4.734   2.858   6.674  3.1673 -0.4188  0.4463
  130OSM     NF13967   4.776   2.687   6.891 -0.1039 -1.2190  0.2653
  130OSM    HNF13968   4.802   2.758   6.956 -2.2347 -0.7433  0.6466
  130OSM    C2S13969   4.823   2.687   6.755  0.3941 -0.1473 -0.5144
  130OSM    H2S13970   4.833   2.579   6.733  1.4964 -0.5100  1.5370
  130OSM    C3S13971   4.967   2.753   6.754 -0.2498 -0.3000 -0.4792
  130OSM    H3S13972   4.953   2.857   6.791 -0.1307  0.1249 -1.5680
  130OSM     O313973   5.015   2.769   6.622  0.4634 -0.3228  0.5176
  130OSM    HO313974   4.943   2.746   6.563  2.0285  0.6513 -1.9288
  130OSM    C4S13975   5.063   2.688   6.846  0.0475 -0.4416  0.7077
  130OSM    H4S13976   5.088   2.743   6.938 -1.0732  1.4024 -0.0255
  130OSM    C5S13977   5.132   2.573   6.818 -0.0946  0.5246 -0.1481
  130OSM    H5S13978   5.120   2.537   6.715  0.8171 -1.2000  0.3083
  130OSM    C6S13979   5.232   2.497   6.908 -0.8182 -0.3154 -0.0399
  130OSM    H6S13980   5.335   2.495   6.864  0.7145 -5.0383  2.9497
  130OSM    H6T13981   5.202   2.390   6.918 -0.0280 -0.4967  0.5197
  130OSM    C7S13982   5.241   2.531   7.063  0.4089  0.0273  0.1878
  130OSM    H7S13983   5.142   2.519   7.111 -1.6015 -0.0880 -3.6187
  130OSM    H7T13984   5.275   2.637   7.067  0.0630  0.2048 -1.0454
  130OSM    C8S13985   5.346   2.449   7.138 -0.0234 -0.5049  0.3642
  130OSM    H8S13986   5.442   2.478   7.090  0.4914 -0.7782  1.1956
  130OSM    H8T13987   5.329   2.340   7.127  0.2697 -0.5227  0.0862
  130OSM    C9S13988   5.356   2.480   7.292  0.2753 -0.2846  0.7642
  130OSM    H9S13989   5.255   2.499   7.335 -0.4065 -1.0810 -0.4201
  130OSM    H9T13990   5.403   2.581   7.297 -2.6877  1.1643  2.1017
  130OSM   C10S13991   5.433   2.380   7.379 -0.0078 -0.0714  0.2895
  130OSM   H10S13992   5.529   2.353   7.330 -0.8290  0.0433 -1.4503
  130OSM   H10T13993   5.358   2.298   7.378 -2.6617  2.1204 -2.3566
  130OSM   C11S13994   5.463   2.435   7.521  0.2219  0.3097 -0.6185
  130OSM   H11S13995   5.366   2.468   7.566 -0.1847 -0.3583 -0.9862
  130OSM   H11T13996   5.532   2.517   7.492 -1.1347  0.7095 -2.9528
  130OSM   C12S13997   5.535   2.343   7.621 -0.2889 -0.2519 -1.0634
  130OSM   H12S13998   5.571   2.409   7.703  1.1590 -1.2609 -0.8444
  130OSM   H12T13999   5.616   2.296   7.562  0.1133 -1.7654  0.6001
  130OSM   C13S14000   5.443   2.238   7.689  0.0345  0.7612  0.2110
  130OSM   H13S14001   5.502   2.145   7.706  0.5844  1.1781  0.6537
  130OSM   H13T14002   5.367   2.206   7.614  3.1175 -0.1994 -2.7841
  130OSM   C14S14003   5.378   2.285   7.821  0.1266 -0.5568 -0.3381
  130OSM   H14S14004   5.313   2.375   7.824  3.7755  2.2562  0.5149
  130OSM   H14T14005   5.457   2.329   7.885 -0.9244  0.3454  0.3722
  130OSM   C15S14006   5.320   2.172   7.911  0.2316 -0.1724 -0.0670
  130OSM   H15S14007   5.405   2.101   7.899  0.7499 -0.0554  2.4685
  130OSM   H15T14008   5.238   2.115   7.862  1.4467 -2.4862  0.4208
  130OSM   C16S14009   5.297   2.202   8.055  0.8041 -0.6763  1.0720
  130OSM   H16S14010   5.393   2.229   8.103  0.8560 -1.8754  1.6827
  130OSM   H16T14011   5.254   2.115   8.109 -2.1207  1.3527  2.2752
  130OSM   C17S14012   5.196   2.316   8.082  0.2064  0.2159 -0.0984
  130OSM   H17S14013   5.087   2.297   8.072  0.4550 -1.5210  0.1037
  130OSM   H17T14014   5.210   2.401   8.012  0.7357  1.6038  1.6396
  130OSM   C18S14015   5.221   2.364   8.220 -0.7012  0.5604 -0.4249
  130OSM   H18S14016   5.223   2.276   8.288 -1.0263  1.1480  0.3576
  130OSM   H18T14017   5.139   2.435   8.245  0.5813  2.3650 -1.1680
  130OSM   H18U14018   5.314   2.425   8.221 -0.9710  1.0716  2.5047
  130OSM    C1F14019   4.678   2.615   6.934  0.2292 -0.1144  0.4848
  130OSM     OF14020   4.619   2.539   6.854 -0.1465  0.2007 -0.1230
  130OSM    C2F14021   4.640   2.620   7.077  0.3113  0.3738  0.3406
  130OSM    H2F14022   4.606   2.724   7.097  1.9754  0.9077  0.5584
  130OSM    H2G14023   4.722   2.588   7.145 -0.0488 -2.8472 -0.5937
  130OSM    C3F14024   4.513   2.522   7.110 -0.3089 -0.7326  1.0043
  130OSM    H3F14025   4.534   2.430   7.052  1.1042  0.6779 -0.8824
  130OSM    H3G14026   4.427   2.566   7.055  1.0131 -1.1130 -1.5332
  130OSM    C4F14027   4.488   2.495   7.255  0.2830  0.4483 -0.8054
  130OSM    H4F14028   4.570   2.438   7.305  1.0274  0.2014 -2.2528
  130OSM    H4G14029   4.393   2.438   7.261  0.0297  0.7344 -1.8886
  130OSM    C5F14030   4.469   2.625   7.329 -0.2037  0.1697 -0.4055
  130OSM    H5F14031   4.377   2.671   7.288 -1.2887 -1.8359 -0.3486
  130OSM    H5G14032   4.562   2.681   7.307  0.5830 -1.0734 -0.3504
  130OSM    C6F14033   4.466   2.608   7.490 -0.2117 -0.2054 -0.1581
  130OSM    H6F14034   4.458   2.710   7.533 -2.8342 -0.6946  0.6471
  130OSM    H6G14035   4.565   2.566   7.519  0.0383 -0.9709 -2.0137
  130OSM    C7F14036   4.347   2.534   7.548  0.1225  0.2417 -0.0629
  130OSM    H7F14037   4.328   2.436   7.501 -0.6908  0.8896 -1.1295
  130OSM    H7G14038   4.253   2.594   7.542  0.9104  1.5694  0.3024
  130OSM    C8F14039   4.367   2.513   7.692 -0.3020 -0.1217 -0.5999
  130OSM    H8F14040   4.387   2.610   7.742 -2.2970 -1.5352  3.4123
  130OSM    H8G14041   4.466   2.463   7.704  0.3792  1.1231 -0.8782
  130OSM    C9F14042   4.258   2.446   7.769 -0.1624  0.3773  0.2503
  130OSM    H9F14043   4.203   2.367   7.716  2.4402  0.1776 -2.4505
  130OSM   C10F14044   4.226   2.463   7.895 -0.1317  0.1073  0.0339
  130OSM   H10F14045   4.144   2.404   7.939  0.6893 -1.5410 -0.5632
  130OSM   C11F14046   4.298   2.563   7.986 -0.7025 -0.4790  0.0636
  130OSM   H11F14047   4.240   2.657   7.973 -1.6391 -1.1598 -0.8547
  130OSM   H11G14048   4.404   2.583   7.961 -0.9364  0.4220 -0.2218
  130OSM   C12F14049   4.312   2.523   8.134 -0.4407  0.4764  0.4231
  130OSM   H12F14050   4.389   2.443   8.137  0.3745  1.2641  1.2085
  130OSM   H12G14051   4.221   2.469   8.168  0.3910 -1.7581 -0.6859
  130OSM   C13F14052   4.358   2.634   8.232 -0.3368  0.6172  0.5093
  130OSM   H13F14053   4.271   2.704   8.239 -3.3375 -2.9691  4.5650
  130OSM   H13G14054   4.449   2.684   8.192  0.2966 -0.0644  1.0853
  130OSM   C14F14055   4.384   2.579   8.372  0.3631 -0.1658 -0.6902
  130OSM   H14F14056   4.478   2.520   8.361  1.1478  1.3039 -2.4340
  130OSM   H14G14057   4.304   2.513   8.411 -0.4439  1.1072 -0.1092
  130OSM   C15F14058   4.402   2.700   8.469  0.5868 -0.1725  0.0661
  130OSM   H15F14059   4.315   2.768   8.464  1.7793  1.3428 -3.6523
  130OSM   H15G14060   4.485   2.757   8.422  0.4524 -0.3941 -0.4524
  130OSM   C16F14061   4.438   2.672   8.616  0.4920 -0.0037  0.2750
  130OSM   H16F14062   4.490   2.764   8.649 -1.3654  0.6697  1.4693
  130OSM   H16G14063   4.505   2.584   8.614 -1.5548 -1.6477  0.0076
  130OSM   C17F14064   4.314   2.650   8.701  0.4621 -0.3389 -0.2591
  130OSM   H17F14065   4.240   2.570   8.679 -0.9703  0.2794  2.0708
  130OSM   H17G14066   4.253   2.742   8.691 -0.2595 -0.6927  0.7942
  130OSM   C18F14067   4.346   2.634   8.851  0.2431 -0.3642  0.1147
  130OSM   H18F14068   4.250   2.618   8.905  0.7988 -0.6606  1.0295
  130OSM   H18G14069   4.402   2.718   8.895  0.7960 -0.2081 -0.8733
  130OSM   H18H14070   4.408   2.541   8.847  1.1839  0.2762 -0.6741
  131OSM      N14071   3.894   6.125   6.085 -0.0108  0.3343  0.0516
  131OSM    C1514072   3.913   6.240   5.994  0.5130 -0.7204 -0.0886
  131OSM   H15A14073   4.017   6.242   5.963  1.5063  2.1088  2.8406
  131OSM   H15B14074   3.894   6.328   6.053  0.4595 -0.4033 -0.5792
  131OSM   H15C14075   3.841   6.241   5.915 -1.8803  1.0075  1.9666
  131OSM    C1414076   3.746   6.116   6.135  0.3982  0.6309  0.0018
  131OSM   H14A14077   3.716   6.210   6.178  0.6732 -0.6729  3.3299
  131OSM   H14B14078   3.722   6.039   6.206  1.6872  0.6195  0.4528
  131OSM   H14C14079   3.683   6.101   6.049  2.7326 -2.2662 -1.4056
  131OSM    C1314080   3.923   5.994   6.024 -0.8806 -0.5144  0.4140
  131OSM   H13A14081   3.910   5.913   6.094 -1.8114  0.9196  2.0049
  131OSM   H13B14082   4.024   6.008   5.987 -1.3475  1.8622 -0.1412
  131OSM   H13C14083   3.850   5.975   5.947  1.3816  0.0966 -2.0483
  131OSM    C1214084   3.985   6.124   6.209 -0.5208 -0.7365  0.0713
  131OSM   H12A14085   4.088   6.132   6.176 -1.1786 -1.0659 -2.2167
  131OSM   H12B14086   3.978   6.027   6.258 -0.9026 -0.0516  1.4315
  131OSM    C1114087   3.965   6.230   6.312 -1.1466 -1.2100 -0.9493
  131OSM   H11A14088   4.035   6.213   6.397  0.8758  1.3926 -1.9438
  131OSM   H11B14089   3.865   6.214   6.358 -0.4504 -0.1495  1.0989
  131OSM      P14090   4.117   6.451   6.286  0.2718  0.0738 -0.3920
  131OSM    O1314091   4.224   6.388   6.211  0.4760 -0.8309  0.6026
  131OSM    O1414092   4.095   6.596   6.273 -0.5852 -0.4200  0.1852
  131OSM    O1114093   4.146   6.413   6.443 -0.5770  0.9948  0.5230
  131OSM    O1214094   3.977   6.368   6.264  0.6572  0.0339  0.3838
  131OSM    C1S14095   4.058   6.491   6.530  0.0848 -0.0038  0.0770
  131OSM    H1S14096   3.954   6.496   6.490  0.6225 -1.4620 -1.6989
  131OSM    H1T14097   4.091   6.597   6.537 -1.2275  0.4182  0.1808
  131OSM     NF14098   3.952   6.507   6.747 -0.2418 -0.4075  0.6287
  131OSM    HNF14099   3.975   6.594   6.790 -0.8354  0.2219 -0.2877
  131OSM    C2S14100   4.060   6.435   6.671  0.0465 -0.2519 -0.7539
  131OSM    H2S14101   4.027   6.329   6.667 -3.1559  0.5952  0.2343
  131OSM    C3S14102   4.199   6.452   6.733  0.1258 -0.3031  0.3612
  131OSM    H3S14103   4.212   6.562   6.745  1.9648 -0.4469  0.0120
  131OSM     O314104   4.306   6.406   6.654 -0.2285 -0.2407  0.2291
  131OSM    HO314105   4.264   6.400   6.568 -0.9945  0.0064  0.5815
  131OSM    C4S14106   4.215   6.385   6.867  0.1580  0.3463  0.7714
  131OSM    H4S14107   4.192   6.278   6.867  3.6963 -0.5337 -0.0350
  131OSM    C5S14108   4.246   6.448   6.974 -0.2764 -0.1333  0.4242
  131OSM    H5S14109   4.261   6.557   6.972  0.2050 -0.0604  3.1333
  131OSM    C6S14110   4.263   6.382   7.112  0.2755 -0.0338  0.8829
  131OSM    H6S14111   4.237   6.464   7.182  1.6024  0.3509  0.9345
  131OSM    H6T14112   4.362   6.344   7.144  0.4532  0.9853  1.6070
  131OSM    C7S14113   4.173   6.260   7.137 -0.5760  0.1433 -0.4406
  131OSM    H7S14114   4.212   6.186   7.064 -1.8358 -0.1362 -0.8488
  131OSM    H7T14115   4.069   6.278   7.104 -0.9615 -0.8619  0.1965
  131OSM    C8S14116   4.182   6.208   7.282 -0.4406 -0.3225  0.1894
  131OSM    H8S14117   4.130   6.282   7.346  1.5404  2.0382 -0.7645
  131OSM    H8T14118   4.284   6.218   7.325 -1.6397 -1.2842  3.5132
  131OSM    C9S14119   4.141   6.060   7.292  0.8561 -0.4428  0.5831
  131OSM    H9S14120   4.201   5.993   7.227  0.5789 -0.3244  0.1995
  131OSM    H9T14121   4.036   6.046   7.261  0.5787 -0.0439  1.3184
  131OSM   C10S14122   4.170   5.999   7.428 -0.9118  0.2389 -0.3623
  131OSM   H10S14123   4.126   6.060   7.510 -0.0131  0.9231 -0.3683
  131OSM   H10T14124   4.277   6.004   7.457 -0.5882  0.1433 -1.5007
  131OSM   C11S14125   4.110   5.859   7.441  0.7782  0.1486 -0.0286
  131OSM   H11S14126   4.151   5.791   7.363 -2.3422 -0.5922 -1.1489
  131OSM   H11T14127   4.004   5.858   7.410  0.3133  0.1362  1.4973
  131OSM   C12S14128   4.129   5.794   7.578  0.1438  0.2869 -0.1041
  131OSM   H12S14129   4.060   5.844   7.649  0.3149  1.0664 -0.4706
  131OSM   H12T14130   4.235   5.812   7.606  0.6057 -0.2009 -1.4187
  131OSM   C13S14131   4.096   5.646   7.588 -0.6857  0.5294 -0.1205
  131OSM   H13S14132   4.176   5.576   7.556  0.1857  0.8504  1.2829
  131OSM   H13T14133   4.007   5.625   7.525 -0.5993  1.5463 -0.6007
  131OSM   C14S14134   4.079   5.584   7.729 -0.4889 -0.4045  0.0941
  131OSM   H14S14135   4.020   5.649   7.798  0.4424 -0.1009  0.6156
  131OSM   H14T14136   4.175   5.557   7.777 -0.0625  1.1262  0.1360
  131OSM   C15S14137   3.997   5.453   7.724 -0.2045  0.6502  0.3605
  131OSM   H15S14138   4.064   5.387   7.666  0.9097  0.2171  2.0804
  131OSM   H15T14139   3.912   5.467   7.654 -1.7593 -1.0558  1.8263
  131OSM   C16S14140   3.964   5.393   7.859 -0.3038  0.0800 -0.1283
  131OSM   H16S14141   3.894   5.469   7.898  0.7060 -0.1915  2.4024
  131OSM   H16T14142   4.057   5.384   7.919 -1.0251 -1.6667  0.7953
  131OSM   C17S14143   3.903   5.251   7.847 -0.0314 -0.0269  0.6532
  131OSM   H17S14144   3.832   5.252   7.762 -0.2076 -1.4734  0.7590
  131OSM   H17T14145   3.838   5.220   7.932 -3.6287  0.3214 -1.7387
  131OSM   C18S14146   4.008   5.144   7.812 -0.0967 -0.2813 -0.1868
  131OSM   H18S14147   4.092   5.191   7.756 -2.3636  2.5396 -1.4916
  131OSM   H18T14148   3.967   5.056   7.758 -1.3718 -0.4261  0.9743
  131OSM   H18U14149   4.054   5.113   7.908 -0.4466 -1.2187 -0.3083
  131OSM    C1F14150   3.822   6.471   6.740 -0.0318 -0.3896  0.4209
  131OSM     OF14151   3.794   6.367   6.687 -0.9243  0.6650  0.3189
  131OSM    C2F14152   3.722   6.558   6.818  0.5148  0.8673  1.2373
  131OSM    H2F14153   3.686   6.630   6.742 -1.3755 -0.0525  1.2182
  131OSM    H2G14154   3.783   6.607   6.897  0.1293 -1.4399  3.1103
  131OSM    C3F14155   3.618   6.473   6.890  0.6500 -0.2313  0.3026
  131OSM    H3F14156   3.547   6.414   6.829 -2.0001 -1.8240  4.4333
  131OSM    H3G14157   3.550   6.548   6.935  2.5794  1.2082  0.9419
  131OSM    C4F14158   3.658   6.372   6.997 -0.7705 -0.0716  0.9756
  131OSM    H4F14159   3.707   6.280   6.958  0.3160  0.9594 -0.1566
  131OSM    H4G14160   3.557   6.336   7.029 -2.7268 -0.8255 -4.9187
  131OSM    C5F14161   3.731   6.438   7.106 -1.0242 -0.5019 -0.3982
  131OSM    H5F14162   3.668   6.521   7.143 -0.4154  0.7184 -2.0014
  131OSM    H5G14163   3.822   6.486   7.065 -2.2703  1.4938 -0.9631
  131OSM    C6F14164   3.782   6.356   7.229 -0.1543 -0.5344  0.5341
  131OSM    H6F14165   3.861   6.408   7.286  0.3868 -1.0623  0.2748
  131OSM    H6G14166   3.812   6.258   7.185 -1.7890  0.0409 -2.1090
  131OSM    C7F14167   3.673   6.339   7.329  0.2607  0.1019 -0.6166
  131OSM    H7F14168   3.591   6.274   7.291 -0.3260  0.2802  0.2966
  131OSM    H7G14169   3.630   6.439   7.351 -2.7252 -1.2506  0.1894
  131OSM    C8F14170   3.729   6.280   7.461 -0.4010  0.0312 -0.1282
  131OSM    H8F14171   3.658   6.319   7.537 -1.7911  0.3863 -1.5519
  131OSM    H8G14172   3.825   6.327   7.490 -0.8202  2.1165 -1.8617
  131OSM    C9F14173   3.751   6.132   7.438 -0.8494  0.1009  0.0617
  131OSM    H9F14174   3.773   6.100   7.335 -0.0521 -2.2802  0.8981
  131OSM   C10F14175   3.743   6.038   7.535 -0.4924  0.7085 -0.6534
  131OSM   H10F14176   3.769   5.934   7.511 -1.5674  0.2309  0.1791
  131OSM   C11F14177   3.710   6.060   7.678 -0.0672 -0.8404 -0.5760
  131OSM   H11F14178   3.668   5.969   7.725 -2.9911  0.6381 -0.0971
  131OSM   H11G14179   3.619   6.122   7.688 -1.1853 -2.6607  1.3097
  131OSM   C12F14180   3.824   6.112   7.763 -0.3722 -0.3726 -0.1755
  131OSM   H12F14181   3.872   6.195   7.707  1.2254 -0.2669  1.2726
  131OSM   H12G14182   3.885   6.025   7.795  0.8494 -0.1863 -1.8931
  131OSM   C13F14183   3.783   6.182   7.896  0.0210 -0.7756  0.2241
  131OSM   H13F14184   3.730   6.271   7.855 -0.7993 -1.4260 -0.1553
  131OSM   H13G14185   3.874   6.212   7.953 -0.5387 -0.6824  1.0970
  131OSM   C14F14186   3.690   6.089   7.976  0.0758  0.0280  0.0074
  131OSM   H14F14187   3.744   5.994   7.995  0.9147  0.5902  0.4943
  131OSM   H14G14188   3.600   6.070   7.914 -0.5450  2.3219  0.0944
  131OSM   C15F14189   3.653   6.151   8.111  0.4070  0.0217 -0.3585
  131OSM   H15F14190   3.603   6.250   8.106  0.5898  0.1695  0.4781
  131OSM   H15G14191   3.747   6.152   8.170  0.4723 -1.5109 -0.3872
  131OSM   C16F14192   3.549   6.070   8.191 -0.1510  0.2737 -0.1920
  131OSM   H16F14193   3.601   5.972   8.206  2.3347  1.3281 -1.2865
  131OSM   H16G14194   3.464   6.045   8.124 -0.7876  1.7320  0.0394
  131OSM   C17F14195   3.489   6.127   8.321  0.1992 -0.2741 -0.3391
  131OSM   H17F14196   3.424   6.214   8.302 -0.3813 -0.4845  0.6294
  131OSM   H17G14197   3.568   6.163   8.390  2.6071 -3.9888 -0.8648
  131OSM   C18F14198   3.399   6.022   8.396 -0.2089 -0.1989 -0.3739
  131OSM   H18F14199   3.469   5.937   8.412  0.5080  0.1837 -1.3325
  131OSM   H18G14200   3.314   5.986   8.334  1.2105 -1.7394 -1.5109
  131OSM   H18H14201   3.360   6.065   8.490 -0.7118 -0.4051 -0.4875
  132OSM      N14202   5.272   0.249   6.326 -0.1843 -0.1219 -0.5220
  132OSM    C1514203   5.395   0.290   6.270  0.1514  0.0728  0.3440
  132OSM   H15A14204   5.439   0.215   6.206  0.9023  0.8427 -0.0732
  132OSM   H15B14205   5.477   0.311   6.338 -0.2652 -0.3082  0.9719
  132OSM   H15C14206   5.399   0.379   6.208  2.4873 -0.6046 -0.6000
  132OSM    C1414207   5.244   0.328   6.441 -1.0133 -0.2521  0.0570
  132OSM   H14A14208   5.227   0.433   6.419 -0.2351  0.8763  4.0066
  132OSM   H14B14209   5.323   0.325   6.515 -0.4802  0.3685 -0.4656
  132OSM   H14C14210   5.155   0.296   6.491  0.1528 -2.3126  0.9534
  132OSM    C1314211   5.159   0.275   6.228 -0.0107 -0.9870  0.0832
  132OSM   H13A14212   5.063   0.236   6.260  0.5591 -1.3129  1.4698
  132OSM   H13B14213   5.192   0.234   6.134 -3.2137 -3.0601 -0.3126
  132OSM   H13C14214   5.149   0.382   6.225  1.0904 -0.8903 -0.3715
  132OSM    C1214215   5.281   0.099   6.364 -0.1640  0.0622  0.3978
  132OSM   H12A14216   5.372   0.079   6.419 -0.4909 -0.2682  0.8302
  132OSM   H12B14217   5.311   0.039   6.279  1.3359  0.0249  0.9163
  132OSM    C1114218   5.156   0.047   6.430  0.5104 -0.7299  0.1307
  132OSM   H11A14219   5.067   0.063   6.366 -0.1030  1.2171  1.3674
  132OSM   H11B14220   5.140   0.097   6.529  2.3677  0.7492 -0.2483
  132OSM      P14221   5.071  -0.206   6.412 -0.0452  0.0301  0.0628
  132OSM    O1314222   4.940  -0.162   6.462  0.1851 -0.1971  0.2755
  132OSM    O1414223   5.098  -0.237   6.273  0.7018  0.1968  0.1636
  132OSM    O1114224   5.113  -0.330   6.494  0.5608  0.0207 -0.0732
  132OSM    O1214225   5.175  -0.093   6.453  0.0349  0.1603  0.6221
  132OSM    C1S14226   5.128  -0.339   6.633 -0.1336  0.2030 -0.3803
  132OSM    H1S14227   5.165  -0.247   6.683  0.7576 -1.0959  1.5039
  132OSM    H1T14228   5.201  -0.422   6.648 -1.7799 -0.7842  3.3373
  132OSM     NF14229   5.029  -0.392   6.849 -0.1560 -0.0560 -0.2674
  132OSM    HNF14230   5.043  -0.481   6.892  0.8572  0.0269 -0.4011
  132OSM    C2S14231   4.995  -0.380   6.706 -0.1861  0.0257  0.1743
  132OSM    H2S14232   4.915  -0.305   6.687 -1.2142 -0.9522  0.4571
  132OSM    C3S14233   4.942  -0.508   6.644  0.0108  0.2175  0.4288
  132OSM    H3S14234   5.024  -0.583   6.650 -0.6053 -0.3646  2.2641
  132OSM     O314235   4.906  -0.515   6.508 -0.0265  0.1003  0.5477
  132OSM    HO314236   4.949  -0.439   6.467 -0.2015  0.3775  0.8715
  132OSM    C4S14237   4.818  -0.565   6.708  0.7388 -0.1953 -0.2458
  132OSM    H4S14238   4.838  -0.644   6.782 -1.0903  0.1428  0.6668
  132OSM    C5S14239   4.688  -0.514   6.706 -0.3735  0.1630 -0.2982
  132OSM    H5S14240   4.660  -0.421   6.653 -1.5249 -0.0677 -0.1064
  132OSM    C6S14241   4.574  -0.578   6.786 -0.1613  0.0216  0.1200
  132OSM    H6S14242   4.501  -0.500   6.814  2.3675  2.6088 -0.0503
  132OSM    H6T14243   4.616  -0.620   6.881  1.8528  0.2383 -0.6236
  132OSM    C7S14244   4.514  -0.707   6.727  0.3088  0.0256 -0.1975
  132OSM    H7S14245   4.579  -0.787   6.684 -0.6702 -1.4415  0.9390
  132OSM    H7T14246   4.462  -0.676   6.633  0.1568  1.5504  0.3620
  132OSM    C8S14247   4.394  -0.760   6.810  0.6431  0.5603 -0.5773
  132OSM    H8S14248   4.300  -0.701   6.806  0.6996  0.6824 -0.0707
  132OSM    H8T14249   4.427  -0.773   6.915 -0.7296 -2.6061 -0.4123
  132OSM    C9S14250   4.363  -0.902   6.762  0.0607 -0.5161  0.2027
  132OSM    H9S14251   4.449  -0.970   6.777  1.0545  0.9662  1.5487
  132OSM    H9T14252   4.342  -0.905   6.653 -1.3846 -2.5630  0.4908
  132OSM   C10S14253   4.230  -0.953   6.823 -0.9156  0.0994 -0.8625
  132OSM   H10S14254   4.149  -0.885   6.788 -0.1749  2.4296  1.6362
  132OSM   H10T14255   4.228  -0.961   6.934  0.3870 -3.3023 -0.9705
  132OSM   C11S14256   4.199  -1.094   6.775 -0.3655 -0.2768 -0.1253
  132OSM   H11S14257   4.280  -1.164   6.803  0.5235  1.5739  2.2653
  132OSM   H11T14258   4.200  -1.084   6.665  0.4658  1.3626 -0.0060
  132OSM   C12S14259   4.063  -1.141   6.814  0.3757  0.0417 -0.1442
  132OSM   H12S14260   4.038  -1.221   6.741  0.2561  0.8680 -1.0380
  132OSM   H12T14261   3.993  -1.058   6.787  1.6869  1.4860  0.7706
  132OSM   C13S14262   4.039  -1.183   6.957 -0.2658  0.3980  0.0858
  132OSM   H13S14263   3.931  -1.195   6.978 -0.6165  1.5392 -0.9922
  132OSM   H13T14264   4.073  -1.101   7.024 -0.3624  1.7858 -1.5110
  132OSM   C14S14265   4.106  -1.317   6.997 -0.7158  0.4203  0.1581
  132OSM   H14S14266   4.215  -1.299   6.985 -0.9643  1.8179 -0.2432
  132OSM   H14T14267   4.077  -1.402   6.932  1.9113 -0.1689 -0.3629
  132OSM   C15S14268   4.078  -1.351   7.144 -0.9570  0.2141  0.3082
  132OSM   H15S14269   3.972  -1.327   7.167 -0.4924  2.0475  0.6616
  132OSM   H15T14270   4.131  -1.286   7.216  0.1661 -1.7417  1.3431
  132OSM   C16S14271   4.117  -1.495   7.170  0.0354  0.6945 -0.4830
  132OSM   H16S14272   4.227  -1.502   7.183 -0.0980  1.1341  1.0248
  132OSM   H16T14273   4.094  -1.562   7.084 -4.9676  1.2378  0.1112
  132OSM   C17S14274   4.063  -1.540   7.309 -0.5540  0.2061 -0.2326
  132OSM   H17S14275   4.119  -1.634   7.332  1.2288  0.9371 -1.3650
  132OSM   H17T14276   3.956  -1.568   7.301  0.1145 -2.7289 -0.4358
  132OSM   C18S14277   4.092  -1.440   7.422 -0.1217  0.4622  0.0871
  132OSM   H18S14278   4.048  -1.484   7.514  0.9217 -2.2636 -0.6209
  132OSM   H18T14279   4.052  -1.339   7.400  0.2063  0.2962 -1.3196
  132OSM   H18U14280   4.202  -1.432   7.440  0.1319 -0.1173 -1.1113
  132OSM    C1F14281   5.063  -0.293   6.934 -0.1601 -0.1149 -0.1236
  132OSM     OF14282   5.043  -0.175   6.903  0.4102  0.1048 -0.4594
  132OSM    C2F14283   5.136  -0.331   7.056 -0.1180  0.5464 -0.0524
  132OSM    H2F14284   5.246  -0.323   7.039  0.9140 -1.8805  4.1926
  132OSM    H2G14285   5.132  -0.440   7.076  2.2732  1.0096  4.0748
  132OSM    C3F14286   5.097  -0.247   7.186 -0.5398 -0.1376  0.0569
  132OSM    H3F14287   4.989  -0.232   7.165 -0.5455 -2.1106 -1.6720
  132OSM    H3G14288   5.147  -0.148   7.188  0.0052 -0.2613 -2.9614
  132OSM    C4F14289   5.109  -0.336   7.310 -0.4819 -0.0990  0.2516
  132OSM    H4F14290   5.218  -0.355   7.326 -0.0592  2.0067  0.2358
  132OSM    H4G14291   5.063  -0.432   7.278  1.4750 -0.5572 -1.4563
  132OSM    C5F14292   5.021  -0.287   7.425 -0.1637 -0.0044  0.4417
  132OSM    H5F14293   4.924  -0.253   7.382  1.5791  1.4330 -2.7755
  132OSM    H5G14294   5.068  -0.200   7.475 -1.7040  1.1055  0.0323
  132OSM    C6F14295   4.992  -0.388   7.536 -0.0951 -0.2162  0.5802
  132OSM    H6F14296   5.090  -0.422   7.577 -0.7478 -1.3142  1.2789
  132OSM    H6G14297   4.950  -0.487   7.508  1.0987 -1.0018  1.4388
  132OSM    C7F14298   4.913  -0.316   7.645 -0.9044  0.2595  0.2475
  132OSM    H7F14299   4.808  -0.318   7.610 -1.8651  3.5277  2.5392
  132OSM    H7G14300   4.943  -0.210   7.654 -1.7527  0.4176  1.4793
  132OSM    C8F14301   4.930  -0.385   7.787  0.6306 -0.2121  0.1850
  132OSM    H8F14302   5.036  -0.377   7.819  0.1476 -0.1448  1.8425
  132OSM    H8G14303   4.899  -0.491   7.774  2.1546 -0.6812  0.2379
  132OSM    C9F14304   4.837  -0.300   7.882 -0.0167 -0.3949 -0.5794
  132OSM    H9F14305   4.891  -0.210   7.915 -1.4527  0.9388 -1.7721
  132OSM   C10F14306   4.729  -0.338   7.952 -0.4657  0.0484  0.2384
  132OSM   H10F14307   4.667  -0.270   8.012  0.0047 -0.0870  0.8860
  132OSM   C11F14308   4.672  -0.475   7.952 -0.1451 -0.2833  0.3433
  132OSM   H11F14309   4.718  -0.551   7.887  0.4162 -0.0410  0.4527
  132OSM   H11G14310   4.562  -0.466   7.939  0.0946  1.1951 -0.9899
  132OSM   C12F14311   4.710  -0.532   8.089  0.3322  0.2653  0.1792
  132OSM   H12F14312   4.820  -0.529   8.106 -0.0101  1.3850  2.5454
  132OSM   H12G14313   4.679  -0.638   8.096  2.2129 -0.3831 -0.5145
  132OSM   C13F14314   4.649  -0.452   8.203  0.6570  0.0567 -0.0906
  132OSM   H13F14315   4.541  -0.449   8.179  0.2330  1.4148  1.8029
  132OSM   H13G14316   4.690  -0.349   8.211  1.8622 -0.4583  0.8285
  132OSM   C14F14317   4.661  -0.520   8.339  0.1026 -0.4030 -0.4260
  132OSM   H14F14318   4.762  -0.546   8.378 -1.0450 -3.1601  1.0316
  132OSM   H14G14319   4.610  -0.619   8.334 -0.3680 -0.1197 -1.4728
  132OSM   C15F14320   4.596  -0.440   8.448 -0.4376  0.3002 -0.3523
  132OSM   H15F14321   4.501  -0.399   8.408 -0.7385  0.6799  0.7272
  132OSM   H15G14322   4.666  -0.355   8.464  0.3027 -0.3357 -0.1771
  132OSM   C16F14323   4.589  -0.511   8.582  0.6381 -0.2319  0.5002
  132OSM   H16F14324   4.588  -0.444   8.670 -0.8018 -1.6317  1.5950
  132OSM   H16G14325   4.680  -0.574   8.599 -0.4012 -2.3390 -1.2272
  132OSM   C17F14326   4.461  -0.607   8.590 -0.0534 -0.2300  0.1587
  132OSM   H17F14327   4.451  -0.658   8.492 -0.8655 -1.9227  1.0790
  132OSM   H17G14328   4.375  -0.538   8.604  0.3579  0.8099 -1.9857
  132OSM   C18F14329   4.472  -0.717   8.697  0.3138  0.5149  0.2006
  132OSM   H18F14330   4.406  -0.806   8.685 -0.6105  0.9591  1.7913
  132OSM   H18G14331   4.448  -0.675   8.797 -2.2602 -0.8577  0.2431
  132OSM   H18H14332   4.578  -0.746   8.711 -0.1399 -0.3016  2.4151
  133OSM      N14333   5.284   6.057   6.330  0.3843 -0.3294 -0.3455
  133OSM    C1514334   5.380   6.116   6.431 -0.1082  0.8141 -0.2492
  133OSM   H15A14335   5.418   6.033   6.487  1.5790  0.9833 -1.0886
  133OSM   H15B14336   5.338   6.197   6.488 -2.8293 -0.3282 -0.4795
  133OSM   H15C14337   5.461   6.151   6.368 -0.5385 -2.6975 -3.0592
  133OSM    C1414338   5.254   6.163   6.225 -0.7091  0.4842 -0.0640
  133OSM   H14A14339   5.170   6.129   6.167 -0.3376  1.1392 -1.0033
  133OSM   H14B14340   5.347   6.179   6.172  0.7872 -2.0897  1.5561
  133OSM   H14C14341   5.222   6.256   6.271 -0.0333  0.0242  1.4226
  133OSM    C1314342   5.354   5.939   6.263  0.3953  0.2716 -0.0264
  133OSM   H13A14343   5.433   5.977   6.201 -0.2122  1.1832 -0.2626
  133OSM   H13B14344   5.287   5.880   6.202  0.9799  0.2908 -0.7092
  133OSM   H13C14345   5.382   5.872   6.342 -0.1777 -1.0114 -0.8755
  133OSM    C1214346   5.160   6.011   6.401  1.4382  0.4791 -0.0822
  133OSM   H12A14347   5.120   5.946   6.326 -0.3287  0.5608  0.7397
  133OSM   H12B14348   5.096   6.098   6.407  0.0146 -0.6012  0.8694
  133OSM    C1114349   5.164   5.936   6.532  0.0859  0.2216  0.1498
  133OSM   H11A14350   5.060   5.910   6.560  0.6219 -0.8538  1.2601
  133OSM   H11B14351   5.211   5.997   6.612  2.0568  0.0662 -0.8152
  133OSM      P14352   5.198   5.681   6.494  0.0267 -0.0945 -0.1070
  133OSM    O1314353   5.169   5.686   6.353 -0.0421  0.9005  0.1906
  133OSM    O1414354   5.303   5.591   6.540 -0.1849 -0.0945  0.3717
  133OSM    O1114355   5.064   5.661   6.571 -0.1701 -0.6102  0.1142
  133OSM    O1214356   5.247   5.820   6.529 -0.2185 -0.6487 -0.0295
  133OSM    C1S14357   5.051   5.683   6.706 -0.1156 -0.6246 -0.4446
  133OSM    H1S14358   5.025   5.790   6.721 -0.7292 -0.7192 -0.7758
  133OSM    H1T14359   5.144   5.677   6.766 -0.8188 -0.6883  0.6587
  133OSM     NF14360   4.920   5.649   6.898  0.5812 -0.2714  0.8974
  133OSM    HNF14361   4.967   5.621   6.982  1.4899  0.4523  0.6434
  133OSM    C2S14362   4.954   5.585   6.774 -0.1813 -0.2154 -0.7955
  133OSM    H2S14363   4.860   5.556   6.722 -0.2969 -1.0614 -0.1175
  133OSM    C3S14364   5.031   5.452   6.798 -0.8072  0.1170  0.5298
  133OSM    H3S14365   5.124   5.480   6.852 -0.9538 -0.4768  1.0938
  133OSM     O314366   5.078   5.387   6.677  0.0065 -0.3300 -0.2669
  133OSM    HO314367   5.087   5.451   6.606 -0.2970 -0.2198 -0.2072
  133OSM    C4S14368   4.957   5.354   6.890 -0.2486 -0.1853  0.1603
  133OSM    H4S14369   4.859   5.332   6.845 -0.1011  0.5864 -0.5736
  133OSM    C5S14370   5.003   5.305   7.003 -0.5036 -0.2712  0.6050
  133OSM    H5S14371   5.105   5.331   7.034 -0.3228 -1.2471  0.8827
  133OSM    C6S14372   4.920   5.207   7.091 -0.6634 -0.4144  0.8865
  133OSM    H6S14373   4.979   5.113   7.092  1.0308  0.6019  1.7642
  133OSM    H6T14374   4.814   5.195   7.059 -0.5298  1.4653 -0.4303
  133OSM    C7S14375   4.915   5.262   7.239 -0.8997  0.1404  0.2160
  133OSM    H7S14376   4.852   5.354   7.232 -2.7598 -1.0826 -0.0523
  133OSM    H7T14377   5.016   5.289   7.276 -1.2285  2.0083 -0.1268
  133OSM    C8S14378   4.845   5.168   7.331 -0.0780 -0.3338 -0.7384
  133OSM    H8S14379   4.895   5.069   7.322  0.3887 -0.1040 -0.6868
  133OSM    H8T14380   4.737   5.166   7.305  0.0632  0.1768 -1.3787
  133OSM    C9S14381   4.843   5.208   7.484  0.0445 -0.5498  0.6292
  133OSM    H9S14382   4.761   5.283   7.493 -0.3902 -0.9144 -0.1594
  133OSM    H9T14383   4.938   5.255   7.516 -1.0198  0.5400  2.4047
  133OSM   C10S14384   4.825   5.089   7.583 -0.0469  0.8931 -0.7466
  133OSM   H10S14385   4.924   5.041   7.570 -0.1616  0.1675  0.7605
  133OSM   H10T14386   4.756   5.007   7.551 -0.4112  1.8482 -2.5112
  133OSM   C11S14387   4.792   5.138   7.732  0.6223 -0.4087  0.0965
  133OSM   H11S14388   4.682   5.141   7.749  0.3034  0.6206 -1.8265
  133OSM   H11T14389   4.833   5.239   7.751 -0.3595 -0.3465  2.1048
  133OSM   C12S14390   4.856   5.043   7.835  0.6336  0.5061 -0.1244
  133OSM   H12S14391   4.953   5.013   7.791 -0.0933 -2.4198  0.0681
  133OSM   H12T14392   4.788   4.955   7.835  2.8666 -1.3044 -0.5337
  133OSM   C13S14393   4.852   5.088   7.982  0.1413 -0.2627 -0.1016
  133OSM   H13S14394   4.929   5.167   7.991  1.9072 -1.4632 -3.2977
  133OSM   H13T14395   4.886   5.005   8.047 -0.9808 -0.2115  0.5907
  133OSM   C14S14396   4.720   5.146   8.026  0.3775  0.1651  1.4219
  133OSM   H14S14397   4.638   5.076   8.003  1.7688 -1.2083  0.4476
  133OSM   H14T14398   4.708   5.243   7.972  0.9970 -0.1762  0.6532
  133OSM   C15S14399   4.713   5.159   8.176 -0.2262 -0.6228  0.0754
  133OSM   H15S14400   4.621   5.216   8.201 -0.1616 -1.2345  1.8569
  133OSM   H15T14401   4.799   5.218   8.213  0.2941 -0.8266 -0.7743
  133OSM   C16S14402   4.694   5.032   8.259 -0.0459 -0.5063  0.0282
  133OSM   H16S14403   4.782   4.964   8.250 -0.0387 -0.8064  1.9352
  133OSM   H16T14404   4.610   4.975   8.215  1.3759 -0.6728 -2.7189
  133OSM   C17S14405   4.670   5.060   8.407  0.3951  0.0191  0.2619
  133OSM   H17S14406   4.619   4.970   8.447  2.0913 -0.8664  0.5420
  133OSM   H17T14407   4.617   5.155   8.428 -0.2296 -0.1292 -0.5998
  133OSM   C18S14408   4.799   5.063   8.495 -0.5681  0.0679 -0.3273
  133OSM   H18S14409   4.837   4.959   8.486 -2.7080 -0.6855 -1.3576
  133OSM   H18T14410   4.763   5.099   8.594 -2.5543 -0.8030 -0.6875
  133OSM   H18U14411   4.868   5.132   8.442  1.4260 -0.2617  1.7005
  133OSM    C1F14412   4.836   5.746   6.903 -0.2675  0.9719  0.3485
  133OSM     OF14413   4.763   5.769   6.814  0.5137 -0.0438  0.4032
  133OSM    C2F14414   4.842   5.847   7.017 -0.1253  0.1073 -0.5358
  133OSM    H2F14415   4.736   5.867   7.045 -0.0053  1.5829 -1.0509
  133OSM    H2G14416   4.893   5.933   6.968  0.2995 -0.3347 -0.8780
  133OSM    C3F14417   4.911   5.803   7.155  0.6732  0.3729  0.7978
  133OSM    H3F14418   5.012   5.762   7.129 -0.9990 -2.3761 -2.1168
  133OSM    H3G14419   4.851   5.712   7.175 -0.6395  0.0680 -3.4686
  133OSM    C4F14420   4.919   5.908   7.259 -0.2492 -0.5730  0.3142
  133OSM    H4F14421   4.820   5.935   7.303 -1.0838 -1.9852 -0.5913
  133OSM    H4G14422   4.987   5.989   7.225  2.5908 -2.0489  2.1261
  133OSM    C5F14423   4.995   5.843   7.380 -0.1477 -0.2129 -0.0223
  133OSM    H5F14424   5.094   5.812   7.339 -0.9462 -2.0536 -0.6609
  133OSM    H5G14425   4.944   5.747   7.403 -0.6692 -0.5001 -2.1757
  133OSM    C6F14426   5.005   5.927   7.506 -0.4372  0.2887 -0.1267
  133OSM    H6F14427   4.903   5.951   7.544  0.6935  2.1576  1.9631
  133OSM    H6G14428   5.054   6.024   7.484 -2.0482  1.6994  2.0806
  133OSM    C7F14429   5.078   5.850   7.613  0.6281  0.4547 -0.7222
  133OSM    H7F14430   5.188   5.852   7.595  0.8993  1.9651  0.8526
  133OSM    H7G14431   5.041   5.746   7.624  0.5797  0.4687 -0.7492
  133OSM    C8F14432   5.058   5.914   7.756 -0.0713 -0.0897 -0.5189
  133OSM    H8F14433   5.090   6.020   7.750 -0.2206  0.1307  1.6307
  133OSM    H8G14434   5.125   5.863   7.829 -2.5921  0.1889  2.2123
  133OSM    C9F14435   4.917   5.912   7.815  0.1394 -0.0001 -0.2474
  133OSM    H9F14436   4.834   5.924   7.745 -0.1021 -2.7372 -0.5447
  133OSM   C10F14437   4.876   5.880   7.941  0.2239 -0.3794  0.1462
  133OSM   H10F14438   4.770   5.882   7.970 -0.2410  1.8462 -1.4454
  133OSM   C11F14439   4.973   5.840   8.050  0.0585  0.1913 -0.0309
  133OSM   H11F14440   4.982   5.924   8.124 -0.2234 -1.2828  1.7523
  133OSM   H11G14441   5.067   5.805   8.002 -1.1820 -0.8157 -1.8198
  133OSM   C12F14442   4.917   5.723   8.132 -1.0613 -0.2096  0.4022
  133OSM   H12F14443   5.006   5.691   8.191  1.3684 -0.1875 -2.9498
  133OSM   H12G14444   4.876   5.650   8.058  1.0955  0.8688 -2.0150
  133OSM   C13F14445   4.814   5.755   8.242  0.6304 -0.6066  0.2381
  133OSM   H13F14446   4.715   5.781   8.199  0.9556 -0.5732 -0.4980
  133OSM   H13G14447   4.852   5.850   8.286  1.0701 -1.3198  1.4691
  133OSM   C14F14448   4.801   5.644   8.349 -0.1127  0.1025  0.0346
  133OSM   H14F14449   4.905   5.617   8.380  0.3038  0.5763 -0.9079
  133OSM   H14G14450   4.751   5.552   8.310  1.2069 -0.8234  0.4428
  133OSM   C15F14451   4.738   5.686   8.481  0.2590 -0.1874 -0.1885
  133OSM   H15F14452   4.660   5.765   8.473 -0.5434 -0.7877  1.2859
  133OSM   H15G14453   4.817   5.744   8.532  0.6433  0.0655 -1.0484
  133OSM   C16F14454   4.698   5.569   8.577 -0.6983 -0.3768 -0.4234
  133OSM   H16F14455   4.678   5.624   8.671  1.2260 -0.2791 -0.0205
  133OSM   H16G14456   4.783   5.497   8.588  0.0249  0.4323 -0.5967
  133OSM   C17F14457   4.573   5.489   8.540  0.3930  0.3440  0.0909
  133OSM   H17F14458   4.550   5.408   8.612 -0.6443 -0.1577 -0.7778
  133OSM   H17G14459   4.609   5.429   8.454  2.1967 -0.2340  1.2018
  133OSM   C18F14460   4.448   5.556   8.495  1.4403  0.3885  0.2923
  133OSM   H18F14461   4.401   5.616   8.576  0.3643 -1.0052  0.7357
  133OSM   H18G14462   4.373   5.485   8.455  2.2174 -1.4018  1.8747
  133OSM   H18H14463   4.469   5.627   8.412 -1.3854  0.9800 -0.0081
  134OSM      N14464   5.592   2.518   6.382 -0.4595 -0.0618 -0.2952
  134OSM    C1514465   5.547   2.428   6.272 -0.8623  0.4736  0.2139
  134OSM   H15A14466   5.453   2.452   6.225 -0.1743  2.0596 -0.4179
  134OSM   H15B14467   5.542   2.329   6.316  1.6616  0.2630  0.1745
  134OSM   H15C14468   5.612   2.430   6.187 -2.1699 -1.7094 -0.9241
  134OSM    C1414469   5.718   2.451   6.427  0.1824  0.2529 -0.9607
  134OSM   H14A14470   5.758   2.499   6.515 -0.5433 -0.5916 -0.1423
  134OSM   H14B14471   5.796   2.449   6.353 -0.1612  1.5274 -1.3878
  134OSM   H14C14472   5.691   2.350   6.456  2.3332  0.1540  0.9497
  134OSM    C1314473   5.628   2.659   6.334 -0.2698  0.3021  0.6136
  134OSM   H13A14474   5.542   2.721   6.315  0.5253  1.5096  0.8527
  134OSM   H13B14475   5.688   2.672   6.245  0.3369  1.6745  1.1905
  134OSM   H13C14476   5.679   2.702   6.419 -1.0900  1.8398  0.3569
  134OSM    C1214477   5.489   2.530   6.501 -0.6248  0.8719  0.2387
  134OSM   H12A14478   5.403   2.589   6.474 -1.7860 -0.6733  0.4068
  134OSM   H12B14479   5.535   2.583   6.583 -0.4187  0.0007  0.7019
  134OSM    C1114480   5.434   2.395   6.554  0.4345  0.4786  0.7050
  134OSM   H11A14481   5.398   2.334   6.469 -1.5413  1.3995  0.8356
  134OSM   H11B14482   5.341   2.417   6.610  0.7769 -1.8733  2.3440
  134OSM      P14483   5.555   2.192   6.638  0.1659  0.1423 -0.0624
  134OSM    O1314484   5.435   2.117   6.591  0.7930 -0.4085  0.4309
  134OSM    O1414485   5.679   2.174   6.563  0.0228  0.0024  0.4455
  134OSM    O1114486   5.581   2.163   6.786 -0.7374 -0.3084 -0.2700
  134OSM    O1214487   5.531   2.344   6.638 -0.0666 -0.6009 -0.0025
  134OSM    C1S14488   5.714   2.180   6.843  0.3336  0.5209  0.2286
  134OSM    H1S14489   5.766   2.273   6.810  1.5708  0.1495  1.0676
  134OSM    H1T14490   5.785   2.101   6.809  0.4195  1.5645 -2.2391
  134OSM     NF14491   5.825   2.244   7.061  0.0143  0.1405 -0.1713
  134OSM    HNF14492   5.895   2.184   7.098  0.3864  1.6000  1.6622
  134OSM    C2S14493   5.703   2.186   6.999  0.7657  0.4289 -0.4702
  134OSM    H2S14494   5.611   2.245   7.021 -0.4353 -0.3812 -2.9466
  134OSM    C3S14495   5.675   2.051   7.060 -0.3426 -0.6073 -0.2037
  134OSM    H3S14496   5.766   1.987   7.051 -1.4396 -2.1977 -0.4406
  134OSM     O314497   5.569   1.978   6.995 -0.2789  0.3473  0.4517
  134OSM    HO314498   5.533   2.035   6.926 -0.4375  2.4818  2.1679
  134OSM    C4S14499   5.641   2.064   7.203 -0.7406 -0.2532  0.2758
  134OSM    H4S14500   5.591   2.158   7.230 -0.0343  0.4695 -0.9212
  134OSM    C5S14501   5.666   1.970   7.302  0.8442 -0.5804  0.6971
  134OSM    H5S14502   5.689   1.865   7.277 -0.4342 -0.8470  0.5605
  134OSM    C6S14503   5.642   1.982   7.447 -0.3761 -0.1354 -0.5724
  134OSM    H6S14504   5.544   1.933   7.468 -0.8486  0.2547 -1.7635
  134OSM    H6T14505   5.641   2.088   7.479 -0.0236 -0.7088  1.4390
  134OSM    C7S14506   5.751   1.914   7.535 -0.1869  0.0369  0.7731
  134OSM    H7S14507   5.849   1.946   7.494  0.4009 -1.6826  0.7836
  134OSM    H7T14508   5.743   1.804   7.526 -1.4373  0.2814 -2.3277
  134OSM    C8S14509   5.750   1.953   7.687 -0.1312 -0.0630 -0.5887
  134OSM    H8S14510   5.657   1.910   7.730 -0.0130  0.4678  0.2123
  134OSM    H8T14511   5.749   2.063   7.704  0.2178 -0.0476 -0.6575
  134OSM    C9S14512   5.870   1.882   7.753  0.4697  0.2421 -0.0994
  134OSM    H9S14513   5.971   1.898   7.710  0.5309 -0.3605 -0.1889
  134OSM    H9T14514   5.857   1.772   7.742 -1.2694  0.4265 -0.1583
  134OSM   C10S14515   5.881   1.918   7.899  1.1219  0.2003 -0.4403
  134OSM   H10S14516   5.778   1.908   7.942  1.3452 -3.5343 -0.4752
  134OSM   H10T14517   5.903   2.026   7.912 -1.1154  0.6089  0.5307
  134OSM   C11S14518   5.977   1.835   7.974 -0.1884  0.0522  0.6759
  134OSM   H11S14519   6.082   1.841   7.940 -0.8165  2.8731 -1.1411
  134OSM   H11T14520   5.935   1.732   7.965  3.0382 -1.9643  5.2845
  134OSM   C12S14521   5.981   1.865   8.123  0.2180 -0.3951  0.3881
  134OSM   H12S14522   5.879   1.856   8.166 -0.2640  5.0964  1.0463
  134OSM   H12T14523   5.994   1.974   8.137  1.5894 -0.3985 -0.6788
  134OSM   C13S14524   6.093   1.791   8.195  0.3967  0.3116 -1.2718
  134OSM   H13S14525   6.185   1.831   8.146 -0.2551 -0.0513 -2.8722
  134OSM   H13T14526   6.090   1.680   8.181  0.9834 -0.5359  3.5515
  134OSM   C14S14527   6.094   1.811   8.344 -0.5878  0.5427  1.1198
  134OSM   H14S14528   6.067   1.917   8.366 -1.3248  0.7027 -0.4493
  134OSM   H14T14529   6.193   1.782   8.386  0.1308  1.1321 -0.0903
  134OSM   C15S14530   5.992   1.728   8.417 -0.0508  0.1024  0.0461
  134OSM   H15S14531   6.033   1.625   8.420 -0.0428  0.1064  0.0642
  134OSM   H15T14532   5.901   1.753   8.358 -0.1633  1.4410  0.7390
  134OSM   C16S14533   5.959   1.770   8.563 -0.3462  0.2678  0.0247
  134OSM   H16S14534   5.947   1.879   8.546 -1.6288 -0.2439 -2.9998
  134OSM   H16T14535   6.038   1.749   8.639 -2.8587  0.9621  3.0256
  134OSM   C17S14536   5.823   1.713   8.604 -0.0898 -0.4444  0.1620
  134OSM   H17S14537   5.822   1.602   8.595  2.5291 -0.6172  1.0950
  134OSM   H17T14538   5.741   1.745   8.537  1.7763 -0.3950 -2.2418
  134OSM   C18S14539   5.789   1.744   8.747  0.8437  0.1262  0.1731
  134OSM   H18S14540   5.679   1.730   8.756  0.9699 -1.0578  0.0198
  134OSM   H18T14541   5.794   1.853   8.770 -1.8000  0.3767 -0.1529
  134OSM   H18U14542   5.831   1.687   8.833 -1.3730  0.0939  1.3023
  134OSM    C1F14543   5.836   2.379   7.038 -0.3829 -0.3354 -0.0598
  134OSM     OF14544   5.749   2.435   6.970 -0.4102  0.0169  0.2320
  134OSM    C2F14545   5.961   2.454   7.086  0.1665  0.6724 -0.6065
  134OSM    H2F14546   5.932   2.559   7.104 -1.7452 -0.0793  1.0277
  134OSM    H2G14547   6.036   2.441   7.004 -0.4092 -0.1005 -1.0231
  134OSM    C3F14548   6.030   2.389   7.210 -0.3215 -1.1363  0.0228
  134OSM    H3F14549   6.122   2.447   7.232 -0.7023  0.0057 -1.2332
  134OSM    H3G14550   6.071   2.290   7.182  0.5910 -0.1374 -2.4493
  134OSM    C4F14551   5.932   2.396   7.330  0.1800  0.6054  0.2751
  134OSM    H4F14552   5.843   2.334   7.309  0.5221 -0.2039  1.1669
  134OSM    H4G14553   5.897   2.501   7.342  0.1912  0.8461 -1.4524
  134OSM    C5F14554   5.993   2.348   7.460  0.1127  0.3226 -0.7729
  134OSM    H5F14555   6.082   2.415   7.468  0.8155 -0.1712 -3.5326
  134OSM    H5G14556   6.045   2.250   7.466  0.0521  0.2804 -0.9213
  134OSM    C6F14557   5.896   2.374   7.584  0.2049 -0.8420 -0.1360
  134OSM    H6F14558   5.818   2.295   7.595  1.5065 -2.1348  0.0362
  134OSM    H6G14559   5.854   2.472   7.554  3.3110  0.5360 -0.2648
  134OSM    C7F14560   5.962   2.388   7.723 -0.0619 -0.2102  0.4725
  134OSM    H7F14561   6.045   2.461   7.717  1.9320 -2.3385  0.2803
  134OSM    H7G14562   6.019   2.293   7.735  0.3760  0.1559  1.4294
  134OSM    C8F14563   5.876   2.419   7.851  0.0575  0.2135  0.6421
  134OSM    H8F14564   5.828   2.518   7.833 -0.1875 -0.2235 -1.4405
  134OSM    H8G14565   5.938   2.434   7.942  0.6059 -0.0048  0.3080
  134OSM    C9F14566   5.776   2.308   7.886  1.0034 -0.2093  0.2044
  134OSM    H9F14567   5.718   2.282   7.797  0.4897  1.1784  0.1204
  134OSM   C10F14568   5.751   2.255   8.006 -0.4685  0.2102 -0.6420
  134OSM   H10F14569   5.668   2.183   8.019  0.9095 -1.6703 -1.8700
  134OSM   C11F14570   5.823   2.287   8.135 -0.4170  0.2774  0.2451
  134OSM   H11F14571   5.884   2.379   8.122 -1.0448  0.8891  1.4850
  134OSM   H11G14572   5.892   2.206   8.168  0.0717 -0.5718 -2.5301
  134OSM   C12F14573   5.729   2.311   8.251  0.0989 -0.6332 -0.0037
  134OSM   H12F14574   5.637   2.366   8.222  0.3947  1.1691  2.1651
  134OSM   H12G14575   5.791   2.373   8.319  1.2823 -0.0362 -1.5422
  134OSM   C13F14576   5.672   2.186   8.317  0.3144 -0.4786  0.0702
  134OSM   H13F14577   5.749   2.111   8.346  0.3088 -0.4823  0.0761
  134OSM   H13G14578   5.612   2.139   8.237 -0.7441  1.5884 -0.4040
  134OSM   C14F14579   5.587   2.222   8.437 -0.2853  0.8230 -0.2082
  134OSM   H14F14580   5.513   2.294   8.398 -1.5394 -0.3667 -0.0979
  134OSM   H14G14581   5.654   2.276   8.506  0.2774  0.1853 -0.2362
  134OSM   C15F14582   5.512   2.102   8.494 -0.0862  0.0779  0.2171
  134OSM   H15F14583   5.582   2.016   8.485 -1.1097 -0.7950  0.4595
  134OSM   H15G14584   5.425   2.075   8.431 -0.1776 -1.0533  0.8250
  134OSM   C16F14585   5.481   2.110   8.646  0.3044  0.3030  0.6947
  134OSM   H16F14586   5.580   2.103   8.695 -0.0654 -0.2579  1.3835
  134OSM   H16G14587   5.423   2.023   8.682 -1.8877  1.3086 -0.2071
  134OSM   C17F14588   5.407   2.236   8.695  0.3781 -0.2209 -0.1816
  134OSM   H17F14589   5.312   2.249   8.638  0.1947 -0.6082  0.0315
  134OSM   H17G14590   5.454   2.335   8.684 -4.8817  2.6026 -0.5451
  134OSM   C18F14591   5.377   2.226   8.842  0.2880  0.4622 -0.4571
  134OSM   H18F14592   5.320   2.136   8.872  0.8835  0.1891 -0.1242
  134OSM   H18G14593   5.333   2.323   8.875  1.6723  0.3461  2.0368
  134OSM   H18H14594   5.470   2.232   8.904  0.5458  2.5040 -0.9601
  135OSM      N14595   0.577   3.117   6.647  0.2381  0.2442  0.0170
  135OSM    C1514596   0.459   3.194   6.672  0.2126 -0.8039  0.4761
  135OSM   H15A14597   0.395   3.188   6.586  0.5527 -1.7824  0.2673
  135OSM   H15B14598   0.486   3.292   6.708  2.1462 -1.2050  0.2193
  135OSM   H15C14599   0.399   3.136   6.741 -0.3545 -1.2081 -0.3373
  135OSM    C1414600   0.672   3.196   6.560  0.0737 -0.0383 -0.8127
  135OSM   H14A14601   0.694   3.288   6.611 -0.3042 -1.2717  1.7141
  135OSM   H14B14602   0.618   3.213   6.468  0.9246  2.1470 -0.9717
  135OSM   H14C14603   0.768   3.148   6.554  0.8741  0.9075  2.3774
  135OSM    C1314604   0.634   3.103   6.790  0.4227 -0.5219  0.4432
  135OSM   H13A14605   0.624   3.197   6.843  2.5231 -0.7949  1.4421
  135OSM   H13B14606   0.740   3.085   6.803  0.7342  0.6451 -0.3380
  135OSM   H13C14607   0.590   3.016   6.837  0.4152  0.0296  1.4898
  135OSM    C1214608   0.550   2.977   6.596 -0.6175  0.2930  0.1876
  135OSM   H12A14609   0.646   2.930   6.579 -0.6356 -0.7157  2.4929
  135OSM   H12B14610   0.495   2.979   6.504 -2.7238 -1.3775  1.3347
  135OSM    C1114611   0.470   2.877   6.675  0.4484 -0.3869 -0.0066
  135OSM   H11A14612   0.535   2.859   6.764  1.2441 -0.5277 -0.6040
  135OSM   H11B14613   0.466   2.773   6.638  0.1513 -1.3405  2.4936
  135OSM      P14614   0.221   2.912   6.624  0.3540 -0.4478  0.1019
  135OSM    O1314615   0.125   3.015   6.645  0.8144  0.3013  0.0009
  135OSM    O1414616   0.277   2.910   6.486 -0.3510  0.0565  0.0503
  135OSM    O1114617   0.159   2.773   6.668 -0.1295 -0.1995  0.6677
  135OSM    O1214618   0.347   2.926   6.723  0.3518  0.0473 -0.0840
  135OSM    C1S14619   0.169   2.713   6.796  0.3730 -0.7182 -0.0644
  135OSM    H1S14620   0.254   2.749   6.857 -0.5301 -0.0163  0.8001
  135OSM    H1T14621   0.197   2.608   6.775  0.2143 -0.9269  0.7327
  135OSM     NF14622   0.060   2.678   7.021 -0.1264 -0.1087  0.1075
  135OSM    HNF14623   0.018   2.590   7.040 -0.2398 -0.6245 -2.2182
  135OSM    C2S14624   0.034   2.726   6.882  0.1685 -0.3572 -0.0814
  135OSM    H2S14625   0.014   2.834   6.895  1.6145 -0.0274 -0.4988
  135OSM    C3S14626  -0.087   2.666   6.811 -0.3241  0.1677 -0.4023
  135OSM    H3S14627  -0.086   2.556   6.828 -1.3336 -0.0373 -1.5016
  135OSM     O314628  -0.097   2.692   6.675  0.4238  0.1937  1.0880
  135OSM    HO314629  -0.013   2.730   6.648 -0.0744 -0.1472 -1.0761
  135OSM    C4S14630  -0.212   2.714   6.880  0.5808  0.5868 -0.4030
  135OSM    H4S14631  -0.222   2.823   6.891  1.6065  0.7345 -0.7785
  135OSM    C5S14632  -0.289   2.632   6.952  0.7051 -0.2905 -0.0178
  135OSM    H5S14633  -0.270   2.524   6.947  1.1944 -0.2096  0.0277
  135OSM    C6S14634  -0.409   2.671   7.040 -0.7296 -0.7042  0.0668
  135OSM    H6S14635  -0.497   2.612   7.004 -1.4048 -1.2376  2.4084
  135OSM    H6T14636  -0.442   2.776   7.029  0.4601 -0.4326 -1.0328
  135OSM    C7S14637  -0.386   2.634   7.195  0.6412  0.3107 -0.2666
  135OSM    H7S14638  -0.370   2.525   7.201 -0.4123 -0.0117 -2.4143
  135OSM    H7T14639  -0.475   2.669   7.253  2.1736 -0.2552  2.5817
  135OSM    C8S14640  -0.273   2.719   7.249 -0.1935  0.2572 -0.2361
  135OSM    H8S14641  -0.288   2.822   7.211  2.4248 -0.5884 -4.1740
  135OSM    H8T14642  -0.172   2.689   7.215  1.1378  2.2451  1.7328
  135OSM    C9S14643  -0.267   2.731   7.401 -0.2303  0.1735  0.2528
  135OSM    H9S14644  -0.364   2.777   7.428 -0.3496  0.4041 -0.5529
  135OSM    H9T14645  -0.181   2.778   7.453  1.7560 -2.0447 -0.8125
  135OSM   C10S14646  -0.273   2.594   7.486 -0.3859 -0.4343 -0.3036
  135OSM   H10S14647  -0.181   2.536   7.459  1.4033  2.6838 -1.4321
  135OSM   H10T14648  -0.349   2.527   7.441  0.3653 -0.8602 -0.9819
  135OSM   C11S14649  -0.269   2.612   7.633  0.1553  0.2160  0.2888
  135OSM   H11S14650  -0.186   2.680   7.660 -0.6910  0.9747  1.0677
  135OSM   H11T14651  -0.238   2.515   7.676  1.8939 -1.5539 -4.3370
  135OSM   C12S14652  -0.403   2.663   7.696  0.5567 -0.1220 -1.5562
  135OSM   H12S14653  -0.489   2.606   7.655 -1.2180  1.1819  0.2311
  135OSM   H12T14654  -0.421   2.769   7.669 -1.8685 -0.6281 -2.1399
  135OSM   C13S14655  -0.407   2.637   7.847 -0.4816 -0.2143  0.2343
  135OSM   H13S14656  -0.394   2.527   7.851 -1.4702 -0.2953  2.0713
  135OSM   H13T14657  -0.509   2.665   7.882 -0.4399  1.0797 -0.5817
  135OSM   C14S14658  -0.292   2.718   7.916 -0.0300 -0.7463  0.6985
  135OSM   H14S14659  -0.282   2.820   7.874 -1.0765 -0.6331  0.6919
  135OSM   H14T14660  -0.192   2.673   7.897 -0.1953 -1.2147  0.9124
  135OSM   C15S14661  -0.320   2.723   8.068 -0.0189  1.1302  0.2133
  135OSM   H15S14662  -0.314   2.618   8.104  0.8914  0.2896 -2.1914
  135OSM   H15T14663  -0.427   2.753   8.074 -0.1052  0.8417  0.1370
  135OSM   C16S14664  -0.238   2.816   8.148  0.0003  0.5498  0.6324
  135OSM   H16S14665  -0.249   2.917   8.104 -1.9637  0.4029  0.7097
  135OSM   H16T14666  -0.132   2.782   8.144  0.0128  0.7065 -0.5538
  135OSM   C17S14667  -0.285   2.833   8.302  0.3314 -0.7468  1.1056
  135OSM   H17S14668  -0.396   2.839   8.309  0.4140  1.8287  0.9777
  135OSM   H17T14669  -0.269   2.936   8.341 -0.8285 -0.1302  0.0342
  135OSM   C18S14670  -0.230   2.731   8.400  0.0312 -0.4574  0.6939
  135OSM   H18S14671  -0.257   2.735   8.508  1.5342  0.4121  1.0531
  135OSM   H18T14672  -0.119   2.729   8.393 -0.0117  0.2575 -0.4658
  135OSM   H18U14673  -0.256   2.629   8.363  2.0555 -0.7201 -0.1442
  135OSM    C1F14674   0.143   2.744   7.102  0.1313  0.1229  0.1053
  135OSM     OF14675   0.190   2.856   7.069  0.7753  0.0214  0.2760
  135OSM    C2F14676   0.180   2.684   7.238  0.3465  0.0525  0.1128
  135OSM    H2F14677   0.290   2.677   7.231  0.3114  0.6588 -1.4128
  135OSM    H2G14678   0.145   2.578   7.243  0.2943  0.1029  0.9176
  135OSM    C3F14679   0.150   2.783   7.348 -0.1761  0.4674  0.1018
  135OSM    H3F14680   0.041   2.804   7.353 -0.6872 -2.1280  1.3335
  135OSM    H3G14681   0.202   2.879   7.325 -1.1114  0.6522 -1.3340
  135OSM    C4F14682   0.175   2.737   7.500  0.3816 -0.5798  0.4021
  135OSM    H4F14683   0.282   2.709   7.512  0.3598 -0.4405  0.9060
  135OSM    H4G14684   0.109   2.648   7.510  1.2038 -1.2997 -0.3294
  135OSM    C5F14685   0.142   2.841   7.603 -0.5749  0.2997  0.9244
  135OSM    H5F14686   0.039   2.880   7.590 -1.2916 -1.1867  1.8566
  135OSM    H5G14687   0.196   2.934   7.576 -0.4625 -0.4048 -1.5043
  135OSM    C6F14688   0.165   2.802   7.746  0.1299  0.1014  0.2236
  135OSM    H6F14689   0.274   2.786   7.760  0.1282  0.6418  0.8799
  135OSM    H6G14690   0.117   2.704   7.769 -4.3841  1.1874 -3.1471
  135OSM    C7F14691   0.112   2.900   7.858  0.2044  0.5477 -0.1095
  135OSM    H7F14692   0.006   2.913   7.830 -0.0796  0.5199  0.9058
  135OSM    H7G14693   0.175   2.991   7.848  1.1920 -0.2195 -1.0517
  135OSM    C8F14694   0.114   2.843   8.004  0.3643 -0.0747  0.0315
  135OSM    H8F14695   0.048   2.755   8.015  1.1919 -0.5145  1.8594
  135OSM    H8G14696   0.070   2.921   8.070  1.1904  0.4376 -0.0009
  135OSM    C9F14697   0.249   2.812   8.053  0.7150  0.2321 -0.2054
  135OSM    H9F14698   0.315   2.775   7.973 -0.0780  3.6300 -2.6773
  135OSM   C10F14699   0.295   2.809   8.179  0.1141 -0.4793  0.6605
  135OSM   H10F14700   0.400   2.783   8.199 -0.4604 -2.5465  1.2507
  135OSM   C11F14701   0.230   2.844   8.310  0.3722 -0.3032  0.2387
  135OSM   H11F14702   0.125   2.808   8.304  1.3721 -3.3319 -1.3741
  135OSM   H11G14703   0.242   2.952   8.333 -0.1152  0.5160 -2.9781
  135OSM   C12F14704   0.295   2.765   8.428 -0.5036 -0.4570 -0.5195
  135OSM   H12F14705   0.405   2.776   8.419 -0.6592  1.4116 -0.3932
  135OSM   H12G14706   0.295   2.655   8.409  1.3081 -0.2619 -1.9628
  135OSM   C13F14707   0.249   2.798   8.563  0.3700 -0.2804 -0.6425
  135OSM   H13F14708   0.139   2.789   8.563  0.3738 -0.4647  0.5635
  135OSM   H13G14709   0.287   2.897   8.596  1.6693 -0.9203 -0.1102
  135OSM   C14F14710   0.304   2.707   8.684  0.3807  0.6136  0.7609
  135OSM   H14F14711   0.415   2.704   8.682  0.3686 -1.4194  1.2451
  135OSM   H14G14712   0.257   2.609   8.661 -2.4212  1.9255  0.4987
  135OSM   C15F14713   0.255   2.764   8.814 -0.1330  0.5481  0.3366
  135OSM   H15F14714   0.147   2.782   8.795  0.2329  1.5971 -0.9740
  135OSM   H15G14715   0.302   2.859   8.849  1.5832  0.5090 -1.6509
  135OSM   C16F14716   0.264   2.657   8.931 -0.0088 -0.3180  0.5197
  135OSM   H16F14717   0.208   2.567   8.897 -1.9650 -0.0496  2.7593
  135OSM   H16G14718   0.211   2.704   9.017  1.2681  1.0845  0.5838
  135OSM   C17F14719   0.403   2.603   8.965 -0.1362  0.4175 -0.1094
  135OSM   H17F14720   0.453   2.682   9.025  0.0336 -1.3324  2.2084
  135OSM   H17G14721   0.474   2.587   8.881  0.4611  1.0318  0.2639
  135OSM   C18F14722   0.406   2.480   9.059  0.1750 -1.0612  1.0398
  135OSM   H18F14723   0.504   2.429   9.071  0.9737  0.1046 -0.1715
  135OSM   H18G14724   0.331   2.406   9.026 -2.5979  2.4094 -1.1923
  135OSM   H18H14725   0.369   2.497   9.162 -0.8527  0.0988  0.5099
  136OSM      N14726   5.145   4.917   5.960 -0.0736  0.6139  0.3297
  136OSM    C1514727   5.186   5.059   5.954 -0.0031  0.4272 -0.8246
  136OSM   H15A14728   5.100   5.123   5.963  0.0710  0.4851 -0.5111
  136OSM   H15B14729   5.237   5.086   5.862  1.0468 -0.7242 -0.6131
  136OSM   H15C14730   5.262   5.080   6.027 -1.7278 -1.5786  1.7116
  136OSM    C1414731   5.054   4.896   5.840 -0.3611  0.5823 -0.1169
  136OSM   H14A14732   4.953   4.915   5.871 -0.5557 -0.7046  0.0824
  136OSM   H14B14733   5.049   4.792   5.814 -0.7321 -0.0392  2.2356
  136OSM   H14C14734   5.081   4.955   5.754  0.6539  2.4636  1.4049
  136OSM    C1314735   5.260   4.820   5.950 -0.6069 -0.9948 -0.4776
  136OSM   H13A14736   5.308   4.821   5.853  4.0088 -0.5695  1.5741
  136OSM   H13B14737   5.217   4.722   5.960 -0.9551 -1.0782 -2.3068
  136OSM   H13C14738   5.327   4.840   6.032 -3.3420  0.4053  1.6078
  136OSM    C1214739   5.061   4.886   6.075  0.4422 -0.2180 -0.2259
  136OSM   H12A14740   5.006   4.796   6.052  0.4327 -0.0359 -0.9286
  136OSM   H12B14741   4.981   4.958   6.075 -0.6142 -1.3165  1.4960
  136OSM    C1114742   5.121   4.881   6.219 -0.0438 -0.2080  0.1235
  136OSM   H11A14743   5.206   4.810   6.213  0.6515  0.1988  3.2920
  136OSM   H11B14744   5.045   4.837   6.288  1.4211 -3.2162 -0.0012
  136OSM      P14745   5.081   5.117   6.332 -0.1588  0.2057 -0.4695
  136OSM    O1314746   5.155   5.243   6.355  0.2200 -0.2729  0.4980
  136OSM    O1414747   4.946   5.124   6.261 -0.9733 -0.0319 -0.5779
  136OSM    O1114748   5.060   5.045   6.468  0.1259 -0.6862 -0.3976
  136OSM    O1214749   5.169   5.010   6.258 -0.4682 -0.1592  0.0058
  136OSM    C1S14750   5.165   4.993   6.550 -0.2577 -0.0882  0.4493
  136OSM    H1S14751   5.257   5.054   6.535 -1.0120  0.8105 -0.7900
  136OSM    H1T14752   5.198   4.896   6.506  2.3631  0.4786  0.9805
  136OSM     NF14753   5.248   4.939   6.774 -0.2794  0.4351  0.0699
  136OSM    HNF14754   5.266   4.849   6.814  1.6040  1.7634  2.5305
  136OSM    C2S14755   5.128   4.970   6.698 -0.2464 -0.3291 -0.1902
  136OSM    H2S14756   5.097   5.070   6.737  0.1739 -0.4063  0.3658
  136OSM    C3S14757   5.018   4.870   6.720  0.3529 -0.1528  0.4503
  136OSM    H3S14758   5.051   4.768   6.690  1.8180  0.4192  0.0171
  136OSM     O314759   4.911   4.887   6.631  0.1042 -0.0167 -0.2270
  136OSM    HO314760   4.955   4.948   6.571  1.6197  0.7509  1.5457
  136OSM    C4S14761   4.970   4.871   6.858 -0.2644  1.5742 -0.6734
  136OSM    H4S14762   4.929   4.967   6.893 -2.2973  0.4591  0.1531
  136OSM    C5S14763   4.982   4.770   6.951 -0.8292  0.7624  0.1264
  136OSM    H5S14764   5.044   4.687   6.914  0.0361  1.1588  0.6581
  136OSM    C6S14765   4.933   4.761   7.094  0.3673 -0.5384  0.5509
  136OSM    H6S14766   4.849   4.833   7.097  0.7073 -0.1551  0.9448
  136OSM    H6T14767   5.003   4.801   7.170  0.3483  0.7831 -0.0978
  136OSM    C7S14768   4.866   4.626   7.138 -0.6454  0.5618  0.0793
  136OSM    H7S14769   4.940   4.544   7.151 -1.0219  0.0029 -1.1471
  136OSM    H7T14770   4.799   4.594   7.056 -3.8789  1.6360  2.1006
  136OSM    C8S14771   4.767   4.619   7.266 -0.3012  0.0330  0.0645
  136OSM    H8S14772   4.730   4.516   7.288 -2.4322  0.8114  0.3752
  136OSM    H8T14773   4.678   4.683   7.253 -0.9450 -0.9596 -0.6139
  136OSM    C9S14774   4.848   4.670   7.384  0.6369  0.6870 -0.2126
  136OSM    H9S14775   4.883   4.770   7.351 -0.0662  0.5390 -1.4570
  136OSM    H9T14776   4.938   4.606   7.398 -1.4711 -2.5321 -0.4163
  136OSM   C10S14777   4.764   4.707   7.509  0.5294  0.3718 -0.1265
  136OSM   H10S14778   4.695   4.623   7.532  0.6232  0.5806  0.9710
  136OSM   H10T14779   4.706   4.801   7.495  1.2014  0.6544 -1.0985
  136OSM   C11S14780   4.843   4.704   7.643  0.8905  0.6902 -0.2056
  136OSM   H11S14781   4.894   4.800   7.664  0.3968  0.9062  0.0099
  136OSM   H11T14782   4.917   4.621   7.640 -1.6207 -1.8611  2.1936
  136OSM   C12S14783   4.764   4.682   7.776  0.8480  0.0463  0.6952
  136OSM   H12S14784   4.714   4.584   7.763  0.0208  0.3470  1.4252
  136OSM   H12T14785   4.678   4.753   7.774  1.5335  0.8867  0.1623
  136OSM   C13S14786   4.845   4.684   7.906  0.7551 -0.7336  0.4688
  136OSM   H13S14787   4.912   4.773   7.913 -0.3938  0.2376 -0.4594
  136OSM   H13T14788   4.912   4.596   7.915  1.0624 -0.3983  1.6714
  136OSM   C14S14789   4.749   4.674   8.027 -0.5477  0.6237  0.4908
  136OSM   H14S14790   4.685   4.585   8.009 -0.7595  0.6348  1.1594
  136OSM   H14T14791   4.679   4.759   8.036 -1.1621  0.4254 -1.6781
  136OSM   C15S14792   4.831   4.636   8.150 -0.2913 -0.7096 -0.5100
  136OSM   H15S14793   4.892   4.725   8.175 -0.1343 -0.1244 -2.7824
  136OSM   H15T14794   4.901   4.555   8.120 -2.0057 -3.4307  2.1734
  136OSM   C16S14795   4.737   4.581   8.262 -0.5470 -0.1911  0.1624
  136OSM   H16S14796   4.666   4.505   8.222 -2.2621  1.7340 -0.6068
  136OSM   H16T14797   4.683   4.671   8.298  2.5531  1.6107  0.6035
  136OSM   C17S14798   4.813   4.534   8.382 -0.3007 -0.4034  0.5421
  136OSM   H17S14799   4.901   4.475   8.349  0.4020  0.7849  0.2219
  136OSM   H17T14800   4.744   4.476   8.447 -1.2243 -0.3374 -0.3520
  136OSM   C18S14801   4.860   4.653   8.462  0.0646 -0.4346 -0.4241
  136OSM   H18S14802   4.919   4.617   8.549 -0.2670 -1.8930 -0.7767
  136OSM   H18T14803   4.764   4.702   8.489 -1.3854 -0.8156 -4.3052
  136OSM   H18U14804   4.918   4.712   8.388  0.8402  1.8698  1.8743
  136OSM    C1F14805   5.347   5.024   6.778  0.1221  0.5364  0.5801
  136OSM     OF14806   5.332   5.140   6.753  0.6962 -0.3582 -0.5981
  136OSM    C2F14807   5.491   4.979   6.815  0.4880 -0.5596 -0.0335
  136OSM    H2F14808   5.559   5.025   6.740 -0.5503  1.8202  0.3940
  136OSM    H2G14809   5.497   4.868   6.810 -0.5848 -0.6048 -0.5092
  136OSM    C3F14810   5.526   5.047   6.950  0.7307 -0.1632  0.2074
  136OSM    H3F14811   5.556   5.154   6.943  2.6013 -0.5889  1.0970
  136OSM    H3G14812   5.623   5.005   6.982 -0.1368 -1.9135  0.6778
  136OSM    C4F14813   5.430   5.012   7.067 -0.4392  0.0383 -0.1228
  136OSM    H4F14814   5.424   4.901   7.075  1.5427 -0.0249  1.2156
  136OSM    H4G14815   5.331   5.040   7.026  0.6686  1.7389 -1.8276
  136OSM    C5F14816   5.454   5.074   7.207  0.6334  0.4308 -1.3238
  136OSM    H5F14817   5.485   5.180   7.192 -0.0598  0.8270 -0.1326
  136OSM    H5G14818   5.537   5.011   7.246 -0.0695  0.2156 -0.1163
  136OSM    C6F14819   5.337   5.074   7.310  0.4098 -0.1979  0.0105
  136OSM    H6F14820   5.251   5.106   7.247 -0.1532  0.0062  0.8781
  136OSM    H6G14821   5.343   5.145   7.395  1.0665  0.3126 -0.4447
  136OSM    C7F14822   5.321   4.936   7.357 -0.8259 -0.0358  0.6769
  136OSM    H7F14823   5.414   4.898   7.406  0.1560  2.2842  0.7549
  136OSM    H7G14824   5.297   4.873   7.269 -1.0187 -0.9670  1.3733
  136OSM    C8F14825   5.212   4.931   7.463  0.2558  0.2922  0.4500
  136OSM    H8F14826   5.125   4.980   7.414  0.6789  1.4075  0.7735
  136OSM    H8G14827   5.251   5.000   7.541 -0.2132  5.0125 -3.0521
  136OSM    C9F14828   5.181   4.794   7.512  0.8069  0.6189  0.6365
  136OSM    H9F14829   5.127   4.736   7.435  0.9113  1.2763  0.0661
  136OSM   C10F14830   5.200   4.745   7.636 -0.0622  0.5470 -0.1921
  136OSM   H10F14831   5.165   4.643   7.661 -2.5224  1.4056  0.1540
  136OSM   C11F14832   5.266   4.807   7.753  0.2964 -0.7428  0.0090
  136OSM   H11F14833   5.227   4.909   7.772 -0.2426 -1.1698  1.2862
  136OSM   H11G14834   5.376   4.805   7.737  0.2380 -0.6435 -0.3956
  136OSM   C12F14835   5.231   4.732   7.889 -0.0214 -0.0479  0.3013
  136OSM   H12F14836   5.290   4.638   7.886 -0.0465 -0.0469 -2.6050
  136OSM   H12G14837   5.123   4.709   7.889  0.4201 -2.3888  1.4931
  136OSM   C13F14838   5.278   4.800   8.012 -0.7135 -0.6175  0.2138
  136OSM   H13F14839   5.236   4.903   8.009 -1.6654 -1.0171 -0.4979
  136OSM   H13G14840   5.387   4.820   8.009 -0.6102 -1.2401 -0.3898
  136OSM   C14F14841   5.237   4.732   8.142  0.3737  0.7843  0.1393
  136OSM   H14F14842   5.126   4.720   8.141  0.3063  1.3168  0.7117
  136OSM   H14G14843   5.249   4.806   8.224 -0.3358  0.9708  0.0794
  136OSM   C15F14844   5.326   4.608   8.169  0.2369 -0.5701  0.0802
  136OSM   H15F14845   5.428   4.637   8.203  0.2942 -1.9843  1.1919
  136OSM   H15G14846   5.341   4.549   8.075  0.7234  0.0899 -0.2666
  136OSM   C16F14847   5.273   4.509   8.267 -0.5634  0.1643  0.5276
  136OSM   H16F14848   5.334   4.416   8.261 -1.0608 -0.2388  1.4293
  136OSM   H16G14849   5.167   4.487   8.240 -0.5627  0.2319  0.4687
  136OSM   C17F14850   5.278   4.558   8.408  0.4018  0.3830 -0.2748
  136OSM   H17F14851   5.211   4.646   8.420  1.0241  0.7975  0.2202
  136OSM   H17G14852   5.374   4.610   8.427  1.7520 -1.1253 -2.4698
  136OSM   C18F14853   5.271   4.440   8.505  0.8406  0.5137 -1.2223
  136OSM   H18F14854   5.162   4.419   8.507  0.8941 -0.1954  2.4117
  136OSM   H18G14855   5.319   4.462   8.603 -0.7838 -0.5917 -0.1264
  136OSM   H18H14856   5.339   4.360   8.470  1.2064  0.8830 -1.3584
  137OSM      N14857   1.255   0.061   6.741  0.2175 -0.1112  0.3182
  137OSM    C1514858   1.253  -0.026   6.616  0.0034  0.4607 -0.1438
  137OSM   H15A14859   1.347  -0.074   6.590  0.3225  0.9044  0.1904
  137OSM   H15B14860   1.219   0.032   6.532  2.5755  0.3311 -1.3706
  137OSM   H15C14861   1.186  -0.110   6.629  2.6610 -1.9212 -0.7596
  137OSM    C1414862   1.118   0.134   6.756  0.3289 -0.3145  0.5608
  137OSM   H14A14863   1.036   0.065   6.747 -0.2893  0.6044 -1.6244
  137OSM   H14B14864   1.113   0.199   6.670  3.7590 -1.3703 -0.5847
  137OSM   H14C14865   1.116   0.190   6.849  0.2910 -2.6139  2.0285
  137OSM    C1314866   1.263  -0.026   6.869 -0.0544 -0.2394  0.4470
  137OSM   H13A14867   1.354  -0.083   6.880  0.0159  0.3437  4.1655
  137OSM   H13B14868   1.194  -0.109   6.877  3.1358 -2.9964  1.9105
  137OSM   H13C14869   1.261   0.037   6.956  1.3537  2.0541 -1.0801
  137OSM    C1214870   1.364   0.168   6.729  0.8477  0.0233  0.2339
  137OSM   H12A14871   1.339   0.220   6.638 -0.3541  1.3644  1.2703
  137OSM   H12B14872   1.456   0.117   6.708  1.8583  1.9355 -0.1685
  137OSM    C1114873   1.376   0.276   6.847 -0.5007  0.4601 -0.1928
  137OSM   H11A14874   1.481   0.299   6.873 -0.0052  1.0924 -2.5985
  137OSM   H11B14875   1.332   0.227   6.937  0.3753 -1.6019 -0.8132
  137OSM      P14876   1.351   0.504   6.736  0.0061 -0.1970  0.1652
  137OSM    O1314877   1.438   0.454   6.624  0.5072  0.0223 -0.6280
  137OSM    O1414878   1.236   0.583   6.684 -0.1795 -0.1113  0.0010
  137OSM    O1114879   1.426   0.586   6.843 -0.3517  0.1878 -0.2400
  137OSM    O1214880   1.296   0.382   6.816 -0.0685 -0.5520  0.2242
  137OSM    C1S14881   1.349   0.656   6.947 -0.0355 -0.3154  0.0916
  137OSM    H1S14882   1.241   0.668   6.923  0.0932  0.3027 -0.1969
  137OSM    H1T14883   1.388   0.759   6.964  0.4801 -0.3046 -1.0820
  137OSM     NF14884   1.287   0.661   7.191  0.8889  0.2154 -0.1457
  137OSM    HNF14885   1.338   0.700   7.267  0.3843  0.0595  0.2857
  137OSM    C2S14886   1.357   0.586   7.090  0.3572 -0.3776  0.2406
  137OSM    H2S14887   1.294   0.495   7.081 -0.9323  0.4097  0.8798
  137OSM    C3S14888   1.506   0.561   7.131  0.2132  0.0043 -0.4211
  137OSM    H3S14889   1.557   0.660   7.132 -2.3142  1.4187  1.0091
  137OSM     O314890   1.580   0.489   7.030 -0.2069 -0.0761  0.3294
  137OSM    HO314891   1.536   0.514   6.948  1.6333 -0.2223 -0.7518
  137OSM    C4S14892   1.511   0.499   7.268 -0.2560  0.0942  0.0085
  137OSM    H4S14893   1.449   0.410   7.287 -0.6752  0.1032 -1.1928
  137OSM    C5S14894   1.593   0.552   7.362 -0.4325  0.1675 -0.3385
  137OSM    H5S14895   1.660   0.636   7.338 -0.4060  0.6326  1.2959
  137OSM    C6S14896   1.611   0.495   7.497  0.1283  0.4797 -0.0038
  137OSM    H6S14897   1.657   0.565   7.570  2.4926 -0.4499 -0.5204
  137OSM    H6T14898   1.680   0.410   7.487  1.6231  1.3948  1.8662
  137OSM    C7S14899   1.477   0.453   7.570 -0.6122  0.6809  0.4117
  137OSM    H7S14900   1.433   0.368   7.513 -0.1721 -0.1535  1.2811
  137OSM    H7T14901   1.408   0.536   7.547 -0.2151  0.0123 -4.3094
  137OSM    C8S14902   1.475   0.415   7.720  0.0550  0.5933  0.1383
  137OSM    H8S14903   1.369   0.404   7.752  0.1100 -0.8157 -0.1008
  137OSM    H8T14904   1.518   0.505   7.768 -1.5720  1.7387 -0.4460
  137OSM    C9S14905   1.563   0.291   7.737  0.5577  0.4509  0.8020
  137OSM    H9S14906   1.660   0.300   7.683  0.2516 -0.5433  0.0679
  137OSM    H9T14907   1.526   0.199   7.689 -0.1978  0.3484  1.5581
  137OSM   C10S14908   1.586   0.264   7.889  0.1792 -0.0802 -0.0543
  137OSM   H10S14909   1.580   0.358   7.948 -2.5321  1.5028 -2.5809
  137OSM   H10T14910   1.689   0.224   7.899  0.1682 -0.0184  0.3305
  137OSM   C11S14911   1.486   0.168   7.956  0.5251 -0.1211 -0.2763
  137OSM   H11S14912   1.467   0.076   7.896 -1.8596  0.5461 -0.6699
  137OSM   H11T14913   1.384   0.213   7.958  0.2179 -0.7609  2.1923
  137OSM   C12S14914   1.529   0.144   8.099  0.1192 -0.4596 -0.0881
  137OSM   H12S14915   1.550   0.235   8.159 -1.6705  0.8348 -1.2900
  137OSM   H12T14916   1.614   0.073   8.100  0.7169  0.2428 -0.1515
  137OSM   C13S14917   1.419   0.059   8.170 -0.0977  0.2968  0.0395
  137OSM   H13S14918   1.379  -0.022   8.104  1.5415 -0.7720  0.2990
  137OSM   H13T14919   1.345   0.136   8.199  1.2043  1.3726  0.5685
  137OSM   C14S14920   1.475  -0.009   8.295  0.1083  0.0873  0.4984
  137OSM   H14S14921   1.494   0.072   8.368  1.4947  0.2516 -0.0086
  137OSM   H14T14922   1.573  -0.051   8.265  0.4918  1.9594 -1.0812
  137OSM   C15S14923   1.386  -0.120   8.350  0.1828 -0.0816  0.0056
  137OSM   H15S14924   1.398  -0.218   8.299 -3.1861 -1.0645  0.8674
  137OSM   H15T14925   1.278  -0.094   8.343  0.4735  1.4438  0.7812
  137OSM   C16S14926   1.406  -0.144   8.498 -0.6878  0.4772 -0.3667
  137OSM   H16S14927   1.381  -0.059   8.564 -1.8696 -1.0958  1.3223
  137OSM   H16T14928   1.513  -0.170   8.515 -0.3239  0.9719 -1.7962
  137OSM   C17S14929   1.324  -0.264   8.559  0.4968  0.0186 -0.4307
  137OSM   H17S14930   1.339  -0.358   8.502  0.0509 -2.3260  2.9876
  137OSM   H17T14931   1.220  -0.224   8.566  0.5177 -0.1867  1.6752
  137OSM   C18S14932   1.376  -0.307   8.700 -1.2889  0.0325 -0.0352
  137OSM   H18S14933   1.315  -0.389   8.743  1.4035 -1.5967  0.8787
  137OSM   H18T14934   1.383  -0.217   8.765  1.3119 -1.1218  1.4527
  137OSM   H18U14935   1.483  -0.337   8.698 -0.9608  1.1614 -1.2786
  137OSM    C1F14936   1.155   0.692   7.198 -0.6506  0.2900 -0.9221
  137OSM     OF14937   1.077   0.650   7.117  0.4776 -0.1095 -0.1575
  137OSM    C2F14938   1.122   0.763   7.326  0.0683  0.6522  0.4718
  137OSM    H2F14939   1.141   0.873   7.325 -0.9848  0.8972 -2.3370
  137OSM    H2G14940   1.167   0.706   7.410 -0.7800  0.5249  0.8569
  137OSM    C3F14941   0.974   0.752   7.358 -0.3376 -0.5684  0.1795
  137OSM    H3F14942   0.944   0.645   7.361  2.2924 -1.3788  0.6530
  137OSM    H3G14943   0.911   0.792   7.275 -0.6838  0.0766  0.7447
  137OSM    C4F14944   0.936   0.831   7.484 -0.0360 -1.3027 -0.4795
  137OSM    H4F14945   0.826   0.849   7.490  0.2338  1.0590 -1.7142
  137OSM    H4G14946   0.980   0.932   7.470 -3.6685  0.3006 -1.6413
  137OSM    C5F14947   0.971   0.776   7.623  0.2234 -0.6468 -0.5266
  137OSM    H5F14948   1.080   0.755   7.627  0.4486  0.3310 -1.1516
  137OSM    H5G14949   0.918   0.679   7.632 -1.7446  0.4421  0.0347
  137OSM    C6F14950   0.923   0.860   7.739  0.3019 -0.5730  0.3458
  137OSM    H6F14951   0.816   0.879   7.716 -0.0018  1.2349  2.8472
  137OSM    H6G14952   0.971   0.960   7.745 -2.8399  1.1110 -0.5513
  137OSM    C7F14953   0.959   0.791   7.869 -0.7538 -1.0441  0.0146
  137OSM    H7F14954   1.069   0.798   7.879 -0.8198 -0.3381  0.2983
  137OSM    H7G14955   0.951   0.680   7.879 -0.0938 -1.1284 -0.3386
  137OSM    C8F14956   0.903   0.868   7.991  0.2868  0.3513  0.5322
  137OSM    H8F14957   0.794   0.848   7.989  0.9510 -4.5442  0.8557
  137OSM    H8G14958   0.932   0.974   7.971 -0.1002  0.9146  2.7671
  137OSM    C9F14959   0.958   0.831   8.124 -0.3406 -0.6376  0.4997
  137OSM    H9F14960   1.067   0.841   8.132 -0.5919  1.0579  2.3585
  137OSM   C10F14961   0.891   0.795   8.238 -0.4720 -0.3871  0.3163
  137OSM   H10F14962   0.952   0.769   8.326  0.7149 -1.1853 -0.7108
  137OSM   C11F14963   0.736   0.795   8.241 -0.4688 -0.2430  0.5108
  137OSM   H11F14964   0.708   0.688   8.235 -2.2834  0.2039  0.5564
  137OSM   H11G14965   0.676   0.826   8.153 -2.1785 -0.2516  1.6326
  137OSM   C12F14966   0.691   0.866   8.377 -0.6712 -0.2802  0.2493
  137OSM   H12F14967   0.748   0.811   8.456  1.1277  0.5963 -0.3880
  137OSM   H12G14968   0.581   0.854   8.372 -0.6199 -0.1390 -2.2079
  137OSM   C13F14969   0.716   1.015   8.396 -0.2302 -0.0888 -0.0923
  137OSM   H13F14970   0.675   1.076   8.313  0.5031 -0.3586 -0.6665
  137OSM   H13G14971   0.827   1.023   8.399 -0.2092 -0.3410 -0.1528
  137OSM   C14F14972   0.663   1.067   8.532 -0.1255 -0.3442  0.1722
  137OSM   H14F14973   0.697   0.998   8.612  0.4588  1.3253  1.4225
  137OSM   H14G14974   0.551   1.067   8.531 -0.1772  1.9215 -1.1614
  137OSM   C15F14975   0.718   1.206   8.570 -0.1415  0.7545 -1.2000
  137OSM   H15F14976   0.665   1.288   8.515 -2.4096 -1.1306 -1.9844
  137OSM   H15G14977   0.824   1.209   8.538  0.2410  1.5524  0.0382
  137OSM   C16F14978   0.695   1.225   8.722 -0.6186  0.3448 -0.6525
  137OSM   H16F14979   0.588   1.197   8.734 -0.3836 -0.0792  0.6326
  137OSM   H16G14980   0.712   1.334   8.734  0.7540  0.2653 -1.7282
  137OSM   C17F14981   0.786   1.149   8.819  0.5241 -0.1317 -0.7570
  137OSM   H17F14982   0.889   1.164   8.781  1.7012 -1.5555  1.6528
  137OSM   H17G14983   0.767   1.039   8.819  1.9595 -0.4195  1.0560
  137OSM   C18F14984   0.788   1.200   8.962  0.3392  0.4170  0.0791
  137OSM   H18F14985   0.770   1.310   8.964 -0.3189  0.3163  2.0466
  137OSM   H18G14986   0.890   1.187   9.004  0.7156  1.6586 -0.3994
  137OSM   H18H14987   0.718   1.146   9.029  0.1585 -0.7480 -1.0288
  138OSM      N14988   1.461   3.349   6.117  0.2066  0.2937 -0.2506
  138OSM    C1514989   1.338   3.340   6.207 -0.3749 -0.1712 -0.0590
  138OSM   H15A14990   1.278   3.256   6.174 -3.2973  0.2971  3.4448
  138OSM   H15B14991   1.266   3.421   6.207 -0.6282 -0.3495  2.1474
  138OSM   H15C14992   1.360   3.316   6.310  1.3062 -1.4639 -0.6808
  138OSM    C1414993   1.509   3.211   6.094  0.0284 -0.2086  0.5708
  138OSM   H14A14994   1.515   3.146   6.180  0.5476 -0.6604  0.1988
  138OSM   H14B14995   1.603   3.212   6.040  0.4970 -0.9268  1.3571
  138OSM   H14C14996   1.455   3.157   6.017  0.6998  0.7965 -0.6494
  138OSM    C1314997   1.412   3.384   5.976 -0.8930 -0.1712  0.0402
  138OSM   H13A14998   1.335   3.312   5.953 -1.2321 -0.3516  1.6370
  138OSM   H13B14999   1.493   3.380   5.904 -1.0623 -2.7206 -0.0903
  138OSM   H13C15000   1.365   3.481   5.971 -1.7457 -0.6301 -1.8108
  138OSM    C1215001   1.576   3.438   6.164  0.1381  0.2162 -0.3105
  138OSM   H12A15002   1.554   3.543   6.152  0.2220  0.0774 -1.8200
  138OSM   H12B15003   1.660   3.445   6.097 -0.1035  0.8497 -0.5586
  138OSM    C1115004   1.634   3.408   6.301 -0.5347  0.0036  0.0060
  138OSM   H11A15005   1.553   3.387   6.375 -0.8055 -0.5118 -0.4232
  138OSM   H11B15006   1.685   3.492   6.351 -1.5330 -0.5699  2.1322
  138OSM      P15007   1.867   3.291   6.288  0.0586 -0.5416  0.3781
  138OSM    O1315008   1.911   3.151   6.282  0.2635  0.3711 -0.4865
  138OSM    O1415009   1.918   3.372   6.172 -0.1462 -0.0751  0.6548
  138OSM    O1115010   1.909   3.359   6.426  0.1860 -0.3459  0.3488
  138OSM    O1215011   1.713   3.288   6.295  0.3326 -0.2229  0.1997
  138OSM    C1S15012   1.883   3.267   6.539  0.9497  0.0804  0.4929
  138OSM    H1S15013   1.942   3.173   6.535  0.1757 -0.3864 -0.4520
  138OSM    H1T15014   1.776   3.235   6.530  0.6157  1.6756 -2.6788
  138OSM     NF15015   1.915   3.228   6.784  0.3807  0.1222 -0.7325
  138OSM    HNF15016   1.834   3.211   6.840  2.6751 -1.1639  2.5566
  138OSM    C2S15017   1.906   3.329   6.683  0.6620 -0.3945  0.3901
  138OSM    H2S15018   1.999   3.390   6.687  0.4395  0.0630 -1.0632
  138OSM    C3S15019   1.789   3.433   6.709 -0.0770 -0.2276  0.2337
  138OSM    H3S15020   1.696   3.373   6.707 -0.2160 -0.0028 -0.1831
  138OSM     O315021   1.781   3.542   6.614  0.1446  0.3752 -0.2063
  138OSM    HO315022   1.847   3.522   6.547  0.1560 -1.4122  0.2846
  138OSM    C4S15023   1.793   3.499   6.845  0.3890  0.2863 -0.1992
  138OSM    H4S15024   1.735   3.436   6.915  1.9339 -0.6549  0.2758
  138OSM    C5S15025   1.845   3.613   6.892 -0.2143  0.2718  0.3051
  138OSM    H5S15026   1.908   3.674   6.824 -1.2281 -0.8917 -1.7866
  138OSM    C6S15027   1.819   3.660   7.038 -0.7258 -0.1090  0.0381
  138OSM    H6S15028   1.722   3.712   7.050 -0.4143 -0.0209  3.0496
  138OSM    H6T15029   1.899   3.733   7.062 -1.8255  1.3080 -0.5067
  138OSM    C7S15030   1.823   3.560   7.150 -0.3610  0.2645 -0.0111
  138OSM    H7S15031   1.912   3.495   7.135  0.8439  1.8667 -0.1144
  138OSM    H7T15032   1.738   3.489   7.153 -0.3430  0.2812  1.3199
  138OSM    C8S15033   1.827   3.634   7.288 -0.1870 -0.0568  0.3709
  138OSM    H8S15034   1.731   3.684   7.312  0.0817 -0.6197  2.9788
  138OSM    H8T15035   1.917   3.699   7.276  0.4178 -0.8275  0.6444
  138OSM    C9S15036   1.834   3.527   7.397  0.7470 -0.4235  0.0132
  138OSM    H9S15037   1.927   3.468   7.383  1.4659  1.1264 -2.3400
  138OSM    H9T15038   1.744   3.461   7.400 -1.5937  2.5596 -0.0724
  138OSM   C10S15039   1.829   3.592   7.538  0.5714 -0.0089 -0.2731
  138OSM   H10S15040   1.748   3.667   7.546  0.5215 -0.2530  2.5774
  138OSM   H10T15041   1.925   3.647   7.547  0.7720 -0.2857 -0.6634
  138OSM   C11S15042   1.800   3.493   7.652  0.2471  0.6278  0.2008
  138OSM   H11S15043   1.871   3.408   7.645  0.2056  0.6207 -0.1734
  138OSM   H11T15044   1.699   3.454   7.626 -0.7956  1.5369  2.6065
  138OSM   C12S15045   1.815   3.567   7.782  0.1771 -0.0540 -0.3396
  138OSM   H12S15046   1.752   3.657   7.797  1.6581  0.7679  1.3368
  138OSM   H12T15047   1.923   3.590   7.796  0.2089  0.0332 -0.7247
  138OSM   C13S15048   1.799   3.479   7.909  0.7873 -0.3785 -1.1563
  138OSM   H13S15049   1.855   3.383   7.901 -0.8570 -1.5716  0.7446
  138OSM   H13T15050   1.693   3.449   7.924  0.2562  1.8598  0.0299
  138OSM   C14S15051   1.836   3.551   8.040  0.2710 -0.3265 -0.0093
  138OSM   H14S15052   1.783   3.648   8.053  0.1500 -0.6968  2.7568
  138OSM   H14T15053   1.945   3.568   8.028  0.0036  1.5509 -0.1350
  138OSM   C15S15054   1.815   3.464   8.169  0.1824 -0.4227  0.7335
  138OSM   H15S15055   1.878   3.373   8.168  0.2981 -0.3601  1.6432
  138OSM   H15T15056   1.714   3.422   8.149 -0.2847  1.2058 -0.5847
  138OSM   C16S15057   1.826   3.541   8.304 -0.2390 -0.2465 -0.0002
  138OSM   H16S15058   1.802   3.644   8.271 -2.7819 -0.5255  0.8096
  138OSM   H16T15059   1.930   3.533   8.343 -0.6750  0.7898  1.4506
  138OSM   C17S15060   1.730   3.485   8.413 -0.0582  0.7061 -0.2619
  138OSM   H17S15061   1.738   3.375   8.412 -0.2241  0.6617  0.9241
  138OSM   H17T15062   1.625   3.503   8.382 -0.7664 -0.0077  1.5757
  138OSM   C18S15063   1.760   3.532   8.552  0.4835  0.5212  0.0916
  138OSM   H18S15064   1.680   3.510   8.625  0.3476 -2.0230 -0.6915
  138OSM   H18T15065   1.785   3.640   8.548  4.1361 -0.1644  0.2566
  138OSM   H18U15066   1.851   3.477   8.587  0.2753  0.9956  1.4304
  138OSM    C1F15067   2.012   3.139   6.804 -0.1710  0.4872  0.0906
  138OSM     OF15068   2.123   3.153   6.750  0.1841 -0.6188  0.5626
  138OSM    C2F15069   1.984   3.021   6.887 -0.6658  0.3504 -0.4438
  138OSM    H2F15070   2.047   2.934   6.856 -0.4299  0.2881  0.1971
  138OSM    H2G15071   1.876   2.999   6.876 -0.4171 -2.1991  1.2727
  138OSM    C3F15072   2.016   3.052   7.031 -0.4389 -0.3760  0.0376
  138OSM    H3F15073   2.112   3.107   7.031 -1.8154  2.2041 -0.8328
  138OSM    H3G15074   2.025   2.957   7.088  1.6014  0.0313  0.4612
  138OSM    C4F15075   1.924   3.153   7.108 -0.6829  0.0485  0.2551
  138OSM    H4F15076   1.822   3.111   7.096 -1.2481  1.2716  0.6163
  138OSM    H4G15077   1.930   3.251   7.056 -1.0679  0.3246  0.7295
  138OSM    C5F15078   1.956   3.176   7.256 -0.8163  0.3364  0.2012
  138OSM    H5F15079   1.933   3.281   7.283 -1.1999  0.2920  0.0472
  138OSM    H5G15080   2.066   3.162   7.265 -0.8703 -1.3418 -1.1828
  138OSM    C6F15081   1.889   3.081   7.349  0.3219 -0.9937 -0.1655
  138OSM    H6F15082   1.932   2.980   7.336  0.0950 -1.3370  1.5100
  138OSM    H6G15083   1.783   3.074   7.318 -0.4564  0.6270  1.8932
  138OSM    C7F15084   1.900   3.131   7.494  0.8170 -0.5594  0.9827
  138OSM    H7F15085   1.879   3.239   7.507 -0.3956 -0.5262 -0.8509
  138OSM    H7G15086   2.009   3.120   7.509  0.9074 -3.4993 -1.0600
  138OSM    C8F15087   1.823   3.039   7.584 -0.2930  0.0050 -0.6049
  138OSM    H8F15088   1.859   3.065   7.686  1.7899  2.7446 -1.8984
  138OSM    H8G15089   1.854   2.935   7.560 -1.4597 -0.6693  0.6343
  138OSM    C9F15090   1.671   3.059   7.558 -0.3380 -0.0591  0.5353
  138OSM    H9F15091   1.636   3.022   7.461  2.0256  0.0182 -0.4071
  138OSM   C10F15092   1.589   3.129   7.640 -0.2134 -0.2291 -0.0076
  138OSM   H10F15093   1.487   3.137   7.598  1.5265  1.5122 -4.5787
  138OSM   C11F15094   1.630   3.190   7.768 -0.2442 -0.4081 -0.4692
  138OSM   H11F15095   1.578   3.286   7.787  1.6986  0.9237 -1.5134
  138OSM   H11G15096   1.740   3.204   7.766 -0.0097 -1.8484  0.4353
  138OSM   C12F15097   1.599   3.099   7.888  0.1599 -0.1454 -0.0022
  138OSM   H12F15098   1.647   3.000   7.878  0.5549 -0.1226  1.3709
  138OSM   H12G15099   1.490   3.082   7.889  0.2724 -1.3163 -2.3134
  138OSM   C13F15100   1.651   3.156   8.020 -0.3309 -0.6645  0.2483
  138OSM   H13F15101   1.609   3.258   8.033  0.1347 -0.8020  3.9607
  138OSM   H13G15102   1.760   3.172   8.006 -0.2881 -1.4244 -0.3514
  138OSM   C14F15103   1.620   3.052   8.127  0.9231  0.2284 -1.3149
  138OSM   H14F15104   1.633   2.949   8.087 -1.5055 -1.1285  1.0625
  138OSM   H14G15105   1.520   3.050   8.176  0.4978 -1.7826 -2.1658
  138OSM   C15F15106   1.722   3.043   8.244  0.7296 -1.0776 -0.3918
  138OSM   H15F15107   1.687   2.980   8.328 -1.2454 -0.8315 -0.9846
  138OSM   H15G15108   1.720   3.147   8.284  1.1356 -0.7625 -1.1652
  138OSM   C16F15109   1.860   2.995   8.200  0.2944 -0.6018  0.2498
  138OSM   H16F15110   1.887   3.031   8.098 -1.2710 -1.1776 -0.3957
  138OSM   H16G15111   1.845   2.886   8.185  1.6091 -0.6886 -0.5849
  138OSM   C17F15112   1.977   3.016   8.299  0.1784  0.2099  0.0609
  138OSM   H17F15113   2.058   2.942   8.277  0.3881  0.7837 -1.1665
  138OSM   H17G15114   1.943   2.983   8.400  2.1178 -2.5702 -0.0917
  138OSM   C18F15115   2.026   3.159   8.325  0.3413  0.5059  0.3454
  138OSM   H18F15116   1.943   3.232   8.339  2.2192  3.0888 -1.1559
  138OSM   H18G15117   2.088   3.191   8.239 -0.8029  3.6963  0.5835
  138OSM   H18H15118   2.089   3.164   8.416  0.0397 -1.0553  0.6631
  139OSM      N15119   1.403   4.631   6.492 -0.4351  0.4497 -0.3973
  139OSM    C1515120   1.405   4.747   6.592  0.4065 -0.1138  0.0610
  139OSM   H15A15121   1.458   4.726   6.683 -0.2567 -3.4294 -0.1992
  139OSM   H15B15122   1.306   4.766   6.631  1.7445 -0.3318  3.9853
  139OSM   H15C15123   1.443   4.833   6.539  0.3888 -0.2698 -0.2073
  139OSM    C1415124   1.322   4.676   6.372 -0.7574 -0.0272 -0.6579
  139OSM   H14A15125   1.229   4.707   6.417  0.0630 -1.8078  2.6016
  139OSM   H14B15126   1.299   4.589   6.313  2.0317 -2.9444  2.1747
  139OSM   H14C15127   1.371   4.749   6.309 -0.3383 -1.6859 -2.3512
  139OSM    C1315128   1.545   4.589   6.446  0.1250 -0.1175  0.4259
  139OSM   H13A15129   1.599   4.673   6.404 -2.2777  0.0691 -2.7631
  139OSM   H13B15130   1.540   4.503   6.381  2.0351 -0.9358  1.2893
  139OSM   H13C15131   1.591   4.545   6.532 -1.3722 -0.9296  0.8592
  139OSM    C1215132   1.350   4.508   6.560 -0.0596  0.0660 -0.3901
  139OSM   H12A15133   1.253   4.528   6.603 -1.0741 -1.4655 -1.8491
  139OSM   H12B15134   1.409   4.487   6.648  0.2942 -1.3280 -0.9279
  139OSM    C1115135   1.337   4.381   6.465  0.0167 -1.1795 -0.3496
  139OSM   H11A15136   1.302   4.295   6.526 -0.0339 -1.1860 -0.3882
  139OSM   H11B15137   1.440   4.346   6.442  1.0873  1.6796 -0.2153
  139OSM      P15138   1.104   4.391   6.360 -0.5130  0.1385 -0.3274
  139OSM    O1315139   1.045   4.472   6.252  0.0911 -0.3017 -0.0504
  139OSM    O1415140   1.067   4.247   6.363 -0.2868 -0.2898 -0.0734
  139OSM    O1115141   1.058   4.462   6.497 -0.1990 -0.2628  0.1002
  139OSM    O1215142   1.254   4.404   6.354  0.0474  0.4195 -0.2031
  139OSM    C1S15143   1.010   4.394   6.612  0.4380 -0.9516  0.5894
  139OSM    H1S15144   1.082   4.321   6.654  0.4595 -2.4860 -1.9402
  139OSM    H1T15145   0.909   4.353   6.588  0.2668 -0.4542  0.4521
  139OSM     NF15146   0.923   4.423   6.842  0.3408 -0.3056 -0.3744
  139OSM    HNF15147   0.826   4.434   6.861  0.5012 -0.4368  0.5501
  139OSM    C2S15148   0.982   4.498   6.725  0.5545 -0.0316  0.3723
  139OSM    H2S15149   1.076   4.546   6.760 -0.1762  0.1009  2.2317
  139OSM    C3S15150   0.898   4.613   6.669  0.2657  0.1242  0.3166
  139OSM    H3S15151   0.808   4.571   6.618  0.1672 -0.3289  0.8497
  139OSM     O315152   0.957   4.687   6.564  0.5540  0.5470  0.0234
  139OSM    HO315153   1.022   4.621   6.538 -0.2073  0.3996 -1.6306
  139OSM    C4S15154   0.845   4.715   6.767  0.0184 -0.5405 -0.0323
  139OSM    H4S15155   0.736   4.731   6.760  0.2382  0.2980 -2.7166
  139OSM    C5S15156   0.919   4.794   6.850 -0.2611  0.4737  0.0303
  139OSM    H5S15157   1.025   4.782   6.824 -0.0504 -1.5397  1.5401
  139OSM    C6S15158   0.861   4.895   6.936  0.0033  0.1376 -0.0060
  139OSM    H6S15159   0.792   4.969   6.891  0.2999 -0.5919 -1.7211
  139OSM    H6T15160   0.937   4.956   6.988 -1.6495  1.3991  1.0282
  139OSM    C7S15161   0.786   4.828   7.050  0.1453 -0.3630  0.5505
  139OSM    H7S15162   0.849   4.749   7.094  0.5566 -1.0689 -1.2530
  139OSM    H7T15163   0.689   4.778   7.030  0.0280  0.1979 -0.3440
  139OSM    C8S15164   0.758   4.936   7.161  0.0060 -0.0014 -0.5082
  139OSM    H8S15165   0.695   5.015   7.115 -0.9656 -1.6340 -2.1203
  139OSM    H8T15166   0.854   4.977   7.197 -0.9844  0.3424  1.9802
  139OSM    C9S15167   0.694   4.881   7.291 -0.3026 -0.1645  1.0896
  139OSM    H9S15168   0.758   4.806   7.342 -0.1333  0.8194  2.3798
  139OSM    H9T15169   0.599   4.829   7.266  1.2597 -1.8685 -1.7607
  139OSM   C10S15170   0.671   4.989   7.386 -0.1141  0.2305 -0.4252
  139OSM   H10S15171   0.594   5.067   7.363 -0.5521 -0.3342 -0.8905
  139OSM   H10T15172   0.765   5.047   7.398  0.4896 -0.4592 -1.6197
  139OSM   C11S15173   0.631   4.931   7.526 -0.1300  0.6060  0.2415
  139OSM   H11S15174   0.697   4.848   7.560 -0.5199 -0.5532 -1.6399
  139OSM   H11T15175   0.527   4.894   7.511  0.6437 -1.6691  0.0509
  139OSM   C12S15176   0.614   5.041   7.632 -0.0178 -0.4689 -0.3684
  139OSM   H12S15177   0.551   5.121   7.588  1.7894  0.5182 -1.2747
  139OSM   H12T15178   0.706   5.102   7.635  0.6267 -1.4562  0.7117
  139OSM   C13S15179   0.562   4.986   7.765 -0.8023 -0.3359  0.4401
  139OSM   H13S15180   0.618   4.895   7.793 -0.3686 -0.4566 -0.7387
  139OSM   H13T15181   0.460   4.944   7.747 -1.5726  1.2436  0.9500
  139OSM   C14S15182   0.562   5.090   7.875  0.0357 -0.7478  0.0785
  139OSM   H14S15183   0.489   5.172   7.855 -0.0332 -0.8271  0.0077
  139OSM   H14T15184   0.654   5.153   7.880  0.4257 -1.4068  1.6325
  139OSM   C15S15185   0.534   5.030   8.015 -0.1387  0.0916 -0.9909
  139OSM   H15S15186   0.609   4.956   8.049  0.1290  1.0982  0.7085
  139OSM   H15T15187   0.430   4.991   8.022  0.0333 -0.2688 -0.4025
  139OSM   C16S15188   0.529   5.138   8.125  0.9234 -0.7135  0.1032
  139OSM   H16S15189   0.460   5.221   8.099  0.8621 -0.3961  1.2168
  139OSM   H16T15190   0.631   5.178   8.143  0.7421  0.8383 -1.9261
  139OSM   C17S15191   0.465   5.080   8.250 -0.1120  0.6071 -0.3929
  139OSM   H17S15192   0.545   5.018   8.296 -1.3724 -2.2344 -1.7471
  139OSM   H17T15193   0.377   5.012   8.240 -0.8156  1.3202  0.6594
  139OSM   C18S15194   0.439   5.182   8.360 -0.7811  0.2937 -1.1941
  139OSM   H18S15195   0.366   5.264   8.336  0.3323  2.0060  0.9218
  139OSM   H18T15196   0.541   5.218   8.384 -0.5685 -0.1297 -1.4523
  139OSM   H18U15197   0.398   5.134   8.451 -1.2482  2.5622 -0.1212
  139OSM    C1F15198   0.997   4.342   6.916 -0.2305  0.0154 -0.2116
  139OSM     OF15199   1.115   4.324   6.892 -0.0693  0.7940  0.0107
  139OSM    C2F15200   0.924   4.269   7.023 -0.5659  0.4710 -0.5923
  139OSM    H2F15201   0.950   4.162   7.008 -2.3983  0.0945 -1.3556
  139OSM    H2G15202   0.814   4.283   7.019 -0.9037 -1.5042  0.4342
  139OSM    C3F15203   0.980   4.304   7.163  0.1207 -1.1283  0.6800
  139OSM    H3F15204   0.969   4.408   7.201 -0.4723 -1.4444  1.3997
  139OSM    H3G15205   1.090   4.285   7.159  0.2007 -0.5072 -0.4165
  139OSM    C4F15206   0.929   4.215   7.277  1.3198  0.6041 -0.3247
  139OSM    H4F15207   0.987   4.120   7.267  1.0853  0.3590  0.5758
  139OSM    H4G15208   0.819   4.201   7.265  1.2458  1.4070 -0.5919
  139OSM    C5F15209   0.956   4.280   7.413  0.3956  0.3883 -0.4075
  139OSM    H5F15210   0.890   4.369   7.418 -0.3779 -0.0809 -1.8047
  139OSM    H5G15211   1.062   4.304   7.433  0.9473 -0.1467 -2.4266
  139OSM    C6F15212   0.933   4.190   7.536  0.4013  0.7778 -0.3674
  139OSM    H6F15213   1.018   4.129   7.573 -1.3522 -1.2515  0.5524
  139OSM    H6G15214   0.853   4.114   7.521  1.0473 -0.4472  1.9506
  139OSM    C7F15215   0.889   4.262   7.660 -0.1576 -0.5872  0.5065
  139OSM    H7F15216   0.793   4.315   7.644 -1.1431 -2.3541  0.3665
  139OSM    H7G15217   0.974   4.315   7.708 -0.5800 -0.3636  1.0147
  139OSM    C8F15218   0.867   4.169   7.782  0.3334 -0.2405  0.2726
  139OSM    H8F15219   0.967   4.123   7.799 -1.0148 -3.0992  1.0616
  139OSM    H8G15220   0.805   4.083   7.750 -2.4902  1.6073  0.3841
  139OSM    C9F15221   0.808   4.235   7.910  0.3399 -0.6200 -0.3986
  139OSM    H9F15222   0.804   4.344   7.917  1.2264 -0.6816  1.4479
  139OSM   C10F15223   0.746   4.166   8.010 -0.3136 -0.4788 -0.2945
  139OSM   H10F15224   0.724   4.216   8.105  1.4743 -0.5622  0.1868
  139OSM   C11F15225   0.734   4.016   8.021  0.5074 -0.0288  0.1846
  139OSM   H11F15226   0.831   3.963   8.037  0.2209 -0.7166 -0.3070
  139OSM   H11G15227   0.709   3.981   7.919  2.1864 -0.0995 -0.2335
  139OSM   C12F15228   0.649   3.974   8.135  0.5702  0.6314  0.4168
  139OSM   H12F15229   0.645   3.863   8.127  0.0561  0.7751 -2.1026
  139OSM   H12G15230   0.544   4.005   8.120 -0.2424 -2.8474 -2.4198
  139OSM   C13F15231   0.721   3.995   8.270  1.3148 -0.0238 -0.4779
  139OSM   H13F15232   0.768   4.095   8.275  0.3603  0.4048  0.3190
  139OSM   H13G15233   0.811   3.936   8.297  1.4687  0.8816  1.0923
  139OSM   C14F15234   0.614   3.984   8.387  0.3343 -0.2656 -0.6505
  139OSM   H14F15235   0.571   3.882   8.401  1.2982 -0.4645  1.0710
  139OSM   H14G15236   0.528   4.047   8.357  0.2859 -0.2141 -0.4051
  139OSM   C15F15237   0.674   4.046   8.518 -0.9161 -0.3461  0.4269
  139OSM   H15F15238   0.725   4.143   8.504 -1.9963  0.1038 -0.5798
  139OSM   H15G15239   0.760   3.986   8.556 -0.4313  0.6083  0.8719
  139OSM   C16F15240   0.553   4.056   8.616 -0.3387 -0.7057  0.5180
  139OSM   H16F15241   0.522   3.955   8.649 -0.9226  0.0919  2.5348
  139OSM   H16G15242   0.469   4.099   8.558 -0.4328 -1.7377 -0.1420
  139OSM   C17F15243   0.580   4.134   8.744 -0.1370  0.5934 -0.3163
  139OSM   H17F15244   0.664   4.078   8.792 -0.5787  1.4825  1.5638
  139OSM   H17G15245   0.492   4.142   8.810 -1.7665  2.1918 -2.5610
  139OSM   C18F15246   0.647   4.275   8.717  0.8135  0.4029 -0.6322
  139OSM   H18F15247   0.609   4.312   8.619 -3.7048 -0.5359  0.5555
  139OSM   H18G15248   0.758   4.285   8.709  1.1941 -1.1434  1.8253
  139OSM   H18H15249   0.631   4.340   8.806 -2.7717 -0.3276 -0.5923
  140OSM      N15250   0.564   6.693   6.386 -0.0485 -0.4449  0.1344
  140OSM    C1515251   0.655   6.584   6.351  0.4429 -0.5668  0.4197
  140OSM   H15A15252   0.617   6.490   6.389  0.4954 -1.0892 -0.7751
  140OSM   H15B15253   0.749   6.593   6.403  1.5949 -0.2472 -1.5942
  140OSM   H15C15254   0.681   6.571   6.247 -1.7399  0.2203 -0.3048
  140OSM    C1415255   0.640   6.815   6.417  0.5956  0.5161 -0.6897
  140OSM   H14A15256   0.695   6.792   6.506  1.5328  1.4387 -1.0083
  140OSM   H14B15257   0.589   6.910   6.414  3.1560  1.9811 -0.6222
  140OSM   H14C15258   0.719   6.817   6.343  0.9476  0.5094 -0.3146
  140OSM    C1315259   0.490   6.721   6.252  0.3400 -0.2857 -0.0609
  140OSM   H13A15260   0.561   6.736   6.172 -0.4266 -1.6653 -1.0383
  140OSM   H13B15261   0.437   6.814   6.262  0.2121 -0.5639  2.4834
  140OSM   H13C15262   0.424   6.639   6.228  0.2268 -0.5895  1.1993
  140OSM    C1215263   0.467   6.661   6.490  0.3516  0.0059 -0.4805
  140OSM   H12A15264   0.425   6.563   6.476  0.6528  0.0175 -1.5056
  140OSM   H12B15265   0.382   6.727   6.488  0.1827 -0.2155 -0.5623
  140OSM    C1115266   0.523   6.664   6.635 -0.1184 -0.0313 -0.2657
  140OSM   H11A15267   0.446   6.624   6.704  0.3510  1.1777  0.9934
  140OSM   H11B15268   0.535   6.767   6.674 -0.9921  0.3281 -0.8957
  140OSM      P15269   0.784   6.584   6.707  0.0316  0.0998 -0.5554
  140OSM    O1315270   0.843   6.448   6.703  0.7732  0.4815 -0.7256
  140OSM    O1415271   0.852   6.693   6.633 -0.2159  0.1284 -0.4971
  140OSM    O1115272   0.738   6.627   6.858 -0.0957  0.0935 -0.5891
  140OSM    O1215273   0.641   6.578   6.652 -0.1798 -0.0360  0.5360
  140OSM    C1S15274   0.841   6.650   6.952  0.2235  0.2066 -0.6137
  140OSM    H1S15275   0.902   6.741   6.929  0.4087  0.0894 -0.5905
  140OSM    H1T15276   0.910   6.565   6.967  0.4818  0.5302  0.0884
  140OSM     NF15277   0.889   6.709   7.192 -0.4985 -0.0129  0.8013
  140OSM    HNF15278   0.914   6.639   7.259  2.1662  0.1060  0.0424
  140OSM    C2S15279   0.781   6.689   7.099  0.1611 -0.0599  0.1246
  140OSM    H2S15280   0.715   6.779   7.099  1.6809  1.1122  1.5984
  140OSM    C3S15281   0.681   6.581   7.146 -0.1828 -0.1367  0.8452
  140OSM    H3S15282   0.722   6.478   7.137  1.8381  0.6688  0.2528
  140OSM     O315283   0.561   6.564   7.068  0.3580 -1.1122  0.8802
  140OSM    HO315284   0.574   6.595   6.978  0.0837 -3.0322  0.1408
  140OSM    C4S15285   0.643   6.604   7.292  0.5234  0.3643 -0.2819
  140OSM    H4S15286   0.696   6.540   7.364  0.4496 -1.8078 -2.0250
  140OSM    C5S15287   0.564   6.694   7.334 -0.2664 -0.0623  0.7991
  140OSM    H5S15288   0.512   6.752   7.256 -2.8136 -3.0890  0.0338
  140OSM    C6S15289   0.518   6.716   7.479 -0.0770  0.2879  0.5282
  140OSM    H6S15290   0.414   6.680   7.493 -0.2360  0.0344 -1.0900
  140OSM    H6T15291   0.513   6.824   7.504 -1.7010  0.1204  1.0377
  140OSM    C7S15292   0.610   6.644   7.587  0.3052 -0.3230 -0.0568
  140OSM    H7S15293   0.717   6.675   7.580 -0.1116  2.0166  2.3062
  140OSM    H7T15294   0.603   6.535   7.566  0.8608 -0.1424 -1.2969
  140OSM    C8S15295   0.562   6.673   7.723  0.0170  0.5364  0.0242
  140OSM    H8S15296   0.459   6.631   7.724  0.0710  0.3598 -1.2049
  140OSM    H8T15297   0.546   6.782   7.738 -0.9435  0.6421 -1.5489
  140OSM    C9S15298   0.647   6.610   7.844 -0.2713 -0.2070  0.2367
  140OSM    H9S15299   0.724   6.680   7.882 -0.7786 -0.1605  1.2056
  140OSM    H9T15300   0.699   6.528   7.789 -2.5155 -2.6568  1.5187
  140OSM   C10S15301   0.570   6.558   7.967  0.3117 -0.1339  0.0522
  140OSM   H10S15302   0.640   6.503   8.033 -0.8669  0.3682  1.7638
  140OSM   H10T15303   0.492   6.487   7.932  1.2810 -0.4565 -1.5890
  140OSM   C11S15304   0.507   6.667   8.046  0.5152 -1.3415 -0.1788
  140OSM   H11S15305   0.424   6.713   7.988  2.3517  1.8130 -0.5448
  140OSM   H11T15306   0.587   6.745   8.050 -0.6933 -0.0966  0.5795
  140OSM   C12S15307   0.469   6.608   8.188 -0.3810  0.2025 -0.3655
  140OSM   H12S15308   0.443   6.691   8.257 -0.8683  0.5266 -0.9342
  140OSM   H12T15309   0.554   6.549   8.230 -1.6117 -0.7516  0.8787
  140OSM   C13S15310   0.349   6.509   8.180  0.0722 -0.4886  0.0664
  140OSM   H13S15311   0.387   6.429   8.114  1.4208 -0.2931  0.5704
  140OSM   H13T15312   0.261   6.569   8.149  1.0221  0.7500 -0.3056
  140OSM   C14S15313   0.305   6.449   8.313  0.3846 -0.3187 -0.3288
  140OSM   H14S15314   0.391   6.400   8.364 -1.2996 -0.3304  2.6907
  140OSM   H14T15315   0.229   6.373   8.285  1.6507 -0.2183 -4.7995
  140OSM   C15S15316   0.237   6.547   8.410  0.2256  0.0197 -0.5861
  140OSM   H15S15317   0.156   6.603   8.358  1.0941  1.3930 -0.4980
  140OSM   H15T15318   0.311   6.625   8.436 -0.8169  0.4236  1.3892
  140OSM   C16S15319   0.167   6.490   8.539  0.2116 -0.9645  0.7401
  140OSM   H16S15320   0.152   6.570   8.615  0.0412  1.5952 -1.7976
  140OSM   H16T15321   0.229   6.406   8.577  0.2805 -1.4895 -0.5051
  140OSM   C17S15322   0.025   6.433   8.516 -0.7806  0.4812  0.1510
  140OSM   H17S15323   0.036   6.348   8.445 -0.3672 -0.3143  1.1456
  140OSM   H17T15324  -0.029   6.516   8.466  2.8097  2.5812 -0.5833
  140OSM   C18S15325  -0.039   6.386   8.648 -0.0800  0.1941  0.4554
  140OSM   H18S15326   0.016   6.294   8.674  3.2764  2.0099  0.3163
  140OSM   H18T15327  -0.148   6.370   8.630 -0.1525  1.3942 -0.3135
  140OSM   H18U15328  -0.026   6.454   8.735 -0.5339  1.8855 -0.7339
  140OSM    C1F15329   0.969   6.817   7.183 -0.2683  0.2137  0.1945
  140OSM     OF15330   0.923   6.908   7.121 -0.1225 -0.8441  0.2591
  140OSM    C2F15331   1.094   6.818   7.269  0.3633 -0.1530 -1.0391
  140OSM    H2F15332   1.173   6.758   7.219  0.3903 -1.8445  0.9067
  140OSM    H2G15333   1.068   6.771   7.367  0.0912  1.6621 -0.1979
  140OSM    C3F15334   1.129   6.964   7.302 -0.2919 -0.4799 -0.1275
  140OSM    H3F15335   1.144   7.028   7.213  0.8930  0.1331  0.4807
  140OSM    H3G15336   1.223   6.967   7.361 -0.8450  0.3010  0.7400
  140OSM    C4F15337   1.024   7.028   7.401  0.6726  0.5353 -0.9781
  140OSM    H4F15338   0.930   7.036   7.342 -0.1080 -0.0257  0.1601
  140OSM    H4G15339   1.047   7.130   7.439 -0.0754  0.4518 -0.2770
  140OSM    C5F15340   1.000   6.937   7.532 -0.2181 -1.3735 -0.2606
  140OSM    H5F15341   1.100   6.902   7.567  0.7363  0.1462 -1.3360
  140OSM    H5G15342   0.949   6.843   7.501 -0.7942 -0.7503 -1.2329
  140OSM    C6F15343   0.945   7.017   7.647  0.0721 -0.5964 -0.5187
  140OSM    H6F15344   0.845   7.065   7.634  0.6051  0.0828 -2.3980
  140OSM    H6G15345   1.016   7.100   7.664 -0.4589  0.3940 -2.7134
  140OSM    C7F15346   0.929   6.925   7.768  0.2669 -0.6810 -0.2266
  140OSM    H7F15347   1.033   6.905   7.802 -0.1645 -0.3841  1.3614
  140OSM    H7G15348   0.889   6.831   7.725  0.2601 -1.0536  0.5708
  140OSM    C8F15349   0.845   6.993   7.875  0.3012  0.6887 -0.2666
  140OSM    H8F15350   0.800   6.913   7.938  1.4474  0.3708  0.1685
  140OSM    H8G15351   0.755   7.040   7.829  1.7066  3.3302 -0.5234
  140OSM    C9F15352   0.918   7.089   7.967 -0.2610 -0.0232  0.2746
  140OSM    H9F15353   0.927   7.191   7.928 -0.4210 -0.4473 -0.9146
  140OSM   C10F15354   0.974   7.070   8.088  0.3345 -0.1453 -0.3806
  140OSM   H10F15355   1.020   7.149   8.149  3.8198 -2.5597  0.4670
  140OSM   C11F15356   0.969   6.937   8.157 -0.1615 -0.0715  0.4491
  140OSM   H11F15357   1.068   6.904   8.195 -0.0295  2.1154  2.2581
  140OSM   H11G15358   0.945   6.855   8.086  0.7385 -1.1268  1.3201
  140OSM   C12F15359   0.856   6.933   8.255 -0.1286  0.3570  0.6405
  140OSM   H12F15360   0.771   6.966   8.193  1.4671  1.0675 -1.2843
  140OSM   H12G15361   0.870   7.004   8.339  0.2049  1.2945 -0.1884
  140OSM   C13F15362   0.821   6.783   8.294 -0.0403 -0.0110  0.0389
  140OSM   H13F15363   0.807   6.717   8.206  3.3167 -0.2647 -0.4235
  140OSM   H13G15364   0.725   6.784   8.351  0.9263 -1.6810  1.8130
  140OSM   C14F15365   0.925   6.722   8.388 -0.0425 -0.4194 -0.4303
  140OSM   H14F15366   0.930   6.782   8.482  0.6908 -1.6829  0.3706
  140OSM   H14G15367   1.021   6.735   8.333  0.0258  1.8967  0.1121
  140OSM   C15F15368   0.904   6.583   8.430  0.1458 -0.5135  0.2566
  140OSM   H15F15369   0.994   6.545   8.483  0.1593 -0.7113  0.0924
  140OSM   H15G15370   0.906   6.519   8.339  0.3500  0.2479 -0.2868
  140OSM   C16F15371   0.777   6.547   8.505 -0.4735 -0.3459 -1.4105
  140OSM   H16F15372   0.687   6.556   8.441 -1.2657  0.9972 -0.1663
  140OSM   H16G15373   0.757   6.613   8.592  0.4143 -4.2837  2.1462
  140OSM   C17F15374   0.771   6.411   8.581  0.4338  0.1909  0.0105
  140OSM   H17F15375   0.841   6.413   8.667  1.2222  1.1937 -0.6276
  140OSM   H17G15376   0.801   6.325   8.516 -0.6943  0.2843 -0.6711
  140OSM   C18F15377   0.630   6.378   8.629  0.1253  0.3900 -0.2251
  140OSM   H18F15378   0.561   6.372   8.542 -0.3475 -1.1547  0.2287
  140OSM   H18G15379   0.594   6.456   8.700 -0.3819  0.2839 -0.3650
  140OSM   H18H15380   0.637   6.280   8.681 -0.0908 -0.3624 -1.5638
  141OSM      N15381   1.161   2.136   6.645  0.4465  0.0029  0.4430
  141OSM    C1515382   1.155   2.254   6.550 -0.1248  0.3357 -0.1998
  141OSM   H15A15383   1.057   2.294   6.530  0.5684  0.7768 -3.1270
  141OSM   H15B15384   1.191   2.215   6.456  0.8184  1.8360 -0.4871
  141OSM   H15C15385   1.227   2.330   6.579 -1.1409  0.5106  2.0821
  141OSM    C1415386   1.262   2.033   6.609 -0.1563  0.5331  0.5016
  141OSM   H14A15387   1.248   2.001   6.507 -0.6177 -1.7627  1.2372
  141OSM   H14B15388   1.252   1.944   6.669 -1.2804  0.1330 -0.2585
  141OSM   H14C15389   1.364   2.069   6.611 -0.3664  1.1428  0.4798
  141OSM    C1315390   1.187   2.201   6.779 -0.2343  0.2512 -0.3375
  141OSM   H13A15391   1.181   2.126   6.856 -0.2515  0.9116  0.3171
  141OSM   H13B15392   1.126   2.289   6.796  1.8414  1.9684 -1.2076
  141OSM   H13C15393   1.290   2.232   6.792  0.1724 -1.3197  0.4615
  141OSM    C1215394   1.022   2.077   6.650  0.2783 -0.6076 -0.0538
  141OSM   H12A15395   0.947   2.152   6.671  1.7800  1.4214 -1.4818
  141OSM   H12B15396   1.027   2.003   6.728  1.8359 -0.5105 -0.0242
  141OSM    C1115397   0.973   2.007   6.515 -0.4089 -0.4347 -0.8599
  141OSM   H11A15398   0.963   2.093   6.445 -1.6762  1.5975  1.6806
  141OSM   H11B15399   0.871   1.970   6.537 -0.2158 -0.2090  0.4478
  141OSM      P15400   1.033   1.755   6.516 -0.2233  0.2506 -0.3778
  141OSM    O1315401   0.913   1.710   6.450 -0.3985 -0.7258  0.8155
  141OSM    O1415402   1.158   1.680   6.502 -0.1566 -0.3115  0.1241
  141OSM    O1115403   1.000   1.777   6.670 -0.2917 -0.0285  0.2583
  141OSM    O1215404   1.057   1.902   6.463  0.0060 -0.1624 -0.4945
  141OSM    C1S15405   0.905   1.701   6.735  0.4449  0.3059 -0.6408
  141OSM    H1S15406   0.884   1.602   6.689  1.9415  0.3434 -1.4821
  141OSM    H1T15407   0.809   1.757   6.736  0.4778  0.4527 -2.5281
  141OSM     NF15408   0.860   1.584   6.944 -0.1450 -0.5285  0.5174
  141OSM    HNF15409   0.785   1.633   6.990 -0.6084 -0.3916 -0.3683
  141OSM    C2S15410   0.961   1.667   6.878 -0.3619 -0.1660  0.0141
  141OSM    H2S15411   1.054   1.608   6.861  0.6711  1.4804 -0.2769
  141OSM    C3S15412   1.008   1.797   6.953  0.3784 -0.6106 -0.3393
  141OSM    H3S15413   0.928   1.874   6.957  1.6816  0.8369 -1.2871
  141OSM     O315414   1.110   1.869   6.887  0.5072 -0.3059  0.0316
  141OSM    HO315415   1.117   1.826   6.802  0.6755 -1.5507  0.6456
  141OSM    C4S15416   1.045   1.775   7.096  0.1502  0.2022  0.1511
  141OSM    H4S15417   1.144   1.728   7.105  1.4189  2.3953 -1.5970
  141OSM    C5S15418   0.991   1.831   7.206 -0.9412 -0.0577  0.7181
  141OSM    H5S15419   0.908   1.903   7.193 -0.8885 -0.1114  0.0758
  141OSM    C6S15420   1.047   1.806   7.343  0.3543  0.0647  0.6354
  141OSM    H6S15421   1.079   1.905   7.383 -1.5666  0.2173  1.9255
  141OSM    H6T15422   1.132   1.734   7.338  1.1511  1.0282 -0.1644
  141OSM    C7S15423   0.944   1.743   7.443  0.6545  0.3235 -0.5934
  141OSM    H7S15424   0.925   1.639   7.408  0.8120  0.6483 -1.6730
  141OSM    H7T15425   0.845   1.788   7.464  0.9344  0.1073  1.3393
  141OSM    C8S15426   1.013   1.730   7.580 -0.2095 -0.6878  0.4006
  141OSM    H8S15427   1.042   1.834   7.606  1.9588 -0.3724 -2.7356
  141OSM    H8T15428   1.103   1.665   7.575 -1.4734 -2.4436 -2.9131
  141OSM    C9S15429   0.914   1.680   7.689 -0.2824 -0.2789 -0.1708
  141OSM    H9S15430   0.910   1.571   7.667  2.0521 -0.2085 -1.1645
  141OSM    H9T15431   0.809   1.712   7.670 -0.4266  0.4374  1.6545
  141OSM   C10S15432   0.969   1.698   7.828  0.8644 -0.1583  0.9322
  141OSM   H10S15433   0.984   1.807   7.849  2.7203 -0.7152  2.8326
  141OSM   H10T15434   1.065   1.643   7.831  0.8958 -0.2377 -0.7031
  141OSM   C11S15435   0.868   1.646   7.928  0.1370 -0.0809  0.6235
  141OSM   H11S15436   0.839   1.539   7.916  3.3045 -0.8835 -0.8658
  141OSM   H11T15437   0.775   1.704   7.909 -1.4159 -2.0224  1.8518
  141OSM   C12S15438   0.915   1.657   8.076 -0.1055 -0.2242 -0.4941
  141OSM   H12S15439   0.938   1.764   8.096  1.0458 -0.6708  0.7053
  141OSM   H12T15440   1.014   1.608   8.087  0.2995  0.6278 -0.2678
  141OSM   C13S15441   0.819   1.598   8.183  0.2669 -0.1975  0.3700
  141OSM   H13S15442   0.783   1.494   8.167 -3.2451  0.8558  0.6831
  141OSM   H13T15443   0.730   1.664   8.180  1.0357  0.8647  0.1574
  141OSM   C14S15444   0.889   1.597   8.319 -1.0320 -0.2924 -0.6876
  141OSM   H14S15445   0.925   1.702   8.321  2.6293 -1.3740 -1.1030
  141OSM   H14T15446   0.974   1.525   8.326 -1.3451 -0.5805  0.5570
  141OSM   C15S15447   0.794   1.566   8.436  0.7290 -1.0021 -0.4833
  141OSM   H15S15448   0.773   1.457   8.428 -4.3556 -0.3666  0.7558
  141OSM   H15T15449   0.700   1.620   8.409 -0.2657 -1.4546  1.8610
  141OSM   C16S15450   0.851   1.602   8.575  0.7670 -0.9763  0.0295
  141OSM   H16S15451   0.959   1.577   8.576  0.4096 -2.6903  0.1669
  141OSM   H16T15452   0.797   1.544   8.653 -1.8507  0.7575 -0.3602
  141OSM   C17S15453   0.840   1.749   8.609  0.1481  0.3080  0.4103
  141OSM   H17S15454   0.731   1.770   8.607 -0.6728 -3.2890  0.0904
  141OSM   H17T15455   0.897   1.809   8.534 -1.6486 -0.7844 -1.9547
  141OSM   C18S15456   0.867   1.782   8.750  0.3459  0.2526 -0.3281
  141OSM   H18S15457   0.973   1.757   8.769  0.8049 -0.7483 -3.6058
  141OSM   H18T15458   0.812   1.735   8.835  0.7217  0.2890 -0.0612
  141OSM   H18U15459   0.851   1.891   8.757  2.1302  0.5300 -0.2032
  141OSM    C1F15460   0.832   1.460   6.916 -0.8382 -0.3924  0.5183
  141OSM     OF15461   0.919   1.386   6.876  0.1798  0.0854 -0.0985
  141OSM    C2F15462   0.690   1.430   6.920 -0.2066 -0.1105  0.4140
  141OSM    H2F15463   0.644   1.436   6.819 -0.5708 -0.9787  0.5216
  141OSM    H2G15464   0.635   1.509   6.975 -0.5611 -0.0719  0.0080
  141OSM    C3F15465   0.665   1.282   6.977 -0.1603  0.3000  0.0786
  141OSM    H3F15466   0.749   1.213   6.952  0.1664  0.8116 -0.2708
  141OSM    H3G15467   0.574   1.241   6.929 -0.8112  2.6275 -0.8567
  141OSM    C4F15468   0.627   1.280   7.128  0.1317 -0.0581 -0.0194
  141OSM    H4F15469   0.536   1.344   7.134  0.6162  0.6462 -0.0420
  141OSM    H4G15470   0.709   1.326   7.186  0.2985  0.2810 -0.5121
  141OSM    C5F15471   0.614   1.134   7.167  0.0191  0.5388  0.3554
  141OSM    H5F15472   0.710   1.086   7.140 -0.2647  0.2715 -0.1969
  141OSM    H5G15473   0.531   1.080   7.116  0.1350  0.3266  0.3881
  141OSM    C6F15474   0.581   1.119   7.318 -0.4452  0.6669  0.7533
  141OSM    H6F15475   0.525   1.025   7.335  1.3662 -0.4425  0.8240
  141OSM    H6G15476   0.508   1.201   7.337  0.6846  1.8841  0.0318
  141OSM    C7F15477   0.703   1.126   7.411  0.1321  0.6488  0.0781
  141OSM    H7F15478   0.758   1.219   7.386  1.1708 -0.5383 -2.4059
  141OSM    H7G15479   0.774   1.049   7.373  2.0749  0.6721  3.2975
  141OSM    C8F15480   0.686   1.094   7.561 -0.8989  0.1268 -0.5442
  141OSM    H8F15481   0.776   1.132   7.613 -0.9877  0.1148 -0.3820
  141OSM    H8G15482   0.673   0.985   7.576 -3.0336  0.4031 -0.0104
  141OSM    C9F15483   0.574   1.165   7.633  0.5266 -0.2703  0.0940
  141OSM    H9F15484   0.492   1.199   7.569  0.5158 -1.5412 -0.5984
  141OSM   C10F15485   0.559   1.196   7.759  0.0094  0.3892 -0.3469
  141OSM   H10F15486   0.471   1.262   7.767  0.2028  0.7049 -0.7859
  141OSM   C11F15487   0.646   1.160   7.886 -0.2214  0.0081  0.1536
  141OSM   H11F15488   0.650   1.255   7.945 -0.7841 -0.6922  1.3698
  141OSM   H11G15489   0.748   1.143   7.847 -0.6178 -2.5299  0.0914
  141OSM   C12F15490   0.605   1.046   7.979 -0.0391  0.1421 -0.9002
  141OSM   H12F15491   0.685   1.046   8.056 -0.3753  1.2589 -0.5359
  141OSM   H12G15492   0.623   0.958   7.913 -0.4582 -0.1465 -0.6366
  141OSM   C13F15493   0.457   1.056   8.037 -0.1826  0.2804 -0.1970
  141OSM   H13F15494   0.437   0.977   8.112 -2.2633  0.2640 -0.7043
  141OSM   H13G15495   0.383   1.034   7.957  2.3938 -2.6823 -2.0309
  141OSM   C14F15496   0.419   1.178   8.113 -0.5819  0.2853 -0.2918
  141OSM   H14F15497   0.405   1.265   8.045 -0.4002  1.1271  0.7161
  141OSM   H14G15498   0.506   1.219   8.169 -0.7675  0.8126 -0.3821
  141OSM   C15F15499   0.288   1.162   8.195  0.2753  0.4212  0.2216
  141OSM   H15F15500   0.218   1.108   8.128 -1.2917 -2.1715  3.6281
  141OSM   H15G15501   0.251   1.265   8.210 -0.3309  0.2885 -0.3247
  141OSM   C16F15502   0.305   1.097   8.332  0.0144  0.1520 -0.8370
  141OSM   H16F15503   0.387   1.137   8.395 -0.5650 -1.6397  1.1647
  141OSM   H16G15504   0.342   0.996   8.305  0.8682  0.1481  0.2735
  141OSM   C17F15505   0.175   1.075   8.403 -0.8100  0.3765  0.4076
  141OSM   H17F15506   0.098   1.031   8.336  0.9839 -1.4025 -0.5801
  141OSM   H17G15507   0.140   1.175   8.437 -1.7697  0.4395 -0.6871
  141OSM   C18F15508   0.187   1.000   8.531  0.4111  0.0980  0.0806
  141OSM   H18F15509   0.151   0.896   8.512 -0.6953 -0.0155  2.5039
  141OSM   H18G15510   0.109   1.030   8.604 -0.8246 -0.3774 -0.9987
  141OSM   H18H15511   0.288   0.993   8.577  0.0887  0.2785  0.8245
  142OSM      N15512   1.270   2.761   6.384 -0.2678  0.5535 -0.2301
  142OSM    C1515513   1.141   2.821   6.326 -0.7187 -0.4278  0.5041
  142OSM   H15A15514   1.058   2.752   6.331 -2.0090  0.9611 -0.6216
  142OSM   H15B15515   1.153   2.843   6.221  1.3598  1.9681  1.1591
  142OSM   H15C15516   1.105   2.908   6.378  1.0320  0.4407  0.3189
  142OSM    C1415517   1.288   2.624   6.331  0.5207 -0.3891 -0.1564
  142OSM   H14A15518   1.388   2.590   6.355  0.2958 -0.4391  0.7592
  142OSM   H14B15519   1.284   2.632   6.224  1.3183 -0.1199 -0.1740
  142OSM   H14C15520   1.210   2.556   6.364  1.5834 -1.4239  0.3411
  142OSM    C1315521   1.386   2.844   6.333  0.2975  0.3481  0.4046
  142OSM   H13A15522   1.474   2.801   6.378  0.4877  0.8313  0.5044
  142OSM   H13B15523   1.385   2.944   6.374  0.8900  0.3119  0.5088
  142OSM   H13C15524   1.384   2.849   6.225  1.6875  0.8704  0.3820
  142OSM    C1215525   1.269   2.767   6.539  0.0843 -0.7627  0.1384
  142OSM   H12A15526   1.358   2.713   6.564 -0.0470 -1.1663 -0.2538
  142OSM   H12B15527   1.187   2.706   6.575  0.4642  0.2026  2.9314
  142OSM    C1115528   1.260   2.904   6.611 -0.1939 -0.1314  0.5794
  142OSM   H11A15529   1.347   2.972   6.594  0.2515 -0.9049 -0.3162
  142OSM   H11B15530   1.259   2.885   6.720  0.0783 -0.2776  0.5567
  142OSM      P15531   0.993   2.929   6.616 -0.5415 -0.0084  0.2676
  142OSM    O1315532   0.898   3.013   6.542  0.3272  0.3525  0.1560
  142OSM    O1415533   0.983   2.786   6.598  0.0836  0.0674  0.4665
  142OSM    O1115534   0.983   2.953   6.766  0.3767  0.1255 -0.1320
  142OSM    O1215535   1.143   2.980   6.576  0.1149  0.2678  0.5945
  142OSM    C1S15536   1.020   3.073   6.835  0.3529  0.1545 -0.7211
  142OSM    H1S15537   0.974   3.160   6.784  1.4245  0.9743 -0.3059
  142OSM    H1T15538   1.128   3.097   6.830 -0.2508  3.2919 -0.6632
  142OSM     NF15539   1.044   3.192   7.048 -0.5305  0.6251  0.5395
  142OSM    HNF15540   1.134   3.187   7.091  0.1094  1.6528 -0.6426
  142OSM    C2S15541   0.997   3.064   6.987  0.4535  0.2220 -0.0560
  142OSM    H2S15542   0.888   3.048   6.999  0.0884  1.0037 -1.9065
  142OSM    C3S15543   1.066   2.940   7.049 -0.2650 -0.2312 -0.7263
  142OSM    H3S15544   1.174   2.941   7.021 -0.8032  0.9779 -2.9166
  142OSM     O315545   1.016   2.820   7.000  0.8445  0.4298 -0.0681
  142OSM    HO315546   0.983   2.849   6.915  0.7589  0.8121  0.0912
  142OSM    C4S15547   1.049   2.932   7.201  0.0337  0.0483  0.1278
  142OSM    H4S15548   0.963   2.870   7.230 -0.4197 -0.0277 -1.2938
  142OSM    C5S15549   1.133   2.968   7.300 -0.2166  0.1333  0.4398
  142OSM    H5S15550   1.225   3.022   7.273  0.0753 -0.5142  0.1259
  142OSM    C6S15551   1.097   2.953   7.447 -0.6821 -0.2637  0.3325
  142OSM    H6S15552   1.024   2.871   7.466  0.1829 -1.1025  0.0982
  142OSM    H6T15553   1.036   3.043   7.470 -0.3222  0.2647 -0.7028
  142OSM    C7S15554   1.230   2.941   7.534  0.0884  0.2609 -0.3413
  142OSM    H7S15555   1.307   3.016   7.507  1.8303 -0.1188  3.0322
  142OSM    H7T15556   1.279   2.841   7.528 -2.9584 -1.3851 -0.0943
  142OSM    C8S15557   1.201   2.969   7.684  0.0379  0.5209 -0.2666
  142OSM    H8S15558   1.129   3.052   7.697 -0.0403  0.2385  1.3201
  142OSM    H8T15559   1.294   3.010   7.729 -1.5796  2.1846  1.7515
  142OSM    C9S15560   1.171   2.845   7.768 -0.1279 -0.3250 -0.6641
  142OSM    H9S15561   1.248   2.767   7.746 -1.0876 -2.0617  1.6783
  142OSM    H9T15562   1.075   2.794   7.745 -0.8591  0.9080 -0.4377
  142OSM   C10S15563   1.174   2.867   7.916 -0.2019 -0.2822  1.0922
  142OSM   H10S15564   1.080   2.914   7.953 -0.9387  1.0042 -2.1154
  142OSM   H10T15565   1.258   2.936   7.939  1.5891 -2.8674  2.9355
  142OSM   C11S15566   1.207   2.733   7.993 -0.6163 -0.1632  0.0852
  142OSM   H11S15567   1.307   2.695   7.963  0.9967  1.3552  3.0724
  142OSM   H11T15568   1.135   2.651   7.973 -0.0353 -1.1221  1.6849
  142OSM   C12S15569   1.226   2.758   8.142  0.2043 -0.2797 -0.1183
  142OSM   H12S15570   1.295   2.840   8.170 -0.0794 -0.7369  2.0329
  142OSM   H12T15571   1.256   2.665   8.195  1.1901 -0.1412 -0.4249
  142OSM   C13S15572   1.092   2.801   8.204 -0.0993 -0.1461  0.3131
  142OSM   H13S15573   1.005   2.738   8.176 -0.5942  1.3070 -1.6712
  142OSM   H13T15574   1.072   2.898   8.153  1.1844  0.2998  0.6185
  142OSM   C14S15575   1.102   2.813   8.358 -0.0026  0.1591  0.0027
  142OSM   H14S15576   1.035   2.896   8.390  0.9945  1.6316 -1.5163
  142OSM   H14T15577   1.211   2.835   8.370  0.4066 -0.7153 -1.8358
  142OSM   C15S15578   1.071   2.675   8.420  0.3126 -0.2083  0.4982
  142OSM   H15S15579   1.118   2.598   8.355  1.6046 -0.5227  1.7515
  142OSM   H15T15580   0.961   2.662   8.423  0.3432 -0.3135  1.6585
  142OSM   C16S15581   1.107   2.657   8.570  0.2416  0.4687 -0.0184
  142OSM   H16S15582   1.038   2.692   8.650  1.7028 -0.0408  1.5139
  142OSM   H16T15583   1.204   2.709   8.583  2.2827 -1.7424 -4.3919
  142OSM   C17S15584   1.137   2.512   8.595 -0.4134  0.6316 -0.3994
  142OSM   H17S15585   1.200   2.508   8.687 -0.6770  0.6553 -0.2140
  142OSM   H17T15586   1.211   2.473   8.522  2.0327  1.4366  1.4912
  142OSM   C18S15587   1.022   2.413   8.603 -0.5148  0.4297 -0.1864
  142OSM   H18S15588   0.955   2.411   8.514  1.3166  2.5872 -1.7352
  142OSM   H18T15589   0.956   2.436   8.690 -0.4158  1.0463 -0.2672
  142OSM   H18U15590   1.059   2.310   8.621  0.8237  0.9188 -0.0648
  142OSM    C1F15591   0.984   3.308   7.030 -0.2615 -0.0322 -0.3306
  142OSM     OF15592   0.884   3.322   6.961  0.1078 -0.0397 -0.2177
  142OSM    C2F15593   1.039   3.426   7.099  0.0506  0.2033  0.0078
  142OSM    H2F15594   1.145   3.429   7.067  0.9102 -1.4329  2.4568
  142OSM    H2G15595   1.040   3.400   7.207 -0.5702 -0.3291 -0.1101
  142OSM    C3F15596   0.963   3.561   7.074  0.2108 -0.2559  0.0921
  142OSM    H3F15597   0.861   3.561   7.118  0.3244 -0.7472  0.3599
  142OSM    H3G15598   0.945   3.572   6.965  0.5661  2.3895  0.2365
  142OSM    C4F15599   1.040   3.689   7.115 -0.4573  0.1168 -0.1152
  142OSM    H4F15600   0.992   3.779   7.072 -0.5098 -0.2262 -0.7962
  142OSM    H4G15601   1.142   3.682   7.073 -0.7815 -2.7580 -0.6505
  142OSM    C5F15602   1.041   3.706   7.271  0.2584  0.0332  1.0638
  142OSM    H5F15603   1.126   3.770   7.302 -0.2359  2.1068 -1.5404
  142OSM    H5G15604   1.042   3.605   7.317  0.3023  0.0541  1.1092
  142OSM    C6F15605   0.911   3.772   7.323 -0.2844  0.6121  0.3622
  142OSM    H6F15606   0.828   3.700   7.314 -0.2941  0.8031 -1.6108
  142OSM    H6G15607   0.891   3.860   7.257  0.3930 -0.1270 -0.8625
  142OSM    C7F15608   0.927   3.819   7.464 -0.0602 -0.2645  0.0242
  142OSM    H7F15609   0.841   3.888   7.476 -0.2265 -0.2295 -1.2932
  142OSM    H7G15610   1.019   3.881   7.461  0.7753 -1.4986 -0.6147
  142OSM    C8F15611   0.954   3.715   7.570 -0.1725 -0.0102 -0.2803
  142OSM    H8F15612   0.984   3.766   7.664 -1.0978 -0.4495  0.2602
  142OSM    H8G15613   1.041   3.657   7.533  1.0318 -1.0877  3.7108
  142OSM    C9F15614   0.832   3.628   7.591 -0.7204  0.2735  0.5266
  142OSM    H9F15615   0.803   3.567   7.505  0.6041  0.0486  0.2261
  142OSM   C10F15616   0.772   3.594   7.704 -0.4096 -0.6519 -0.0639
  142OSM   H10F15617   0.682   3.531   7.698  0.1101 -1.5035  0.8744
  142OSM   C11F15618   0.803   3.647   7.843 -0.0060  0.4509  0.0882
  142OSM   H11F15619   0.741   3.737   7.859 -2.4039 -1.3883  2.0801
  142OSM   H11G15620   0.908   3.675   7.861  0.0830 -0.1903  0.6080
  142OSM   C12F15621   0.770   3.550   7.960 -0.1520  0.4916 -0.8720
  142OSM   H12F15622   0.819   3.454   7.932  1.6932  1.3649 -0.8401
  142OSM   H12G15623   0.661   3.534   7.972 -0.3291  0.6522 -2.1515
  142OSM   C13F15624   0.827   3.601   8.092  0.1380  0.4365 -1.3176
  142OSM   H13F15625   0.811   3.708   8.115  1.3639 -0.0306  2.3722
  142OSM   H13G15626   0.938   3.600   8.103 -0.0842 -0.6196  2.0257
  142OSM   C14F15627   0.754   3.526   8.211 -0.4544  0.5574 -0.9813
  142OSM   H14F15628   0.736   3.425   8.168  0.9803  0.5890 -1.7050
  142OSM   H14G15629   0.654   3.570   8.229 -0.4628 -0.0389  0.5651
  142OSM   C15F15630   0.852   3.519   8.330  0.1411 -0.2119  0.2721
  142OSM   H15F15631   0.942   3.459   8.304 -0.1065 -1.1946  1.5251
  142OSM   H15G15632   0.797   3.464   8.409  0.7952 -0.2627  0.7033
  142OSM   C16F15633   0.888   3.659   8.388 -0.3058  0.2240 -0.5268
  142OSM   H16F15634   0.803   3.726   8.415  0.0179  0.3173  0.3100
  142OSM   H16G15635   0.958   3.709   8.318  1.2155  0.4655  1.0836
  142OSM   C17F15636   0.959   3.642   8.519  0.7320  0.1057 -0.2520
  142OSM   H17F15637   1.044   3.571   8.507 -0.0615 -1.2114  1.5654
  142OSM   H17G15638   0.898   3.595   8.598 -1.2782 -0.9229 -2.2993
  142OSM   C18F15639   1.003   3.783   8.573 -0.8867 -0.6498  0.1587
  142OSM   H18F15640   1.073   3.827   8.499 -0.3525  0.0969  1.0836
  142OSM   H18G15641   1.059   3.773   8.669  1.0126  0.5853 -0.7570
  142OSM   H18H15642   0.920   3.856   8.583 -1.0851 -0.9140  0.4586
  143OSM      N15643   2.227   0.039   6.478  0.3357  0.2468  0.4699
  143OSM    C1515644   2.179   0.179   6.472  0.0140 -0.1015  0.3711
  143OSM   H15A15645   2.264   0.239   6.442 -0.3044 -0.0667 -0.4934
  143OSM   H15B15646   2.149   0.200   6.573 -1.3901  0.9993 -0.2480
  143OSM   H15C15647   2.098   0.192   6.401  0.6710 -0.6706 -0.5079
  143OSM    C1415648   2.360   0.025   6.561 -0.4745 -0.2533 -1.0246
  143OSM   H14A15649   2.431   0.095   6.518  0.6970 -0.4011  0.5706
  143OSM   H14B15650   2.406  -0.072   6.563  1.6804  0.7139  0.2862
  143OSM   H14C15651   2.341   0.064   6.659  1.6723 -0.6437 -0.4008
  143OSM    C1315652   2.130  -0.040   6.558 -0.2062  0.3028  0.4865
  143OSM   H13A15653   2.142  -0.145   6.538  0.1849  0.5348 -0.5870
  143OSM   H13B15654   2.028  -0.018   6.531 -0.0811 -1.9871 -2.3327
  143OSM   H13C15655   2.148  -0.023   6.663 -1.3961  0.1665  0.7202
  143OSM    C1215656   2.239  -0.013   6.338 -0.3842 -0.1063 -0.4902
  143OSM   H12A15657   2.286   0.056   6.270  2.2713 -1.6051 -0.3280
  143OSM   H12B15658   2.135  -0.020   6.308 -0.3576 -0.1660 -0.5701
  143OSM    C1115659   2.318  -0.147   6.322  0.7843  0.1111  0.2565
  143OSM   H11A15660   2.429  -0.139   6.325  0.6719  1.7932  1.6642
  143OSM   H11B15661   2.300  -0.156   6.212 -0.8155 -1.2479  0.6089
  143OSM      P15662   2.326  -0.370   6.446 -0.1461 -0.2354 -0.1112
  143OSM    O1315663   2.216  -0.456   6.499 -0.0724  0.1819  0.5718
  143OSM    O1415664   2.409  -0.430   6.342 -0.2337  0.1123  0.0517
  143OSM    O1115665   2.413  -0.310   6.561 -0.7232  0.3111 -0.2612
  143OSM    O1215666   2.253  -0.248   6.385 -0.4679 -0.6419 -0.2260
  143OSM    C1S15667   2.369  -0.286   6.700 -0.0868 -0.2277 -0.1460
  143OSM    H1S15668   2.281  -0.350   6.723 -0.9290 -0.0830 -2.5689
  143OSM    H1T15669   2.342  -0.179   6.710 -0.8177 -0.6491  3.8214
  143OSM     NF15670   2.426  -0.311   6.943 -0.0198  0.0419 -0.1991
  143OSM    HNF15671   2.431  -0.233   7.005 -2.8442  0.4531 -0.3606
  143OSM    C2S15672   2.482  -0.313   6.804 -1.0944  0.0005 -1.1130
  143OSM    H2S15673   2.521  -0.416   6.790  0.2586  0.3562 -0.1276
  143OSM    C3S15674   2.598  -0.220   6.786 -0.0561 -0.7602 -0.7042
  143OSM    H3S15675   2.555  -0.117   6.779 -1.5904 -1.1547  1.6248
  143OSM     O315676   2.659  -0.236   6.659  0.1088 -0.2613 -0.0455
  143OSM    HO315677   2.593  -0.267   6.597 -0.4893  0.5652  0.1571
  143OSM    C4S15678   2.697  -0.221   6.908  0.7449 -0.3679  0.0132
  143OSM    H4S15679   2.708  -0.318   6.958 -1.1803  1.2392  4.0129
  143OSM    C5S15680   2.745  -0.113   6.972 -0.0080  0.1006 -0.4938
  143OSM    H5S15681   2.733  -0.009   6.940  0.4000 -0.8383 -4.0694
  143OSM    C6S15682   2.824  -0.118   7.095  0.4084 -0.0611 -0.0526
  143OSM    H6S15683   2.896  -0.034   7.085 -1.1855  1.3418 -0.4389
  143OSM    H6T15684   2.876  -0.216   7.104  1.3865  0.5999  2.1580
  143OSM    C7S15685   2.752  -0.112   7.236 -0.8671 -0.3996  0.0005
  143OSM    H7S15686   2.688  -0.200   7.258 -0.0910 -0.9144  0.2650
  143OSM    H7T15687   2.684  -0.024   7.229 -1.5954 -0.9176  0.3511
  143OSM    C8S15688   2.861  -0.095   7.345  0.2108 -0.1399 -0.1561
  143OSM    H8S15689   2.930  -0.016   7.308 -0.0428 -0.6920 -1.8969
  143OSM    H8T15690   2.925  -0.185   7.352  0.0755 -0.0969  2.9318
  143OSM    C9S15691   2.811  -0.064   7.487  0.4435  0.3041 -0.0108
  143OSM    H9S15692   2.740  -0.136   7.532 -0.2036  0.8951 -0.0707
  143OSM    H9T15693   2.764   0.036   7.476 -1.8224 -0.7621 -0.4004
  143OSM   C10S15694   2.921  -0.045   7.586 -0.1836 -0.3736 -0.0269
  143OSM   H10S15695   2.985   0.039   7.551 -0.1211 -0.8858 -1.1992
  143OSM   H10T15696   2.976  -0.140   7.602  2.0364  0.6844 -1.0203
  143OSM   C11S15697   2.862   0.000   7.720  0.4754  0.2157  0.2715
  143OSM   H11S15698   2.791  -0.082   7.744  0.1026  0.3311 -0.3962
  143OSM   H11T15699   2.805   0.094   7.704  0.6387  0.0930 -1.1760
  143OSM   C12S15700   2.968   0.013   7.822 -0.2414  0.2461 -0.5262
  143OSM   H12S15701   3.043   0.092   7.799  0.7062 -0.4488  0.1327
  143OSM   H12T15702   3.025  -0.079   7.846  1.6841  2.0990  2.6644
  143OSM   C13S15703   2.912   0.064   7.956  0.1020  0.2264 -0.0596
  143OSM   H13S15704   2.831  -0.005   7.987 -1.2974  0.5190 -2.7206
  143OSM   H13T15705   2.875   0.167   7.937 -3.9735 -1.1064 -0.3380
  143OSM   C14S15706   3.019   0.073   8.070 -0.3117  0.4608 -0.5982
  143OSM   H14S15707   3.098   0.148   8.048  1.3393 -1.5490 -1.9976
  143OSM   H14T15708   3.077  -0.023   8.068  1.5818  1.5563 -0.8779
  143OSM   C15S15709   2.953   0.091   8.204  0.2762 -0.2820  0.3075
  143OSM   H15S15710   2.873   0.019   8.234  2.3635 -2.5777  0.6791
  143OSM   H15T15711   2.897   0.185   8.189 -0.0035 -0.5264 -0.2189
  143OSM   C16S15712   3.049   0.110   8.322  0.5645 -0.0648  0.8539
  143OSM   H16S15713   3.140   0.168   8.295  0.5616  0.4207  1.8661
  143OSM   H16T15714   3.088   0.008   8.344  0.7891 -0.2222 -0.1977
  143OSM   C17S15715   2.982   0.172   8.443  0.3503 -0.4023  0.5540
  143OSM   H17S15716   2.896   0.108   8.471  0.4577  0.2936  2.6700
  143OSM   H17T15717   2.946   0.275   8.420  0.8381 -0.7107 -1.7891
  143OSM   C18S15718   3.076   0.170   8.566 -0.5629 -0.5064  0.0389
  143OSM   H18S15719   3.164   0.236   8.549 -2.8387  1.9373 -3.7591
  143OSM   H18T15720   3.097   0.066   8.601  0.7797  0.5674  2.7935
  143OSM   H18U15721   3.036   0.223   8.655  1.5968 -0.8435  1.3025
  143OSM    C1F15722   2.329  -0.401   6.988  0.1739 -0.4710 -0.2711
  143OSM     OF15723   2.275  -0.491   6.924 -0.1558 -0.0300 -0.0936
  143OSM    C2F15724   2.276  -0.374   7.119  0.0640 -0.1478 -0.2934
  143OSM    H2F15725   2.179  -0.321   7.118 -0.4582 -0.9255  1.8974
  143OSM    H2G15726   2.356  -0.318   7.173  1.9226 -1.7613 -1.2486
  143OSM    C3F15727   2.248  -0.499   7.202  0.7311  0.1424  0.2047
  143OSM    H3F15728   2.341  -0.560   7.204  0.7092 -0.0229  3.8488
  143OSM    H3G15729   2.160  -0.554   7.162  1.6669 -2.0063  0.9427
  143OSM    C4F15730   2.204  -0.479   7.354 -0.4424 -0.0382  0.1906
  143OSM    H4F15731   2.199  -0.576   7.407 -1.9051  0.2627  0.6447
  143OSM    H4G15732   2.098  -0.448   7.362 -0.0770  1.7568 -1.1975
  143OSM    C5F15733   2.297  -0.385   7.435  0.0811  0.5721  0.0985
  143OSM    H5F15734   2.280  -0.277   7.413  1.1728  1.3108  2.6011
  143OSM    H5G15735   2.401  -0.409   7.407 -0.5540 -1.2967 -0.8565
  143OSM    C6F15736   2.274  -0.389   7.589  0.4472  0.2562  0.4068
  143OSM    H6F15737   2.369  -0.367   7.642 -1.4143  1.7771  3.3759
  143OSM    H6G15738   2.250  -0.495   7.613  0.0084  0.4109  0.6657
  143OSM    C7F15739   2.155  -0.299   7.636 -0.3005 -0.1862 -0.5453
  143OSM    H7F15740   2.065  -0.317   7.572 -1.7053 -0.0593  1.2983
  143OSM    H7G15741   2.187  -0.196   7.609  2.9290 -1.4210 -1.8233
  143OSM    C8F15742   2.114  -0.317   7.786 -1.0075  0.5178  0.1953
  143OSM    H8F15743   2.041  -0.235   7.800 -2.0491 -0.4021  0.2853
  143OSM    H8G15744   2.196  -0.296   7.857  0.2539 -1.9103 -0.4399
  143OSM    C9F15745   2.062  -0.455   7.815  0.0123 -0.2895 -0.1556
  143OSM    H9F15746   1.966  -0.477   7.767 -0.9580  0.4873  1.3326
  143OSM   C10F15747   2.097  -0.544   7.912 -0.7074 -0.1904  0.1765
  143OSM   H10F15748   2.055  -0.645   7.895 -1.0105 -0.0548  0.1091
  143OSM   C11F15749   2.218  -0.535   8.005 -0.4624  0.6062  0.3813
  143OSM   H11F15750   2.301  -0.468   7.974 -0.9486  0.7985 -0.5520
  143OSM   H11G15751   2.273  -0.631   8.017 -2.2324 -0.3301  1.4655
  143OSM   C12F15752   2.184  -0.494   8.149  0.0918 -0.3309  0.3338
  143OSM   H12F15753   2.097  -0.553   8.186  0.0493 -1.8840 -2.0138
  143OSM   H12G15754   2.147  -0.390   8.161 -3.9119 -1.7407  1.8765
  143OSM   C13F15755   2.308  -0.489   8.237  0.6791 -0.3467  0.2321
  143OSM   H13F15756   2.398  -0.449   8.185  0.7419 -0.2938  0.3785
  143OSM   H13G15757   2.335  -0.595   8.258 -0.2872 -0.5333  0.5786
  143OSM   C14F15758   2.292  -0.401   8.361  0.0455  0.1091 -0.4076
  143OSM   H14F15759   2.209  -0.440   8.424  0.8545 -0.8949  0.0657
  143OSM   H14G15760   2.262  -0.297   8.334 -0.4604 -0.2042 -1.0951
  143OSM   C15F15761   2.418  -0.411   8.444 -0.0550 -0.1506  0.5525
  143OSM   H15F15762   2.493  -0.353   8.387  0.3501  0.1757  1.4177
  143OSM   H15G15763   2.450  -0.517   8.453  2.6952  0.5663 -0.0659
  143OSM   C16F15764   2.412  -0.354   8.589  0.6738  0.0322 -0.1089
  143OSM   H16F15765   2.352  -0.428   8.646  0.4927  0.9020  0.8639
  143OSM   H16G15766   2.348  -0.265   8.571 -0.2780 -0.4110  1.0184
  143OSM   C17F15767   2.545  -0.319   8.654 -0.7778 -0.1258  0.4607
  143OSM   H17F15768   2.517  -0.266   8.747  0.3855 -1.9799  1.9423
  143OSM   H17G15769   2.602  -0.257   8.581  0.9334 -2.2594 -0.1578
  143OSM   C18F15770   2.648  -0.433   8.681 -0.1145 -0.6557 -0.4053
  143OSM   H18F15771   2.621  -0.492   8.771 -0.0462 -0.1297 -0.0326
  143OSM   H18G15772   2.748  -0.389   8.699  0.0988 -1.2240 -0.1870
  143OSM   H18H15773   2.660  -0.505   8.597  0.7082 -0.0882 -0.7830
  144OSM      N15774   6.491   6.518   6.638 -0.4702 -0.1588  0.5525
  144OSM    C1515775   6.387   6.621   6.679  0.3730 -0.1793  0.4135
  144OSM   H15A15776   6.335   6.595   6.770 -0.7261 -0.1105 -0.1898
  144OSM   H15B15777   6.316   6.631   6.599 -0.5058  0.8914  1.2771
  144OSM   H15C15778   6.423   6.723   6.676  0.5767 -0.1705  1.9655
  144OSM    C1415779   6.606   6.519   6.736 -0.3099  0.2094  0.5607
  144OSM   H14A15780   6.585   6.462   6.825  2.8326 -1.3549  0.4231
  144OSM   H14B15781   6.632   6.622   6.753 -0.9790  0.5981 -0.6743
  144OSM   H14C15782   6.691   6.461   6.704 -0.7552  0.6222 -1.5067
  144OSM    C1315783   6.445   6.381   6.637  0.5574  0.2325  0.3566
  144OSM   H13A15784   6.349   6.365   6.589  0.2177  0.6128  0.8963
  144OSM   H13B15785   6.420   6.357   6.740  1.0204  0.4732  0.5270
  144OSM   H13C15786   6.519   6.315   6.595  0.6666  0.5963 -0.0182
  144OSM    C1215787   6.547   6.555   6.506  0.3471 -0.0286  0.3789
  144OSM   H12A15788   6.576   6.658   6.506  3.0037 -0.6919 -1.1742
  144OSM   H12B15789   6.474   6.551   6.426  2.2492  1.0013 -1.4937
  144OSM    C1115790   6.670   6.476   6.465 -0.0410  0.1731 -0.1751
  144OSM   H11A15791   6.764   6.511   6.513 -0.8952  1.6075  0.4996
  144OSM   H11B15792   6.670   6.513   6.360 -1.9848  1.1719  0.1313
  144OSM      P15793   6.768   6.237   6.482 -0.0014  0.2742  0.1439
  144OSM    O1315794   6.719   6.101   6.453  0.4432 -0.1251 -0.0791
  144OSM    O1415795   6.893   6.276   6.422 -0.2107  0.4554  0.1886
  144OSM    O1115796   6.781   6.259   6.633 -0.3643 -0.2179  0.0636
  144OSM    O1215797   6.657   6.337   6.450  0.5070 -0.1337 -0.1325
  144OSM    C1S15798   6.779   6.154   6.729 -0.3196  1.0336 -0.2192
  144OSM    H1S15799   6.820   6.058   6.692  0.7448  1.8648 -1.2791
  144OSM    H1T15800   6.686   6.132   6.786  0.4443  0.0833  0.7016
  144OSM     NF15801   6.891   6.105   6.948 -0.0130  0.3182  0.1368
  144OSM    HNF15802   6.892   6.141   7.041 -1.5938  0.1172  0.2643
  144OSM    C2S15803   6.893   6.198   6.833  0.5934 -0.1087 -0.2148
  144OSM    H2S15804   6.996   6.194   6.792  0.2853  0.5917 -1.0794
  144OSM    C3S15805   6.871   6.347   6.875 -0.2033  0.1317  0.0808
  144OSM    H3S15806   6.761   6.365   6.879 -0.3607 -0.9893  1.6506
  144OSM     O315807   6.927   6.436   6.785  0.9554 -0.1822 -0.5624
  144OSM    HO315808   6.905   6.393   6.702 -1.0161  1.6729 -1.0582
  144OSM    C4S15809   6.922   6.375   7.015 -0.5223 -0.3529 -0.3085
  144OSM    H4S15810   7.032   6.371   7.007 -0.3717  0.6801  0.8703
  144OSM    C5S15811   6.859   6.427   7.122 -0.4078 -0.5366 -0.0317
  144OSM    H5S15812   6.753   6.457   7.128 -0.7656 -1.7800  0.3832
  144OSM    C6S15813   6.932   6.466   7.246  0.1886  0.6356  0.2844
  144OSM    H6S15814   6.883   6.559   7.280 -0.6023  0.1086  0.6196
  144OSM    H6T15815   7.041   6.484   7.229  0.0036  1.2836 -0.2499
  144OSM    C7S15816   6.917   6.359   7.361 -0.2600 -0.1539  0.2739
  144OSM    H7S15817   6.969   6.266   7.331 -0.6523  0.3068 -2.0952
  144OSM    H7T15818   6.811   6.331   7.376 -0.2853  0.0959  0.5603
  144OSM    C8S15819   6.990   6.413   7.486  0.0148 -0.0575 -0.1617
  144OSM    H8S15820   6.941   6.498   7.538  1.5799  1.1323 -0.5570
  144OSM    H8T15821   7.089   6.451   7.453 -0.1751  0.6646  0.0790
  144OSM    C9S15822   7.008   6.302   7.601 -0.3165  0.2464  0.0345
  144OSM    H9S15823   7.067   6.216   7.565 -0.8879  0.4851 -1.5769
  144OSM    H9T15824   6.900   6.277   7.608 -0.8504  2.2599 -0.0824
  144OSM   C10S15825   7.049   6.347   7.743  0.3495  0.3447 -0.2354
  144OSM   H10S15826   7.020   6.450   7.772  1.2618  0.3096  0.8400
  144OSM   H10T15827   7.158   6.357   7.762  0.1928  1.6318  0.0901
  144OSM   C11S15828   6.991   6.250   7.847  0.2042  0.6170 -0.0771
  144OSM   H11S15829   7.059   6.262   7.934  0.5010  0.5758 -0.3020
  144OSM   H11T15830   7.017   6.147   7.816 -1.1704  0.6614 -1.4920
  144OSM   C12S15831   6.845   6.263   7.883  0.7902  0.7575 -0.4332
  144OSM   H12S15832   6.789   6.222   7.795 -0.0424  0.0656  0.3994
  144OSM   H12T15833   6.820   6.371   7.887 -1.7261  0.1898  2.5502
  144OSM   C13S15834   6.815   6.193   8.016  0.0841 -0.2415 -0.4036
  144OSM   H13S15835   6.887   6.233   8.089  0.9362  2.3549 -2.5076
  144OSM   H13T15836   6.813   6.083   8.000 -2.2507 -0.5236  1.2315
  144OSM   C14S15837   6.675   6.227   8.071 -0.3252 -0.4111 -0.0743
  144OSM   H14S15838   6.602   6.208   7.988  1.8709 -1.5741 -1.8446
  144OSM   H14T15839   6.663   6.335   8.092  0.3743 -0.5665  1.1680
  144OSM   C15S15840   6.662   6.169   8.212 -0.1296  0.7902  0.9039
  144OSM   H15S15841   6.737   6.226   8.271  0.8038 -1.1941  1.7269
  144OSM   H15T15842   6.684   6.060   8.209 -0.7997  0.6695 -1.4004
  144OSM   C16S15843   6.527   6.189   8.279  0.6066  0.7613 -0.3086
  144OSM   H16S15844   6.444   6.142   8.223  0.6269  1.5865 -1.0467
  144OSM   H16T15845   6.508   6.298   8.278 -1.1421  0.4978  0.0230
  144OSM   C17S15846   6.517   6.139   8.428 -0.2331 -0.2675 -0.1451
  144OSM   H17S15847   6.603   6.172   8.491 -0.1875 -1.7204  0.5855
  144OSM   H17T15848   6.531   6.029   8.424  1.8512 -0.0087 -2.5417
  144OSM   C18S15849   6.382   6.172   8.491 -0.6884 -0.1908 -0.7717
  144OSM   H18S15850   6.307   6.109   8.438 -0.1004 -1.9726  0.4066
  144OSM   H18T15851   6.370   6.281   8.479  1.6242  0.3212  0.8498
  144OSM   H18U15852   6.380   6.151   8.600 -3.7557  0.3860 -0.6114
  144OSM    C1F15853   6.896   5.972   6.952 -0.1105 -0.3784 -0.2449
  144OSM     OF15854   6.914   5.902   6.852 -0.1592  0.0327  0.5131
  144OSM    C2F15855   6.880   5.915   7.095  0.3240 -1.0958  0.4355
  144OSM    H2F15856   6.864   5.807   7.080  1.2079 -0.9687 -1.7910
  144OSM    H2G15857   6.783   5.956   7.130 -0.2122 -0.1020 -2.0310
  144OSM    C3F15858   7.002   5.931   7.191 -0.6156 -0.6853 -0.6409
  144OSM    H3F15859   7.025   6.039   7.201 -1.7833 -0.1001 -3.2788
  144OSM    H3G15860   7.091   5.889   7.139 -0.1197 -2.0109  1.2029
  144OSM    C4F15861   6.988   5.866   7.328  0.5241 -0.1598  0.2724
  144OSM    H4F15862   6.963   5.761   7.304 -1.6240  0.2853  0.4037
  144OSM    H4G15863   6.905   5.904   7.391 -0.7898 -1.1794 -0.7889
  144OSM    C5F15864   7.112   5.867   7.421  0.0683  0.3531 -0.0719
  144OSM    H5F15865   7.154   5.970   7.422 -1.8273  1.1821  0.1127
  144OSM    H5G15866   7.186   5.802   7.371 -0.9186 -2.2371  1.6491
  144OSM    C6F15867   7.095   5.813   7.566  0.0903  0.2912 -0.7514
  144OSM    H6F15868   7.065   5.707   7.576 -0.6674  0.5706  0.1088
  144OSM    H6G15869   7.007   5.864   7.611 -0.8065  0.2903 -2.4392
  144OSM    C7F15870   7.224   5.841   7.644 -0.7752 -0.3584 -0.2929
  144OSM    H7F15871   7.252   5.949   7.647  1.1948 -0.8311  1.1256
  144OSM    H7G15872   7.308   5.799   7.584  0.3198 -1.2888  1.7661
  144OSM    C8F15873   7.233   5.785   7.785  0.4384  0.4084  0.3146
  144OSM    H8F15874   7.339   5.791   7.817  0.2494  0.3493  0.9537
  144OSM    H8G15875   7.215   5.676   7.781  0.7973  0.1659  3.1479
  144OSM    C9F15876   7.138   5.857   7.875  0.5977 -0.6638 -0.7818
  144OSM    H9F15877   7.157   5.965   7.887 -1.0047 -0.0863 -2.8676
  144OSM   C10F15878   7.034   5.802   7.945  1.1846  0.6018 -0.1816
  144OSM   H10F15879   6.980   5.868   8.014  2.3180  1.4026 -0.0271
  144OSM   C11F15880   6.984   5.663   7.938  0.5679 -0.3128  0.2726
  144OSM   H11F15881   7.034   5.609   7.855  0.4141 -1.0060  0.6199
  144OSM   H11G15882   6.877   5.650   7.913  0.8089 -0.7370 -0.5637
  144OSM   C12F15883   7.004   5.589   8.076 -0.4164 -0.0378 -0.4678
  144OSM   H12F15884   6.921   5.515   8.077 -0.1971 -0.2812  0.1999
  144OSM   H12G15885   6.999   5.661   8.161  1.1014  1.6651 -1.7475
  144OSM   C13F15886   7.144   5.525   8.089 -0.0498  0.6621  0.4714
  144OSM   H13F15887   7.166   5.462   8.001 -0.0466  0.3179  0.7184
  144OSM   H13G15888   7.140   5.454   8.174  1.9864 -1.3439 -1.0049
  144OSM   C14F15889   7.258   5.626   8.119  0.7053 -0.3307  0.0731
  144OSM   H14F15890   7.213   5.699   8.190 -0.9362  0.8192 -2.0340
  144OSM   H14G15891   7.282   5.686   8.028 -1.7660 -0.9807 -1.0937
  144OSM   C15F15892   7.381   5.557   8.178  0.5294 -0.0103  0.3938
  144OSM   H15F15893   7.427   5.479   8.114  0.2837 -0.5200  0.8380
  144OSM   H15G15894   7.356   5.509   8.274 -0.2146  0.6734  0.5585
  144OSM   C16F15895   7.497   5.655   8.207 -0.8213 -0.6765 -0.4410
  144OSM   H16F15896   7.519   5.695   8.106 -4.0169 -0.2603 -1.1018
  144OSM   H16G15897   7.588   5.598   8.236  0.4546  0.6907 -1.6127
  144OSM   C17F15898   7.472   5.775   8.309 -0.2471 -0.1692 -0.1504
  144OSM   H17F15899   7.383   5.820   8.260  1.9042 -0.3519 -4.8295
  144OSM   H17G15900   7.554   5.850   8.303 -1.0881  0.8728  1.0130
  144OSM   C18F15901   7.463   5.719   8.444  0.2370  0.4008  0.0191
  144OSM   H18F15902   7.561   5.670   8.466  1.6357  2.2084 -1.8461
  144OSM   H18G15903   7.386   5.639   8.447 -1.5383  2.0675  0.7578
  144OSM   H18H15904   7.438   5.792   8.524 -1.3660  0.7627 -0.7833
  145SAPE     N15905   0.406   4.762  10.933 -0.8562  0.1293 -0.3219
  145SAPE   HN115906   0.454   4.729  10.847  0.3960 -0.7636  0.6844
  145SAPE   HN215907   0.380   4.861  10.913  1.3683  0.2133 -3.6153
  145SAPE   HN315908   0.478   4.759  11.009 -1.6123  1.4951  0.4931
  145SAPE   C1215909   0.287   4.674  10.954  0.4386 -0.1894  0.2778
  145SAPE  H12A15910   0.208   4.741  10.992 -1.3391 -1.3234 -1.2405
  145SAPE  H12B15911   0.328   4.614  11.038  0.2153  0.0327  0.5465
  145SAPE   C1115912   0.226   4.604  10.833 -0.2344  0.4051  0.2482
  145SAPE  H11A15913   0.294   4.529  10.788 -2.2466  0.0300 -2.4350
  145SAPE  H11B15914   0.201   4.673  10.750  0.3737  0.3043 -0.0231
  145SAPE     P15915  -0.035   4.611  10.873  0.1017  0.2373 -0.4315
  145SAPE   O1315916  -0.134   4.516  10.920 -0.1739  0.9714  0.7826
  145SAPE   O1415917  -0.014   4.733  10.956 -0.3293  0.2429  0.0271
  145SAPE   O1215918   0.109   4.539  10.873 -0.1729  0.2934  1.0036
  145SAPE   O1115919  -0.074   4.654  10.719  0.0816  0.2300 -0.1725
  145SAPE    C115920  -0.090   4.561  10.611 -0.4452 -0.3225 -0.4282
  145SAPE    HA15921   0.005   4.503  10.602 -0.6533 -0.5235 -1.4299
  145SAPE    HB15922  -0.170   4.488  10.631  0.3889 -1.0055  0.5177
  145SAPE    C215923  -0.123   4.635  10.481  0.2036 -0.3981 -0.3071
  145SAPE    HS15924  -0.170   4.553  10.422  0.8913 -0.8517 -0.2401
  145SAPE   O2115925  -0.003   4.683  10.419 -0.0484  0.4639 -0.3722
  145SAPE   C2115926   0.072   4.589  10.361  0.2463 -0.3009  0.1576
  145SAPE   O2215927   0.050   4.471  10.362  0.0577  0.3296 -0.0716
  145SAPE   C2215928   0.199   4.656  10.299  0.2734 -0.0466 -0.7667
  145SAPE   H2R15929   0.202   4.762  10.332 -0.5565 -0.6456  1.4352
  145SAPE   H2S15930   0.283   4.593  10.334 -0.3145 -0.4113  0.0237
  145SAPE    C315931  -0.234   4.747  10.507 -0.1515 -0.1828 -0.1118
  145SAPE    HX15932  -0.193   4.820  10.581 -2.0892  2.1571 -1.1965
  145SAPE    HY15933  -0.320   4.703  10.560 -0.0738 -1.3599 -0.9363
  145SAPE   O3115934  -0.270   4.801  10.380  0.7309  0.4364 -0.0496
  145SAPE   C3115935  -0.289   4.932  10.375  0.1249 -0.3028  0.2489
  145SAPE   O3215936  -0.285   5.008  10.466  0.2114 -0.0795 -0.0581
  145SAPE   C3215937  -0.306   4.974  10.236  0.0827  0.6665  1.2463
  145SAPE   H2X15938  -0.311   4.887  10.167 -1.8460  1.6085  0.1150
  145SAPE   H2Y15939  -0.220   5.035  10.201 -0.0456  1.0241  1.5537
  145SAPE   C2315940   0.183   4.626  10.144 -0.4844 -0.3096 -0.1931
  145SAPE   H3R15941   0.205   4.519  10.124  1.7511 -0.1226  0.9294
  145SAPE   H3S15942   0.268   4.681  10.098  0.8661 -1.5864  0.6959
  145SAPE   C2415943   0.050   4.668  10.064 -0.5359 -0.3644  0.2536
  145SAPE   H4R15944  -0.042   4.624  10.107 -0.0044  0.2650  2.1468
  145SAPE   H4S15945   0.060   4.626   9.961 -0.0708  0.3340  0.0055
  145SAPE   C2515946   0.043   4.824  10.057 -0.0326  0.6063 -0.2133
  145SAPE   H5R15947   0.098   4.861  10.146  2.0891 -0.7972 -0.8701
  145SAPE   C2615948   0.008   4.909   9.957  0.3052 -0.0273  0.5699
  145SAPE   H6R15949   0.015   5.017   9.975  0.5535 -0.2264  1.7093
  145SAPE   C2715950  -0.050   4.878   9.820  0.4293  0.1452 -0.5736
  145SAPE   H7R15951  -0.128   4.954   9.801 -0.1594 -0.2609  0.1754
  145SAPE   H7S15952  -0.100   4.779   9.826  0.1616  0.3590  1.7741
  145SAPE   C2815953   0.059   4.889   9.716 -0.2875 -0.2541  0.9331
  145SAPE   H8R15954   0.145   4.827   9.745 -0.5894 -0.6594  0.9691
  145SAPE   C2915955   0.058   4.951   9.595  0.7276 -0.1255 -0.4387
  145SAPE   H9R15956   0.157   4.965   9.549  1.2514  0.6858  0.8936
  145SAPE  C21015957  -0.055   5.034   9.540 -0.4001  0.0587 -0.7394
  145SAPE  H10R15958  -0.010   5.134   9.524  2.7944 -1.2213 -0.5352
  145SAPE  H10S15959  -0.137   5.055   9.611 -0.2525  1.5277 -0.9763
  145SAPE  C21115960  -0.097   4.971   9.411 -0.0738 -0.2048  0.4497
  145SAPE  H11R15961  -0.160   4.882   9.426 -0.7739  0.4716  1.6474
  145SAPE  C21215962  -0.069   5.016   9.284  0.2236  0.8181 -0.5551
  145SAPE  H12R15963  -0.100   4.953   9.199 -0.9604 -0.4055  0.7511
  145SAPE  C21315964   0.005   5.139   9.235  0.0312 -0.3721 -0.3488
  145SAPE  H13R15965   0.034   5.199   9.324  2.1810  1.3033 -2.0784
  145SAPE  H13S15966  -0.064   5.195   9.168  1.1031 -1.3787 -2.3837
  145SAPE  C21415967   0.143   5.119   9.169  0.4329 -0.5203 -0.1361
  145SAPE  H14R15968   0.221   5.067   9.226  0.5699  1.9515  2.1363
  145SAPE  C21515969   0.170   5.151   9.038 -0.3687  0.4433 -1.0906
  145SAPE  H15R15970   0.275   5.134   9.009  0.0395 -3.0295  1.6762
  145SAPE  C21615971   0.079   5.203   8.935 -0.5854 -0.1389  0.2773
  145SAPE  H16R15972  -0.019   5.153   8.948 -0.3006 -0.2965  2.1368
  145SAPE  H16S15973   0.115   5.177   8.834  1.5097  0.9963  0.6620
  145SAPE  C21715974   0.039   5.355   8.942  0.6139  0.3812 -0.0927
  145SAPE  H17R15975   0.128   5.420   8.940 -1.5681  3.6683  1.2417
  145SAPE  H17S15976  -0.010   5.374   9.040  2.4740  2.2256  0.5314
  145SAPE  C21815977  -0.055   5.397   8.826  0.0451  0.1846 -0.4089
  145SAPE  H18R15978  -0.133   5.319   8.817  0.4591 -0.0978 -1.7124
  145SAPE  H18S15979   0.013   5.394   8.738  1.0414 -0.0074  0.3395
  145SAPE  C21915980  -0.123   5.537   8.844  0.1817 -0.2382  0.2797
  145SAPE  H19R15981  -0.043   5.614   8.844 -0.3647  0.3438 -0.1045
  145SAPE  H19S15982  -0.163   5.546   8.947  2.5027 -1.4621  1.3577
  145SAPE  C22015983  -0.224   5.578   8.738 -0.7094 -0.1697  0.5999
  145SAPE  H20R15984  -0.214   5.688   8.730  0.5367 -0.3257 -0.3580
  145SAPE  H20S15985  -0.326   5.538   8.757 -0.5813 -0.2098  1.2094
  145SAPE  H20T15986  -0.198   5.546   8.634  1.5196  0.9007  0.7681
  145SAPE   C3315987  -0.436   5.061  10.229  0.1490  0.5352  0.3051
  145SAPE   H3X15988  -0.408   5.167  10.248 -2.0817  1.3407 -0.5090
  145SAPE   H3Y15989  -0.513   5.041  10.306 -0.6963 -1.5177 -0.9890
  145SAPE   C3415990  -0.510   5.067  10.091  0.3921  0.0343 -0.3529
  145SAPE   H4X15991  -0.597   5.137  10.091 -0.0736 -0.4488 -2.4781
  145SAPE   H4Y15992  -0.550   4.964  10.087  2.6845 -1.0412  1.9673
  145SAPE   C3515993  -0.412   5.086   9.970  0.4244 -0.0442 -0.0800
  145SAPE   H5X15994  -0.361   4.989   9.950 -0.8501 -0.7189 -0.1930
  145SAPE   H5Y15995  -0.334   5.162   9.991  1.0541 -0.1722 -1.8020
  145SAPE   C3615996  -0.483   5.129   9.843 -0.0712 -0.8707  0.0091
  145SAPE   H6X15997  -0.547   5.210   9.883  0.4459 -1.4789  2.2173
  145SAPE   H6Y15998  -0.563   5.056   9.818  0.0947 -1.1838  0.3778
  145SAPE   C3715999  -0.395   5.154   9.726 -0.1478  0.2744  0.1299
  145SAPE   H7X16000  -0.353   5.057   9.693  0.3485  1.1899 -2.0534
  145SAPE   H7Y16001  -0.304   5.212   9.756  0.4613 -0.8903  0.6200
  145SAPE   C3816002  -0.469   5.200   9.604 -0.3850  0.0865  0.4807
  145SAPE   H8X16003  -0.528   5.292   9.619 -0.4045  0.2063 -0.2885
  145SAPE   H8Y16004  -0.537   5.123   9.561  3.7841 -2.5064 -2.3401
  145SAPE   C3916005  -0.374   5.238   9.487 -0.6079 -0.2619 -0.6684
  145SAPE   H9X16006  -0.307   5.156   9.456  0.5623 -0.0276  1.0650
  145SAPE   H9Y16007  -0.313   5.325   9.523  1.4908 -1.3188 -1.5111
  145SAPE  C31016008  -0.458   5.274   9.365 -0.2670  0.2109 -0.0021
  145SAPE  H10X16009  -0.530   5.356   9.391 -1.6032 -0.9309  0.0004
  145SAPE  H10Y16010  -0.514   5.189   9.322  1.4864 -0.3553 -1.2602
  145SAPE  C31116011  -0.368   5.325   9.243 -0.2838  0.2380 -0.6760
  145SAPE  H11X16012  -0.283   5.255   9.233 -1.9732 -2.0636  0.3522
  145SAPE  H11Y16013  -0.331   5.423   9.281  0.8204 -0.1590 -0.6906
  145SAPE  C31216014  -0.448   5.350   9.118 -0.4984 -0.1680 -0.3683
  145SAPE  H12X16015  -0.542   5.291   9.119 -0.0413 -0.9169  0.8344
  145SAPE  H12Y16016  -0.389   5.333   9.025  1.4381  0.9081  0.6035
  145SAPE  C31316017  -0.501   5.500   9.105  0.1212 -0.0360 -0.2312
  145SAPE  H13X16018  -0.411   5.562   9.083  0.1462  0.9284  2.1974
  145SAPE  H13Y16019  -0.538   5.544   9.200  1.2511 -0.7418  0.5679
  145SAPE  C31416020  -0.602   5.516   8.990 -0.0957  0.4095 -0.6295
  145SAPE  H14X16021  -0.710   5.503   9.012 -0.1354 -0.0381 -1.0748
  145SAPE  H14Y16022  -0.585   5.438   8.913  2.2905 -0.8351  1.0641
  145SAPE  C31516023  -0.589   5.655   8.922 -0.2466 -0.5967 -0.1945
  145SAPE  H15X16024  -0.481   5.681   8.913 -0.5070  1.0737  1.1760
  145SAPE  H15Y16025  -0.635   5.732   8.987 -0.1246 -1.1869  0.6057
  145SAPE  C31616026  -0.657   5.648   8.778 -0.4412  0.2564 -0.1219
  145SAPE  H16X16027  -0.752   5.592   8.789  0.6653 -2.6206 -3.3217
  145SAPE  H16Y16028  -0.590   5.583   8.717  0.0183  0.5249  0.0853
  145SAPE  C31716029  -0.679   5.783   8.714 -0.0198 -0.2136 -0.3856
  145SAPE  H17X16030  -0.725   5.771   8.613 -1.7825 -1.1963  0.4817
  145SAPE  H17Y16031  -0.576   5.822   8.699  1.0759 -1.5794  2.8021
  145SAPE  C31816032  -0.758   5.888   8.786  0.0733 -0.7082 -0.1987
  145SAPE  H18X16033  -0.710   5.905   8.885  1.1349  0.4871 -0.8892
  145SAPE  H18Y16034  -0.863   5.862   8.812  0.0702 -2.2676 -1.6095
  145SAPE  H18Z16035  -0.759   5.988   8.739 -0.5930 -0.2162  0.8345
  146SAPE     N16036   5.110   0.072  11.118  0.4710 -0.2557 -0.5525
  146SAPE   HN116037   5.123   0.171  11.146  1.5103 -0.7794  0.9107
  146SAPE   HN216038   5.010   0.044  11.122  0.7680 -1.3757 -0.5522
  146SAPE   HN316039   5.150   0.005  11.187  1.4392  2.7974  2.0855
  146SAPE   C1216040   5.165   0.047  10.980 -0.1520  0.4876  0.0022
  146SAPE  H12A16041   5.124   0.123  10.910  1.6820  1.7688  0.2394
  146SAPE  H12B16042   5.139  -0.054  10.940  1.7725  0.4506 -1.3084
  146SAPE   C1116043   5.316   0.075  10.984 -0.6979  0.3675  0.0195
  146SAPE  H11A16044   5.347   0.168  11.036  1.5837 -1.1252  1.5227
  146SAPE  H11B16045   5.355   0.086  10.881  1.4384  1.7184  0.9161
  146SAPE     P16046   5.532  -0.014  11.103  0.0483 -0.0229  0.2160
  146SAPE   O1316047   5.561   0.113  11.170  0.2894  0.0452 -0.2487
  146SAPE   O1416048   5.569  -0.133  11.183  0.6749 -0.2461 -0.0566
  146SAPE   O1216049   5.385  -0.032  11.053  0.0865  0.2044  0.3905
  146SAPE   O1116050   5.609  -0.011  10.967  0.7054 -0.3118  0.6464
  146SAPE    C116051   5.643  -0.143  10.914  0.6656  0.0934 -0.3250
  146SAPE    HA16052   5.748  -0.155  10.946 -0.0791 -2.6322  1.3404
  146SAPE    HB16053   5.591  -0.228  10.963  2.2481  1.4775  4.2411
  146SAPE    C216054   5.620  -0.161  10.763 -0.1328  0.9298 -0.3084
  146SAPE    HS16055   5.659  -0.263  10.746  0.2484  0.6808  1.7339
  146SAPE   O2116056   5.687  -0.065  10.686  0.5729  0.5617 -0.0493
  146SAPE   C2116057   5.811  -0.101  10.655 -0.1868 -0.5611 -0.3820
  146SAPE   O2216058   5.861  -0.209  10.686  0.1697 -0.8003 -0.3866
  146SAPE   C2216059   5.876  -0.006  10.551 -1.0124  0.5494 -0.8771
  146SAPE   H2R16060   5.799   0.067  10.519 -0.4824  1.4602 -0.1275
  146SAPE   H2S16061   5.959   0.043  10.608 -1.6713  1.1588 -0.4136
  146SAPE    C316062   5.472  -0.169  10.719 -0.1940 -0.3521  0.4804
  146SAPE    HX16063   5.405  -0.082  10.736 -2.6407 -1.6092 -1.9722
  146SAPE    HY16064   5.420  -0.248  10.778 -0.8877  0.3367  0.8076
  146SAPE   O3116065   5.464  -0.231  10.585  0.3401 -0.1043 -1.1719
  146SAPE   C3116066   5.425  -0.144  10.496  0.1388 -0.6148  1.0627
  146SAPE   O3216067   5.398  -0.027  10.512  0.0056 -0.4408 -0.6561
  146SAPE   C3216068   5.408  -0.220  10.360  0.9149 -0.0035  0.2177
  146SAPE   H2X16069   5.328  -0.294  10.382 -1.5512  1.6696 -2.4605
  146SAPE   H2Y16070   5.502  -0.272  10.329 -0.0391 -1.6507 -0.0459
  146SAPE   C2316071   5.934  -0.079  10.427  0.2583  0.4833  0.0710
  146SAPE   H3R16072   6.009  -0.153  10.462 -0.2724 -1.2139 -2.1236
  146SAPE   H3S16073   5.995  -0.021  10.355 -0.3073 -0.2762 -1.0547
  146SAPE   C2416074   5.837  -0.147  10.337 -0.1195 -0.0797  0.4006
  146SAPE   H4R16075   5.789  -0.071  10.272 -0.3073  0.4222  1.1190
  146SAPE   H4S16076   5.765  -0.192  10.409 -1.5913 -0.0247 -0.9715
  146SAPE   C2516077   5.895  -0.255  10.251 -0.1075  0.3020  0.9730
  146SAPE   H5R16078   5.885  -0.353  10.300  0.3039 -0.0856  0.3043
  146SAPE   C2616079   5.949  -0.245  10.125  0.0101 -0.1627  0.2142
  146SAPE   H6R16080   5.986  -0.335  10.074 -1.9235 -0.9950  0.1728
  146SAPE   C2716081   5.960  -0.110  10.052  0.3218  0.1079 -0.4309
  146SAPE   H7R16082   6.069  -0.106  10.033  1.0036 -3.3715  1.6921
  146SAPE   H7S16083   5.936  -0.024  10.119 -1.1679  0.4431 -1.3472
  146SAPE   C2816084   5.877  -0.116   9.917  0.2390  0.4811 -0.4013
  146SAPE   H8R16085   5.769  -0.094   9.918  0.2871  0.8487  1.2966
  146SAPE   C2916086   5.922  -0.158   9.800 -0.3866 -1.1588  0.5285
  146SAPE   H9R16087   5.862  -0.153   9.708  2.7458 -2.1439 -1.7530
  146SAPE  C21016088   6.065  -0.186   9.764  1.3069 -0.2097  0.0796
  146SAPE  H10R16089   6.093  -0.258   9.844 -2.3645 -1.7776  0.1604
  146SAPE  H10S16090   6.118  -0.091   9.787 -0.4474  1.1183 -1.1083
  146SAPE  C21116091   6.108  -0.241   9.633 -0.1685 -0.1980  0.0927
  146SAPE  H11R16092   6.171  -0.329   9.650  1.3947  0.9510  0.5102
  146SAPE  C21216093   6.082  -0.204   9.509 -0.3651 -0.4655  0.3202
  146SAPE  H12R16094   6.107  -0.267   9.423 -0.8828  0.9915 -0.9532
  146SAPE  C21316095   6.008  -0.078   9.459  0.3864 -1.1930 -0.1173
  146SAPE  H13R16096   5.973  -0.015   9.543 -0.7968 -1.1274 -0.6274
  146SAPE  H13S16097   5.915  -0.111   9.407 -0.4898 -1.3051  1.4705
  146SAPE  C21416098   6.097   0.014   9.382 -0.1843  0.0083  0.0734
  146SAPE  H14R16099   6.139   0.093   9.446  0.3215 -0.4993  0.3845
  146SAPE  C21516100   6.125   0.005   9.252  0.2364 -0.1508 -0.8750
  146SAPE  H15R16101   6.190   0.081   9.208  0.9173  1.1426  2.1420
  146SAPE  C21616102   6.075  -0.108   9.165  0.2264  0.3566  0.4777
  146SAPE  H16R16103   6.005  -0.062   9.092 -0.0165 -1.3392 -0.4123
  146SAPE  H16S16104   6.010  -0.177   9.223 -0.5232  0.8885  0.2809
  146SAPE  C21716105   6.183  -0.185   9.072 -0.6113 -0.5200  0.2881
  146SAPE  H17R16106   6.136  -0.265   9.011 -1.3449 -0.2515  0.4896
  146SAPE  H17S16107   6.265  -0.223   9.137  1.1394  0.3404 -1.3581
  146SAPE  C21816108   6.244  -0.092   8.969 -0.0976 -0.0779 -0.1973
  146SAPE  H18R16109   6.302  -0.019   9.029  1.0259  0.1818 -1.5495
  146SAPE  H18S16110   6.154  -0.050   8.919 -1.6160 -0.6384  1.9417
  146SAPE  C21916111   6.347  -0.155   8.873 -0.7899  0.8310  0.0306
  146SAPE  H19R16112   6.282  -0.232   8.826 -3.3806  2.2671  1.0905
  146SAPE  H19S16113   6.433  -0.204   8.924 -0.6892 -0.5473 -1.3747
  146SAPE  C22016114   6.408  -0.054   8.773 -0.7492  0.5073 -0.4176
  146SAPE  H20R16115   6.471   0.012   8.836 -0.0534  0.0239 -0.5963
  146SAPE  H20S16116   6.334   0.015   8.726 -0.1170  1.1936 -0.4259
  146SAPE  H20T16117   6.467  -0.109   8.696  0.8473 -1.6068  2.1570
  146SAPE   C3316118   5.369  -0.125  10.248 -0.0175  0.2958  0.2711
  146SAPE   H3X16119   5.409  -0.024  10.274 -0.1948  0.2253  0.8174
  146SAPE   H3Y16120   5.259  -0.118  10.232 -0.3619 -2.0701  1.2252
  146SAPE   C3416121   5.441  -0.172  10.118  0.0571  0.1892 -0.6742
  146SAPE   H4X16122   5.421  -0.280  10.109 -1.1394  0.1239  1.8852
  146SAPE   H4Y16123   5.551  -0.164  10.132  0.0597 -1.7872  0.8925
  146SAPE   C3516124   5.386  -0.110   9.987 -0.0142 -0.0375  0.4555
  146SAPE   H5X16125   5.408  -0.001   9.992 -1.8248  0.4718 -1.3815
  146SAPE   H5Y16126   5.279  -0.138   9.984  0.0623 -0.3817  0.8223
  146SAPE   C3616127   5.457  -0.180   9.867  0.4664 -0.1672 -0.3500
  146SAPE   H6X16128   5.439  -0.290   9.866  1.6181 -0.3684 -1.2119
  146SAPE   H6Y16129   5.566  -0.166   9.884  0.6843 -1.7554 -0.2323
  146SAPE   C3716130   5.415  -0.122   9.734 -0.1175 -0.3557 -0.0812
  146SAPE   H7X16131   5.443  -0.015   9.725 -2.0061  0.5069  2.7884
  146SAPE   H7Y16132   5.305  -0.127   9.725 -0.2585  1.2390  0.4768
  146SAPE   C3816133   5.491  -0.172   9.611 -0.7044  0.5146 -0.2350
  146SAPE   H8X16134   5.485  -0.283   9.605 -2.3571  0.4183  1.8401
  146SAPE   H8Y16135   5.598  -0.152   9.631 -0.1080 -2.8586  0.5981
  146SAPE   C3916136   5.450  -0.111   9.481  0.0740 -0.3931 -0.4419
  146SAPE   H9X16137   5.454   0.000   9.480  0.5299 -0.4014 -0.0713
  146SAPE   H9Y16138   5.346  -0.140   9.456  0.6037 -1.7850 -1.1192
  146SAPE  C31016139   5.537  -0.141   9.358 -0.3465 -0.3423  0.1767
  146SAPE  H10X16140   5.546  -0.251   9.342  0.2491 -0.4726  1.3330
  146SAPE  H10Y16141   5.642  -0.107   9.373 -0.5549  0.1680  0.5006
  146SAPE  C31116142   5.480  -0.069   9.234 -0.8181 -0.2440 -0.4426
  146SAPE  H11X16143   5.497   0.040   9.250  0.3771 -0.6779  1.5758
  146SAPE  H11Y16144   5.370  -0.085   9.229 -1.0695  0.3687  1.8573
  146SAPE  C31216145   5.534  -0.102   9.094 -0.1142  0.5050  0.2667
  146SAPE  H12X16146   5.474  -0.051   9.015  0.0572 -3.9625 -3.1473
  146SAPE  H12Y16147   5.536  -0.212   9.081  1.9510  0.3706  1.3006
  146SAPE  C31316148   5.681  -0.053   9.081 -0.0694 -0.2961  0.1117
  146SAPE  H13X16149   5.735  -0.124   9.148 -1.2747 -1.2004  0.1468
  146SAPE  H13Y16150   5.696   0.044   9.133 -0.5239 -1.7481  3.1951
  146SAPE  C31416151   5.736  -0.049   8.938 -0.1817 -0.1210  0.6969
  146SAPE  H14X16152   5.836  -0.000   8.940 -1.0039  1.6095  1.8438
  146SAPE  H14Y16153   5.660   0.016   8.889 -0.6847 -1.9373 -1.0911
  146SAPE  C31516154   5.746  -0.186   8.875  0.1691  0.2026  0.0553
  146SAPE  H15X16155   5.645  -0.219   8.843  0.1434 -0.4268  0.7655
  146SAPE  H15Y16156   5.786  -0.257   8.951  0.6929 -2.4898 -2.5256
  146SAPE  C31616157   5.833  -0.181   8.748  0.0656  0.3461  0.6807
  146SAPE  H16X16158   5.936  -0.144   8.769  0.0960 -0.3006  1.7471
  146SAPE  H16Y16159   5.792  -0.109   8.674  3.8385  1.3389 -0.6797
  146SAPE  C31716160   5.859  -0.312   8.679  0.7332  0.1507  0.0352
  146SAPE  H17X16161   5.897  -0.284   8.578 -1.4120 -2.2175 -1.5489
  146SAPE  H17Y16162   5.763  -0.361   8.653 -0.4028  3.0207 -1.6574
  146SAPE  C31816163   5.965  -0.403   8.750  0.0482 -0.1913  0.3503
  146SAPE  H18X16164   5.967  -0.504   8.702  0.4275  1.0761 -2.5077
  146SAPE  H18Y16165   5.945  -0.413   8.859 -0.2163  1.3867  0.4744
  146SAPE  H18Z16166   6.065  -0.360   8.730 -0.3477  0.3900 -0.4302
  147SAPE     N16167   5.564   2.906  11.024  0.7172  0.2253  0.2983
  147SAPE   HN116168   5.611   2.949  11.106  0.8883  0.0144  0.3120
  147SAPE   HN216169   5.622   2.925  10.940  2.6447 -2.1002  0.9736
  147SAPE   HN316170   5.468   2.945  11.021  0.3006 -0.5315  2.2343
  147SAPE   C1216171   5.556   2.749  11.034  0.2423 -0.6497 -0.7420
  147SAPE  H12A16172   5.485   2.712  10.957  2.3032 -0.3324 -2.8836
  147SAPE  H12B16173   5.514   2.731  11.135  0.6720  1.5190 -0.1153
  147SAPE   C1116174   5.694   2.691  11.017 -0.5478  0.3012 -0.0132
  147SAPE  H11A16175   5.730   2.712  10.914  1.8799 -2.0821  0.2338
  147SAPE  H11B16176   5.695   2.580  11.013  0.8745  0.2648  0.7522
  147SAPE     P16177   5.923   2.651  11.128 -0.0100 -0.0550  0.4672
  147SAPE   O1316178   6.002   2.730  11.226 -0.0557 -0.2194 -0.6161
  147SAPE   O1416179   5.884   2.514  11.155 -0.9320 -0.4349  0.3989
  147SAPE   O1216180   5.786   2.729  11.116  1.0461 -0.0688 -0.4773
  147SAPE   O1116181   5.990   2.662  10.990 -0.4368 -0.1284  0.5161
  147SAPE    C116182   6.103   2.743  10.966 -0.9602 -0.1633  0.3936
  147SAPE    HA16183   6.096   2.811  10.878  1.6964 -0.1143  0.1440
  147SAPE    HB16184   6.122   2.815  11.049  0.2862  0.4578 -0.4047
  147SAPE    C216185   6.238   2.666  10.944 -0.0500  0.7459  0.5676
  147SAPE    HS16186   6.315   2.744  10.927 -1.4735  2.1122  0.1904
  147SAPE   O2116187   6.221   2.573  10.830  0.1786 -0.4258 -0.1268
  147SAPE   C2116188   6.229   2.639  10.721  0.4471 -0.0397 -0.7320
  147SAPE   O2216189   6.244   2.758  10.706  0.5248 -0.1144 -0.1446
  147SAPE   C2216190   6.211   2.552  10.593  0.0367 -0.0065 -0.0806
  147SAPE   H2R16191   6.251   2.449  10.603 -0.6305 -0.5303 -2.2517
  147SAPE   H2S16192   6.101   2.539  10.589 -0.0957  1.0013 -0.0229
  147SAPE    C316193   6.281   2.596  11.078  0.1287 -0.0716 -0.0979
  147SAPE    HX16194   6.201   2.527  11.113 -0.4907  0.0872 -1.1503
  147SAPE    HY16195   6.281   2.674  11.158 -0.4954 -0.0634 -0.1031
  147SAPE   O3116196   6.401   2.528  11.058 -0.9398  0.2084  0.0271
  147SAPE   C3116197   6.509   2.592  11.095  0.1465  0.4382 -0.0070
  147SAPE   O3216198   6.506   2.700  11.148 -0.4514  0.2263 -0.0555
  147SAPE   C3216199   6.638   2.512  11.081 -0.1018  0.2629 -0.1696
  147SAPE   H2X16200   6.609   2.405  11.091  1.2895 -0.0795  0.4353
  147SAPE   H2Y16201   6.717   2.538  11.156 -0.2485 -1.3974  0.6181
  147SAPE   C2316202   6.265   2.625  10.471 -0.8334 -0.3022 -0.0193
  147SAPE   H3R16203   6.232   2.731  10.472 -0.0240 -0.0370  1.4682
  147SAPE   H3S16204   6.226   2.564  10.387  1.0220 -1.8677  0.1821
  147SAPE   C2416205   6.420   2.622  10.479 -0.9190 -0.1488  0.1529
  147SAPE   H4R16206   6.462   2.657  10.575  1.9609 -2.0313 -0.2954
  147SAPE   H4S16207   6.449   2.689  10.396  0.5657  0.8741  1.4327
  147SAPE   C2516208   6.490   2.490  10.453 -0.2841 -0.1554  0.1909
  147SAPE   H5R16209   6.466   2.414  10.529 -1.1513  0.5435  0.6306
  147SAPE   C2616210   6.575   2.460  10.350  0.6075 -0.2790 -0.2737
  147SAPE   H6R16211   6.605   2.355  10.342 -1.3773 -0.7422 -3.5866
  147SAPE   C2716212   6.614   2.549  10.227 -0.2811  0.5048 -0.9872
  147SAPE   H7R16213   6.718   2.536  10.190  0.3832  0.2985  0.8743
  147SAPE   H7S16214   6.621   2.654  10.261 -1.7048  0.2573  0.1203
  147SAPE   C2816215   6.504   2.526  10.121  0.0726  0.0791  0.1601
  147SAPE   H8R16216   6.403   2.520  10.166  0.5373 -1.3218  1.0854
  147SAPE   C2916217   6.520   2.489   9.994  0.0790  0.6387 -0.3227
  147SAPE   H9R16218   6.433   2.473   9.929  1.0021 -2.5678 -0.9452
  147SAPE  C21016219   6.650   2.461   9.916 -0.1465 -0.3746  0.1059
  147SAPE  H10R16220   6.621   2.393   9.833 -1.6747 -0.6936  0.8644
  147SAPE  H10S16221   6.725   2.404   9.975  0.5742  0.9304  0.4844
  147SAPE  C21116222   6.712   2.592   9.863 -0.0967  0.1381 -0.2303
  147SAPE  H11R16223   6.795   2.634   9.922  0.4653 -0.4387 -0.5953
  147SAPE  C21216224   6.689   2.643   9.742  0.6121  0.2348  0.6722
  147SAPE  H12R16225   6.749   2.730   9.711  0.9350 -0.9430 -2.3674
  147SAPE  C21316226   6.601   2.591   9.632  0.7262  0.6874 -0.3543
  147SAPE  H13R16227   6.565   2.668   9.560  1.2724 -0.9425 -2.4429
  147SAPE  H13S16228   6.506   2.549   9.672  1.4531  0.7073  1.4952
  147SAPE  C21416229   6.666   2.484   9.541 -0.0497  0.7629  0.6465
  147SAPE  H14R16230   6.765   2.443   9.564 -0.4715 -1.6420 -1.3401
  147SAPE  C21516231   6.605   2.427   9.433  0.0215 -0.0772  0.0083
  147SAPE  H15R16232   6.656   2.350   9.374 -0.9264 -0.1192 -0.7746
  147SAPE  C21616233   6.466   2.458   9.387  0.0885 -0.3530 -0.9286
  147SAPE  H16R16234   6.439   2.565   9.400 -2.6816 -0.6545 -3.2797
  147SAPE  H16S16235   6.386   2.413   9.449  0.8799 -0.6927 -0.1196
  147SAPE  C21716236   6.439   2.448   9.238 -0.3622 -0.5157  0.3948
  147SAPE  H17R16237   6.334   2.484   9.226 -0.9373 -2.2039  0.1912
  147SAPE  H17S16238   6.449   2.348   9.192  0.8205 -0.7081  1.0228
  147SAPE  C21816239   6.538   2.547   9.160  0.7472 -0.8538 -0.7637
  147SAPE  H18R16240   6.645   2.519   9.173  0.7986 -0.3471 -0.0607
  147SAPE  H18S16241   6.527   2.648   9.204 -0.8421 -1.3860  0.1465
  147SAPE  C21916242   6.512   2.556   9.013 -0.3337  1.3372  0.0163
  147SAPE  H19R16243   6.409   2.519   8.991  0.2045  0.1212 -0.5248
  147SAPE  H19S16244   6.585   2.486   8.967 -0.4477 -0.0049  1.7718
  147SAPE  C22016245   6.529   2.699   8.961 -0.2691 -0.5806 -0.4339
  147SAPE  H20R16246   6.453   2.769   9.002  0.3950  0.4279 -0.8632
  147SAPE  H20S16247   6.529   2.706   8.850  1.0408  3.7913 -0.3796
  147SAPE  H20T16248   6.635   2.729   8.979 -1.1950  2.3702  0.7271
  147SAPE   C3316249   6.716   2.542  10.948  0.7970  0.7867  0.7479
  147SAPE   H3X16250   6.825   2.524  10.955  0.8025 -0.7181 -1.7406
  147SAPE   H3Y16251   6.685   2.648  10.935 -2.7818 -0.1034  0.9784
  147SAPE   C3416252   6.667   2.450  10.827  0.0631  0.2241 -0.4659
  147SAPE   H4X16253   6.560   2.479  10.813 -1.4875 -3.7412  1.5790
  147SAPE   H4Y16254   6.670   2.344  10.861 -0.0174  0.1605 -0.6570
  147SAPE   C3516255   6.754   2.482  10.707  0.1179 -0.1838  0.5122
  147SAPE   H5X16256   6.798   2.584  10.702 -1.2068  0.3756 -0.2568
  147SAPE   H5Y16257   6.702   2.473  10.609  4.5224 -0.2161 -2.0926
  147SAPE   C3616258   6.863   2.374  10.696  0.0712 -0.0409  0.1581
  147SAPE   H6X16259   6.907   2.343  10.793  1.0615  0.6931 -0.0388
  147SAPE   H6Y16260   6.935   2.438  10.641 -1.4792  0.9375 -0.8021
  147SAPE   C3716261   6.839   2.252  10.614 -0.4642 -1.1753 -0.4604
  147SAPE   H7X16262   6.819   2.280  10.508 -0.7595 -2.7101 -0.8432
  147SAPE   H7Y16263   6.746   2.196  10.638  1.5881 -3.6858  2.3271
  147SAPE   C3816264   6.963   2.159  10.614  0.4198  0.5225 -0.6513
  147SAPE   H8X16265   6.992   2.118  10.713 -1.4301  0.0649 -0.2498
  147SAPE   H8Y16266   7.052   2.213  10.577  0.8046 -1.1545 -2.3690
  147SAPE   C3916267   6.945   2.033  10.528 -0.8535 -1.0418  0.2807
  147SAPE   H9X16268   6.904   2.059  10.428 -3.2895  0.0194  1.4769
  147SAPE   H9Y16269   6.871   1.965  10.573  0.1021 -1.4970  1.2184
  147SAPE  C31016270   7.075   1.948  10.518 -1.0012 -0.1695  0.4041
  147SAPE  H10X16271   7.094   1.891  10.611 -1.6976 -1.3448 -0.1513
  147SAPE  H10Y16272   7.151   2.026  10.495 -2.1830  0.7620 -0.5158
  147SAPE  C31116273   7.070   1.858  10.395 -0.3172  0.1053  0.8717
  147SAPE  H11X16274   6.966   1.818  10.391 -1.5931  2.9086  2.7911
  147SAPE  H11Y16275   7.133   1.774  10.430 -0.3131 -0.0751  0.4328
  147SAPE  C31216276   7.119   1.929  10.270 -0.3163 -0.1872  0.0317
  147SAPE  H12X16277   7.230   1.931  10.273 -0.2652 -1.4470 -0.5430
  147SAPE  H12Y16278   7.081   2.034  10.268  1.6410  0.5513 -2.3604
  147SAPE  C31316279   7.084   1.863  10.137  0.4451 -0.3089 -0.3564
  147SAPE  H13X16280   6.979   1.891  10.114  0.0407 -1.5000 -0.0098
  147SAPE  H13Y16281   7.085   1.753  10.154 -2.0884 -0.7183 -2.1651
  147SAPE  C31416282   7.175   1.911  10.022 -0.2777  0.5847 -0.4552
  147SAPE  H14X16283   7.281   1.887  10.045 -0.0369 -0.9628 -2.8463
  147SAPE  H14Y16284   7.173   2.022  10.021  2.1909  0.7652  1.8261
  147SAPE  C31516285   7.136   1.850   9.888 -0.3565  0.1395  0.3367
  147SAPE  H15X16286   7.027   1.856   9.866 -0.8132  0.0201  2.3935
  147SAPE  H15Y16287   7.156   1.742   9.904  1.2315  0.3350 -0.2032
  147SAPE  C31616288   7.219   1.893   9.769  0.2573  0.3777  0.7127
  147SAPE  H16X16289   7.326   1.899   9.799  0.2821  0.9009  0.5309
  147SAPE  H16Y16290   7.185   1.994   9.738 -1.4073 -0.6537 -1.0686
  147SAPE  C31716291   7.200   1.772   9.665  0.6736  0.1548  0.0544
  147SAPE  H17X16292   7.094   1.780   9.634  1.4666  3.0946 -2.4916
  147SAPE  H17Y16293   7.230   1.677   9.714 -1.3389 -0.0032  1.1035
  147SAPE  C31816294   7.270   1.792   9.536  0.3246 -0.0522  0.4245
  147SAPE  H18X16295   7.251   1.712   9.462 -0.3066  0.6474 -0.1801
  147SAPE  H18Y16296   7.378   1.803   9.561  0.4427 -0.4091  0.0886
  147SAPE  H18Z16297   7.231   1.880   9.481  1.5145 -0.2382 -0.7707
  148SAPE     N16298   1.365   3.707  10.947 -0.2186  0.1789  0.0380
  148SAPE   HN116299   1.327   3.743  11.037  0.7877 -1.2282  1.0724
  148SAPE   HN216300   1.332   3.608  10.946 -2.8316  0.9287  1.5053
  148SAPE   HN316301   1.467   3.698  10.963 -0.6459 -1.8309  2.2146
  148SAPE   C1216302   1.323   3.794  10.826  0.1374  0.0791  0.1151
  148SAPE  H12A16303   1.305   3.721  10.744 -0.4775 -0.0010  0.3208
  148SAPE  H12B16304   1.416   3.849  10.800  0.0332 -0.3700 -1.3274
  148SAPE   C1116305   1.208   3.888  10.845 -0.6141  0.4081 -0.6485
  148SAPE  H11A16306   1.223   3.931  10.947 -1.2823 -0.4658 -0.1641
  148SAPE  H11B16307   1.114   3.828  10.848 -0.2574 -0.2684 -2.2044
  148SAPE     P16308   1.256   4.126  10.756 -0.0298  0.2622 -0.1707
  148SAPE   O1316309   1.375   4.115  10.846  0.3048 -0.5825  0.3866
  148SAPE   O1416310   1.275   4.192  10.624 -0.7765  0.1906  0.3524
  148SAPE   O1216311   1.198   3.981  10.742 -0.0022 -0.1041 -0.3301
  148SAPE   O1116312   1.146   4.206  10.844 -0.1791 -0.0198  0.1527
  148SAPE    C116313   1.007   4.159  10.847 -0.6622 -0.3745 -1.0409
  148SAPE    HA16314   1.001   4.054  10.885  1.6931  0.4156  1.9173
  148SAPE    HB16315   0.963   4.210  10.936  2.3278 -0.8011  0.8208
  148SAPE    C216316   0.936   4.160  10.708 -0.0493 -0.3281 -0.2607
  148SAPE    HS16317   0.965   4.064  10.660  2.9043  0.9838 -1.3146
  148SAPE   O2116318   0.972   4.279  10.632  0.3766  0.1549  0.2573
  148SAPE   C2116319   1.006   4.264  10.506  0.0479 -0.0702 -0.4672
  148SAPE   O2216320   1.006   4.160  10.441  0.2766 -0.1414 -0.6757
  148SAPE   C2216321   1.028   4.397  10.435  0.6006  0.0353 -0.2385
  148SAPE   H2R16322   1.131   4.434  10.455  0.0945  1.5078 -0.2987
  148SAPE   H2S16323   1.015   4.382  10.326 -1.6805 -1.9816  0.2235
  148SAPE    C316324   0.776   4.157  10.720 -0.1673  0.0518 -0.5160
  148SAPE    HX16325   0.745   4.260  10.749  0.0627  0.2206 -0.8585
  148SAPE    HY16326   0.755   4.084  10.801 -1.0949  0.3745 -0.4591
  148SAPE   O3116327   0.730   4.126  10.593  0.0379 -0.6097  0.6320
  148SAPE   C3116328   0.726   4.000  10.561  0.0459 -0.5174 -0.1308
  148SAPE   O3216329   0.746   3.910  10.645  0.3651  0.2847  0.0434
  148SAPE   C3216330   0.674   3.974  10.417 -0.8530 -0.8865 -0.2822
  148SAPE   H2X16331   0.703   4.062  10.356  1.1943 -1.5018 -0.2698
  148SAPE   H2Y16332   0.564   3.968  10.428 -0.9047  2.1689  1.7752
  148SAPE   C2316333   0.934   4.505  10.496 -0.0627 -0.0841 -0.7043
  148SAPE   H3R16334   0.961   4.558  10.590  2.0253  2.7818 -2.7378
  148SAPE   H3S16335   0.834   4.464  10.521 -0.3064  1.1910  0.5189
  148SAPE   C2416336   0.900   4.618  10.399  0.3694 -0.4116 -0.1797
  148SAPE   H4R16337   0.815   4.680  10.435 -0.0400 -1.2557  0.3311
  148SAPE   H4S16338   0.852   4.578  10.307 -1.8240  0.5807  0.4654
  148SAPE   C2516339   1.011   4.721  10.366  0.1661  0.6448  0.2003
  148SAPE   H5R16340   1.058   4.770  10.452 -0.0527  1.4998 -0.1645
  148SAPE   C2616341   1.035   4.770  10.243  0.1672  0.3901  0.2611
  148SAPE   H6R16342   1.119   4.841  10.236  0.3043  0.1899 -0.1251
  148SAPE   C2716343   0.963   4.734  10.111 -0.1155 -0.1052  0.3423
  148SAPE   H7R16344   0.909   4.821  10.070  0.6291  0.0184 -0.3895
  148SAPE   H7S16345   0.880   4.665  10.138 -2.4550  2.2016 -0.5133
  148SAPE   C2816346   1.054   4.678  10.004  0.5375 -0.0475  0.0642
  148SAPE   H8R16347   1.124   4.598  10.031  0.0755 -1.0526 -1.5626
  148SAPE   C2916348   1.068   4.717   9.875  1.0179  0.4643 -0.2573
  148SAPE   H9R16349   1.149   4.670   9.818  0.8260 -0.6630  0.3669
  148SAPE  C21016350   0.986   4.825   9.806 -0.0137 -0.3940 -0.3657
  148SAPE  H10R16351   0.992   4.921   9.863 -0.1327 -0.5032 -0.1686
  148SAPE  H10S16352   0.878   4.802   9.797 -0.0899 -0.0629 -0.2960
  148SAPE  C21116353   1.055   4.849   9.673 -0.8555  0.1766 -0.7970
  148SAPE  H11R16354   1.159   4.885   9.673 -0.9252  0.4254  0.3802
  148SAPE  C21216355   0.999   4.845   9.550 -0.9004 -0.3131 -0.0180
  148SAPE  H12R16356   1.066   4.856   9.464  0.2790 -1.6655  0.6851
  148SAPE  C21316357   0.861   4.808   9.500  0.4384  0.4085  0.2730
  148SAPE  H13R16358   0.811   4.896   9.456 -1.3400 -1.1025 -0.8501
  148SAPE  H13S16359   0.796   4.778   9.585  0.1039 -1.4645 -0.5998
  148SAPE  C21416360   0.864   4.695   9.396  0.2418 -0.7814 -0.6887
  148SAPE  H14R16361   0.862   4.599   9.448  2.3586 -1.9242 -2.5125
  148SAPE  C21516362   0.878   4.695   9.262 -0.4524 -0.9642  0.2346
  148SAPE  H15R16363   0.864   4.600   9.209  1.6188 -0.5119 -1.2788
  148SAPE  C21616364   0.891   4.820   9.181  0.1508 -0.2209 -0.0137
  148SAPE  H16R16365   0.852   4.909   9.235  0.4635 -0.7323  1.0792
  148SAPE  H16S16366   0.826   4.811   9.091 -0.7247 -1.9950  0.7575
  148SAPE  C21716367   1.030   4.859   9.132 -0.5995 -0.0591 -0.1850
  148SAPE  H17R16368   1.053   4.771   9.068 -0.7971 -1.1136  1.1442
  148SAPE  H17S16369   1.106   4.871   9.213 -0.6080  0.7368 -0.2906
  148SAPE  C21816370   1.024   4.982   9.043  0.2352 -0.2814 -0.3116
  148SAPE  H18R16371   1.011   5.071   9.108 -2.0120 -0.8390  0.0938
  148SAPE  H18S16372   0.936   4.975   8.976  2.2480  0.2190 -3.1956
  148SAPE  C21916373   1.148   5.010   8.959  0.1392  0.8669  0.0823
  148SAPE  H19R16374   1.183   4.911   8.923 -0.2252  0.5216  0.6489
  148SAPE  H19S16375   1.229   5.033   9.032  0.2532  0.3881  0.1157
  148SAPE  C22016376   1.150   5.130   8.860  0.3807  0.6490 -0.6749
  148SAPE  H20R16377   1.248   5.129   8.806 -0.6758 -0.9354 -2.7218
  148SAPE  H20S16378   1.136   5.225   8.916 -0.1958 -0.8281  1.8596
  148SAPE  H20T16379   1.062   5.120   8.794  0.7574  1.0811 -1.2489
  148SAPE   C3316380   0.733   3.845  10.342  0.4528 -0.6046 -0.5021
  148SAPE   H3X16381   0.707   3.753  10.399 -0.2939  0.4494  0.9422
  148SAPE   H3Y16382   0.844   3.847  10.348  0.3843 -0.6147  1.2576
  148SAPE   C3416383   0.702   3.847  10.195 -0.0267  0.2648  0.3786
  148SAPE   H4X16384   0.749   3.931  10.138 -1.1984  0.7064  0.0407
  148SAPE   H4Y16385   0.596   3.876  10.181  0.4139  0.8057 -2.6015
  148SAPE   C3516386   0.748   3.717  10.115 -0.0255  0.2516 -0.3708
  148SAPE   H5X16387   0.726   3.736  10.008  1.7551  0.7553 -0.6820
  148SAPE   H5Y16388   0.674   3.639  10.143  0.8746  0.1028  1.8148
  148SAPE   C3616389   0.895   3.664  10.131  0.0878 -0.4268  0.1524
  148SAPE   H6X16390   0.909   3.576  10.065  0.6848 -0.5508  0.4307
  148SAPE   H6Y16391   0.924   3.641  10.236 -0.2754 -2.0905 -0.0881
  148SAPE   C3716392   0.995   3.769  10.086  0.0862  0.0515  0.0488
  148SAPE   H7X16393   1.099   3.730  10.094  0.3431  0.3729 -1.5145
  148SAPE   H7Y16394   0.988   3.855  10.157  0.4514 -0.2214  0.4256
  148SAPE   C3816395   0.985   3.825   9.942  0.9365 -0.7458  0.1149
  148SAPE   H8X16396   1.054   3.911   9.941 -0.7274  0.6509 -0.7163
  148SAPE   H8Y16397   0.892   3.879   9.915  0.8894 -0.9934 -0.2291
  148SAPE   C3916398   1.027   3.721   9.833  0.3107 -0.4516  0.3069
  148SAPE   H9X16399   0.945   3.649   9.812  1.6963 -1.9036 -0.2623
  148SAPE   H9Y16400   1.107   3.652   9.868  0.8245  0.2533  0.5503
  148SAPE  C31016401   1.066   3.788   9.706 -0.3603 -0.0643 -0.1954
  148SAPE  H10X16402   1.134   3.874   9.723 -0.0023 -0.2400 -0.7461
  148SAPE  H10Y16403   0.976   3.841   9.666 -0.3325 -0.0523 -0.2409
  148SAPE  C31116404   1.127   3.701   9.603  0.0270 -0.1577  0.7107
  148SAPE  H11X16405   1.073   3.605   9.592  0.3528 -0.2343 -0.2496
  148SAPE  H11Y16406   1.228   3.672   9.639 -0.5320 -0.5419  2.0425
  148SAPE  C31216407   1.136   3.763   9.456 -0.4805 -0.0467  0.3062
  148SAPE  H12X16408   1.169   3.869   9.467  0.5393 -0.1896 -1.0113
  148SAPE  H12Y16409   1.031   3.760   9.421 -0.8193 -0.8218  1.3793
  148SAPE  C31316410   1.221   3.682   9.349  0.5226 -0.6002 -0.1130
  148SAPE  H13X16411   1.187   3.577   9.342  1.6352 -0.8699 -1.9705
  148SAPE  H13Y16412   1.326   3.695   9.383  0.4945  0.5441 -0.4175
  148SAPE  C31416413   1.221   3.742   9.211 -0.2534  0.3353 -0.1746
  148SAPE  H14X16414   1.279   3.836   9.220 -2.4553  2.1529 -2.9983
  148SAPE  H14Y16415   1.121   3.782   9.182 -0.9695  0.6063  2.3762
  148SAPE  C31516416   1.285   3.662   9.100  0.2440 -0.3823  0.6254
  148SAPE  H15X16417   1.385   3.617   9.119  1.0657  1.0374 -0.1635
  148SAPE  H15Y16418   1.289   3.728   9.010  1.0170 -0.9300  0.2471
  148SAPE  C31616419   1.200   3.546   9.046 -0.1644 -0.3512 -0.4348
  148SAPE  H16X16420   1.167   3.488   9.135 -0.7621 -0.8311 -0.9654
  148SAPE  H16Y16421   1.270   3.494   8.977  0.4005 -1.1099  0.6935
  148SAPE  C31716422   1.071   3.589   8.973  0.2383  0.3248 -0.4681
  148SAPE  H17X16423   1.103   3.652   8.887  3.4640 -0.9063 -0.2955
  148SAPE  H17Y16424   1.010   3.647   9.045  0.1108  2.0199 -1.8860
  148SAPE  C31816425   0.972   3.477   8.932  0.6442 -0.2421  0.5587
  148SAPE  H18X16426   1.020   3.408   8.860  1.0191 -1.8651  2.3072
  148SAPE  H18Y16427   0.885   3.532   8.889  1.0992  0.2735  0.2824
  148SAPE  H18Z16428   0.928   3.419   9.015 -1.3475 -0.9143 -0.8791
  149SAPE     N16429   4.644   6.133  11.130 -0.5294 -0.5069 -0.4651
  149SAPE   HN116430   4.631   6.116  11.028  0.6550 -1.9302 -0.4044
  149SAPE   HN216431   4.676   6.232  11.138 -2.4466  0.2857 -1.6423
  149SAPE   HN316432   4.706   6.059  11.168 -1.4502 -0.9897  0.1230
  149SAPE   C1216433   4.515   6.147  11.201  0.2657  0.5020 -0.5140
  149SAPE  H12A16434   4.492   6.041  11.225  1.2825  0.3116 -0.3397
  149SAPE  H12B16435   4.445   6.173  11.118 -0.1375 -4.1669 -1.9390
  149SAPE   C1116436   4.522   6.258  11.308  0.3688  0.2422 -0.4207
  149SAPE  H11A16437   4.607   6.240  11.377 -1.0100 -2.3788  0.7541
  149SAPE  H11B16438   4.435   6.244  11.376 -0.6945 -2.8347 -2.1772
  149SAPE     P16439   4.664   6.461  11.237 -0.2531  0.1814  0.3174
  149SAPE   O1316440   4.692   6.511  11.375  1.3187  0.1495 -0.1580
  149SAPE   O1416441   4.751   6.367  11.167  0.2778  0.5647  0.5528
  149SAPE   O1216442   4.530   6.385  11.245  0.0689  0.8505 -0.5814
  149SAPE   O1116443   4.616   6.580  11.146  0.0255  0.3374  0.2331
  149SAPE    C116444   4.522   6.591  11.041 -0.2933 -0.0939  0.1995
  149SAPE    HA16445   4.421   6.580  11.084 -0.4757 -1.7140 -0.5245
  149SAPE    HB16446   4.524   6.691  10.993  0.2654  0.7258  1.8761
  149SAPE    C216447   4.536   6.483  10.938  0.3882 -0.0189 -0.1266
  149SAPE    HS16448   4.490   6.394  10.986 -0.7266  1.1581  1.0785
  149SAPE   O2116449   4.669   6.470  10.894  0.0817 -0.1312 -0.1267
  149SAPE   C2116450   4.700   6.344  10.867  0.4704 -0.3297 -0.3988
  149SAPE   O2216451   4.633   6.246  10.891 -0.6497  0.2331 -0.1363
  149SAPE   C2216452   4.833   6.352  10.782 -1.0788  0.0254 -0.8978
  149SAPE   H2R16453   4.799   6.396  10.686  0.0977  0.5922 -1.0806
  149SAPE   H2S16454   4.903   6.425  10.828  0.6825 -2.1956  0.1529
  149SAPE    C316455   4.444   6.508  10.816 -0.7334 -0.1493 -0.0390
  149SAPE    HX16456   4.487   6.591  10.757 -1.8559 -0.8683 -1.9654
  149SAPE    HY16457   4.349   6.551  10.853 -0.8277  2.5458 -2.9419
  149SAPE   O3116458   4.423   6.386  10.741  0.3815  0.1423  0.1807
  149SAPE   C3116459   4.472   6.381  10.613  0.4163 -0.1855 -0.1141
  149SAPE   O3216460   4.506   6.476  10.550 -0.4106 -0.2988  0.3165
  149SAPE   C3216461   4.467   6.242  10.560 -0.7492  0.6242  0.1403
  149SAPE   H2X16462   4.382   6.189  10.606 -0.5393 -1.8011 -2.0203
  149SAPE   H2Y16463   4.552   6.178  10.592  1.0907  0.8890 -3.5937
  149SAPE   C2316464   4.902   6.216  10.771 -0.4111 -0.4059 -0.0955
  149SAPE   H3R16465   4.831   6.135  10.799  0.0288 -0.5859  0.4980
  149SAPE   H3S16466   4.991   6.215  10.837 -1.4368  1.8884  1.4809
  149SAPE   C2416467   4.934   6.191  10.620 -0.7275 -0.1743 -0.5880
  149SAPE   H4R16468   4.978   6.278  10.567 -1.7841  1.0392  0.4430
  149SAPE   H4S16469   4.836   6.175  10.570 -0.1695 -2.1153 -1.1266
  149SAPE   C2516470   5.011   6.068  10.586 -0.6837  0.2924 -0.0262
  149SAPE   H5R16471   4.992   5.980  10.649  0.1226  0.0344 -0.1363
  149SAPE   C2616472   5.110   6.067  10.492 -0.1220  0.9943 -0.1433
  149SAPE   H6R16473   5.172   5.976  10.488  0.2647  1.2173  0.4879
  149SAPE   C2716474   5.150   6.176  10.390 -0.6112 -0.1203 -0.0100
  149SAPE   H7R16475   5.245   6.146  10.340  1.2203 -3.1215  4.5484
  149SAPE   H7S16476   5.179   6.272  10.438  0.6615 -0.3245 -0.3218
  149SAPE   C2816477   5.043   6.195  10.289 -0.3770  0.8658 -0.0699
  149SAPE   H8R16478   4.943   6.171  10.328  0.5286 -0.4924  1.5509
  149SAPE   C2916479   5.064   6.234  10.159 -0.5912 -0.0427  0.0898
  149SAPE   H9R16480   4.987   6.234  10.080  0.9630  2.3375 -1.5333
  149SAPE  C21016481   5.205   6.263  10.095  0.2243 -0.7525 -1.3338
  149SAPE  H10R16482   5.291   6.260  10.165 -0.6590 -1.1074 -0.2311
  149SAPE  H10S16483   5.206   6.371  10.069 -0.1375  0.1725  2.0091
  149SAPE  C21116484   5.242   6.167   9.988 -0.6787  0.7890 -0.1041
  149SAPE  H11R16485   5.300   6.081  10.026  1.1392  1.6370 -0.8069
  149SAPE  C21216486   5.205   6.159   9.858 -0.0222  0.6387 -0.9354
  149SAPE  H12R16487   5.250   6.083   9.793 -1.2784 -0.8054 -0.1680
  149SAPE  C21316488   5.115   6.251   9.791 -0.3638 -0.0571 -1.0145
  149SAPE  H13R16489   5.172   6.337   9.748 -1.0958  1.2133  0.4446
  149SAPE  H13S16490   5.061   6.303   9.873  0.4246 -0.8540  0.0233
  149SAPE  C21416491   5.016   6.168   9.709 -0.0583  0.7650  0.5265
  149SAPE  H14R16492   4.946   6.102   9.763  1.8014 -0.8312  1.1044
  149SAPE  C21516493   5.001   6.170   9.577 -0.5322 -0.0633  0.1083
  149SAPE  H15R16494   4.936   6.095   9.531  0.1518 -0.2383 -0.5922
  149SAPE  C21616495   5.097   6.236   9.481  0.2297  0.8526  0.1145
  149SAPE  H16R16496   5.123   6.166   9.399 -2.7178 -0.7894  0.3982
  149SAPE  H16S16497   5.196   6.258   9.526  0.2396  0.1698  0.4425
  149SAPE  C21716498   5.049   6.364   9.414  0.0162 -0.3298  0.2115
  149SAPE  H17R16499   5.052   6.447   9.488  1.6406 -0.0127 -0.1577
  149SAPE  H17S16500   4.943   6.358   9.382  0.1710  0.6925 -0.5483
  149SAPE  C21816501   5.127   6.412   9.290 -0.7010  1.1532  0.5839
  149SAPE  H18R16502   5.235   6.428   9.313 -1.3139  0.5611  4.5672
  149SAPE  H18S16503   5.088   6.516   9.284  0.4392  1.8145  3.2764
  149SAPE  C21916504   5.098   6.338   9.156  0.1913  0.6349  0.6315
  149SAPE  H19R16505   4.988   6.344   9.148 -0.2822  0.6577  5.0459
  149SAPE  H19S16506   5.130   6.232   9.159  0.6964  0.6011 -2.5937
  149SAPE  C22016507   5.183   6.389   9.037 -0.6555  0.1968  0.6198
  149SAPE  H20R16508   5.289   6.384   9.069 -0.2747  1.4245 -0.3706
  149SAPE  H20S16509   5.163   6.496   9.017  1.7766  0.4154 -1.1132
  149SAPE  H20T16510   5.177   6.328   8.944  1.5002 -1.3829  1.4213
  149SAPE   C3316511   4.492   6.230  10.410  0.5087 -0.0837  0.1894
  149SAPE   H3X16512   4.465   6.327  10.362  0.4310  0.4250  1.2430
  149SAPE   H3Y16513   4.424   6.154  10.365  0.9549 -0.7942  0.7078
  149SAPE   C3416514   4.630   6.189  10.374 -0.7305  0.0204 -0.5403
  149SAPE   H4X16515   4.675   6.103  10.428 -1.2903 -0.6009 -1.0445
  149SAPE   H4Y16516   4.694   6.279  10.391 -0.1246 -0.0317 -2.3372
  149SAPE   C3516517   4.651   6.153  10.229 -0.0267 -0.3411  0.9055
  149SAPE   H5X16518   4.613   6.050  10.214  1.7243 -0.7900 -0.8367
  149SAPE   H5Y16519   4.760   6.153  10.212 -0.2079  1.1286 -0.4931
  149SAPE   C3616520   4.603   6.247  10.112  0.5136 -0.5218  0.0564
  149SAPE   H6X16521   4.641   6.347  10.142 -1.3560  0.2211  0.0320
  149SAPE   H6Y16522   4.494   6.261  10.127  0.2757 -1.4943 -0.6846
  149SAPE   C3716523   4.653   6.210   9.975 -0.5956  0.0590 -0.1875
  149SAPE   H7X16524   4.635   6.101   9.961  4.1449 -0.8287 -1.3548
  149SAPE   H7Y16525   4.764   6.215   9.974 -0.5939  0.0106 -0.2848
  149SAPE   C3816526   4.585   6.290   9.868 -0.2170  0.4619  0.1079
  149SAPE   H8X16527   4.608   6.398   9.881  2.0205 -0.0656  0.8067
  149SAPE   H8Y16528   4.474   6.295   9.882 -0.1817  0.3376  0.4287
  149SAPE   C3916529   4.602   6.237   9.720 -0.3527  0.1153  0.3663
  149SAPE   H9X16530   4.579   6.128   9.725 -2.3010  0.5298  1.8035
  149SAPE   H9Y16531   4.711   6.253   9.710 -0.6860  0.9606 -2.6225
  149SAPE  C31016532   4.528   6.306   9.608  0.1273  0.3712 -0.0086
  149SAPE  H10X16533   4.538   6.416   9.621  1.0339  0.2014  0.8162
  149SAPE  H10Y16534   4.422   6.278   9.623  0.2337  0.1914  0.4085
  149SAPE  C31116535   4.568   6.265   9.467 -0.6120 -0.0428 -0.0798
  149SAPE  H11X16536   4.547   6.157   9.453 -0.9818  0.2164 -1.8652
  149SAPE  H11Y16537   4.675   6.285   9.445 -0.2577 -1.9310 -0.2082
  149SAPE  C31216538   4.479   6.338   9.366 -0.7604  0.0585  0.2609
  149SAPE  H12X16539   4.487   6.449   9.358 -1.2418  0.1364  0.8690
  149SAPE  H12Y16540   4.377   6.319   9.406 -0.8537 -0.7882 -0.3418
  149SAPE  C31316541   4.485   6.279   9.227  0.1073  0.9555  0.9522
  149SAPE  H13X16542   4.515   6.172   9.228  1.1519  1.1826 -0.7432
  149SAPE  H13Y16543   4.559   6.327   9.159 -0.8737 -0.2272 -1.0483
  149SAPE  C31416544   4.351   6.286   9.154  0.3970  0.0874 -0.6325
  149SAPE  H14X16545   4.319   6.392   9.152  2.4056  0.8075  0.9512
  149SAPE  H14Y16546   4.275   6.227   9.210 -0.5658  2.3983  0.6563
  149SAPE  C31516547   4.350   6.239   9.012 -0.1076  0.1162  0.1909
  149SAPE  H15X16548   4.404   6.142   9.005  0.8036  0.6050  0.3150
  149SAPE  H15Y16549   4.406   6.307   8.945  1.4882 -0.0679  1.2972
  149SAPE  C31616550   4.215   6.210   8.953 -0.2170  0.1065 -0.5247
  149SAPE  H16X16551   4.188   6.106   8.981  4.4880 -1.4566 -0.8510
  149SAPE  H16Y16552   4.227   6.197   8.843 -0.6502  2.2657 -0.8704
  149SAPE  C31716553   4.115   6.314   8.992  0.2632  0.7527  0.7669
  149SAPE  H17X16554   4.156   6.416   9.008  2.3787  0.0142  0.3720
  149SAPE  H17Y16555   4.064   6.281   9.085 -1.6883  2.7262  0.4775
  149SAPE  C31816556   4.007   6.328   8.881  0.5497 -0.6702  0.0303
  149SAPE  H18X16557   4.058   6.335   8.783 -1.1163 -1.6682 -0.9521
  149SAPE  H18Y16558   3.939   6.415   8.894  0.5839 -0.4550 -1.1057
  149SAPE  H18Z16559   3.946   6.235   8.885 -1.0886  0.4059  1.6391
  150SAPE     N16560   6.567   5.633  11.328  0.3721 -0.3201 -0.1647
  150SAPE   HN116561   6.475   5.647  11.374  0.3375 -1.5128  0.1512
  150SAPE   HN216562   6.579   5.531  11.317  1.0257 -0.0311 -2.9494
  150SAPE   HN316563   6.640   5.669  11.392 -0.2898 -2.3559  1.8839
  150SAPE   C1216564   6.550   5.705  11.196 -0.6234 -0.1227 -0.5501
  150SAPE  H12A16565   6.639   5.685  11.133 -0.2602  0.3774 -0.2117
  150SAPE  H12B16566   6.546   5.815  11.212 -3.5847  0.1283 -2.3621
  150SAPE   C1116567   6.422   5.671  11.127  0.6527  0.2003  0.2853
  150SAPE  H11A16568   6.404   5.563  11.109 -0.1069  0.0643  1.7370
  150SAPE  H11B16569   6.430   5.713  11.025  1.1810 -0.7309 -0.0731
  150SAPE     P16570   6.258   5.869  11.149  0.0707  0.0723  0.0870
  150SAPE   O1316571   6.159   5.925  11.242  0.7122  0.4331 -0.3877
  150SAPE   O1416572   6.371   5.963  11.111 -0.0409  0.0167  0.4852
  150SAPE   O1216573   6.322   5.734  11.206 -0.3448  0.3298  0.5358
  150SAPE   O1116574   6.177   5.841  11.009 -0.4026  0.2236  0.5786
  150SAPE    C116575   6.060   5.761  11.003 -0.2071  0.4316 -0.4898
  150SAPE    HA16576   6.006   5.755  11.099  0.9206  0.3145  0.1579
  150SAPE    HB16577   5.984   5.807  10.937 -1.9673 -1.4663  0.0893
  150SAPE    C216578   6.085   5.612  10.966  0.4518 -0.1848 -0.0276
  150SAPE    HS16579   6.128   5.564  11.057 -0.2589 -1.5653 -0.3900
  150SAPE   O2116580   6.161   5.608  10.849  0.2152  0.0486 -0.8623
  150SAPE   C2116581   6.217   5.490  10.831 -0.0873 -0.6051 -0.2463
  150SAPE   O2216582   6.210   5.394  10.908  0.2555  0.3974 -0.9874
  150SAPE   C2216583   6.298   5.492  10.706  0.1673 -0.5360  0.1173
  150SAPE   H2R16584   6.285   5.588  10.653  1.3809  0.2259  1.1622
  150SAPE   H2S16585   6.405   5.474  10.727  0.6077 -0.2277 -1.7140
  150SAPE    C316586   5.943   5.546  10.953 -0.2968  0.1912  0.2318
  150SAPE    HX16587   5.892   5.563  11.050 -0.4476 -0.1206  0.2112
  150SAPE    HY16588   5.956   5.436  10.959  0.3755  0.3050  0.9651
  150SAPE   O3116589   5.854   5.599  10.851  0.2625  0.0695  0.4588
  150SAPE   C3116590   5.882   5.544  10.730  0.4948 -0.7448 -0.3126
  150SAPE   O3216591   5.946   5.440  10.711  0.2074  0.1858 -0.2689
  150SAPE   C3216592   5.825   5.616  10.609 -0.3149  0.3725 -0.0609
  150SAPE   H2X16593   5.772   5.708  10.644  1.8055  0.9701  1.7747
  150SAPE   H2Y16594   5.754   5.539  10.573  0.1997 -0.1467  0.0305
  150SAPE   C2316595   6.246   5.374  10.616 -0.2917  0.2688 -0.1362
  150SAPE   H3R16596   6.138   5.388  10.591 -0.6908 -0.6731  0.9626
  150SAPE   H3S16597   6.252   5.273  10.662  0.2871  0.0255 -0.7419
  150SAPE   C2416598   6.334   5.368  10.484  0.4987 -0.5874 -0.1769
  150SAPE   H4R16599   6.293   5.277  10.435 -1.0616  0.6937 -1.3798
  150SAPE   H4S16600   6.440   5.347  10.508 -0.0732 -0.8007  2.4626
  150SAPE   C2516601   6.308   5.487  10.390  0.0550  0.3481  0.3790
  150SAPE   H5R16602   6.212   5.537  10.413  0.7281  1.4308  0.9153
  150SAPE   C2616603   6.391   5.529  10.296  0.3010 -0.0170 -0.4723
  150SAPE   H6R16604   6.376   5.620  10.237  2.0728 -0.6546 -2.0347
  150SAPE   C2716605   6.528   5.464  10.259 -0.8641 -0.0953  0.4426
  150SAPE   H7R16606   6.526   5.357  10.291 -0.4405 -0.4326 -0.6219
  150SAPE   H7S16607   6.613   5.509  10.315  0.4142 -0.1825 -1.3632
  150SAPE   C2816608   6.554   5.456  10.104  0.7767 -0.1972  0.7637
  150SAPE   H8R16609   6.472   5.409  10.048  0.6224  1.8113 -0.8259
  150SAPE   C2916610   6.663   5.495  10.038 -0.0237  1.6434 -0.3305
  150SAPE   H9R16611   6.653   5.485   9.929  0.7489  1.4651 -0.3923
  150SAPE  C21016612   6.791   5.553  10.089 -0.3738 -0.5639  0.1995
  150SAPE  H10R16613   6.865   5.566  10.007 -0.8260 -2.8611 -0.6672
  150SAPE  H10S16614   6.840   5.481  10.158 -1.4136 -1.9530 -0.4435
  150SAPE  C21116615   6.771   5.684  10.171  0.2032 -0.5234 -0.0159
  150SAPE  H11R16616   6.797   5.685  10.278  1.3793 -0.0114 -0.2897
  150SAPE  C21216617   6.694   5.789  10.130 -0.8128 -0.6108  0.5847
  150SAPE  H12R16618   6.685   5.880  10.192  2.7064 -1.9568  3.4038
  150SAPE  C21316619   6.645   5.798   9.987  0.1382  0.3667  0.0730
  150SAPE  H13R16620   6.550   5.744   9.968  0.2602 -0.3893  1.4587
  150SAPE  H13S16621   6.709   5.748   9.912 -0.8851  1.0173 -1.2714
  150SAPE  C21416622   6.629   5.943   9.955  1.0052 -0.0169  0.0465
  150SAPE  H14R16623   6.596   6.005  10.040  0.2434  2.0592 -1.6955
  150SAPE  C21516624   6.615   5.984   9.830 -0.7205 -0.7798 -0.1722
  150SAPE  H15R16625   6.590   6.089   9.811  0.7321 -0.4390 -0.3328
  150SAPE  C21616626   6.635   5.911   9.695 -0.3334 -0.3695  0.9325
  150SAPE  H16R16627   6.574   5.951   9.612  1.0043 -0.7136 -0.2513
  150SAPE  H16S16628   6.597   5.807   9.711  0.1788 -0.7361 -0.1648
  150SAPE  C21716629   6.777   5.908   9.652 -0.5293 -0.1626 -0.1737
  150SAPE  H17R16630   6.793   5.824   9.580  0.2506 -0.5766  0.4674
  150SAPE  H17S16631   6.837   5.888   9.743  0.0517 -0.2910 -0.5714
  150SAPE  C21816632   6.825   6.036   9.593 -0.0872 -0.2252  0.5619
  150SAPE  H18R16633   6.842   6.121   9.662 -0.9871  0.2663  0.1988
  150SAPE  H18S16634   6.757   6.071   9.513  1.8880  1.3164 -0.5164
  150SAPE  C21916635   6.955   6.004   9.505 -0.1935  0.5542 -0.3437
  150SAPE  H19R16636   6.923   5.925   9.435 -2.8539  0.2384  1.1006
  150SAPE  H19S16637   7.031   5.955   9.569 -0.2160 -3.3002 -2.9386
  150SAPE  C22016638   7.028   6.112   9.429  0.1485  0.0527 -0.1976
  150SAPE  H20R16639   6.978   6.210   9.446 -0.5724 -0.2188 -0.6973
  150SAPE  H20S16640   7.024   6.087   9.321  1.6509 -2.2668  0.2083
  150SAPE  H20T16641   7.133   6.131   9.459  0.2924  0.3158 -0.8493
  150SAPE   C3316642   5.926   5.642  10.498 -0.1605  0.5639 -0.3296
  150SAPE   H3X16643   5.970   5.548  10.459  0.1462  0.9241 -0.8600
  150SAPE   H3Y16644   6.012   5.701  10.536 -1.1607  3.0562 -1.7198
  150SAPE   C3416645   5.866   5.716  10.385 -0.0548  0.1067  1.2642
  150SAPE   H4X16646   5.841   5.817  10.423  1.4712  1.6258 -1.4574
  150SAPE   H4Y16647   5.777   5.665  10.343  1.4766 -1.9959  0.3360
  150SAPE   C3516648   5.965   5.737  10.269 -0.0811  0.2255 -0.0595
  150SAPE   H5X16649   6.062   5.763  10.317  0.3966  1.8442 -1.7538
  150SAPE   H5Y16650   5.945   5.832  10.214  1.1776  0.0464 -0.8743
  150SAPE   C3616651   6.000   5.614  10.182  0.8751  0.5358 -0.2088
  150SAPE   H6X16652   5.906   5.574  10.139 -0.3182  2.0781  0.8166
  150SAPE   H6Y16653   6.044   5.541  10.253 -1.4034  0.4337  1.2289
  150SAPE   C3716654   6.097   5.656  10.075  0.9813 -0.0046 -0.5868
  150SAPE   H7X16655   6.189   5.703  10.117  2.7382 -3.3246 -0.4439
  150SAPE   H7Y16656   6.045   5.736  10.018 -2.7494 -1.1114  0.9801
  150SAPE   C3816657   6.139   5.529  10.000 -0.3618  0.1823  0.0272
  150SAPE   H8X16658   6.055   5.487   9.941  1.3022 -2.4363 -0.6179
  150SAPE   H8Y16659   6.167   5.447  10.070 -1.5647 -1.2818 -1.1469
  150SAPE   C3916660   6.242   5.548   9.885 -0.3079 -0.0430  0.2969
  150SAPE   H9X16661   6.260   5.453   9.830 -0.8236  0.5273 -0.9122
  150SAPE   H9Y16662   6.336   5.586   9.930 -0.4103 -0.0079  0.4805
  150SAPE  C31016663   6.192   5.653   9.789  0.2569  0.5726 -0.2243
  150SAPE  H10X16664   6.155   5.745   9.840 -2.2378 -0.3081 -0.2995
  150SAPE  H10Y16665   6.115   5.597   9.731  1.7747 -1.6893 -0.1661
  150SAPE  C31116666   6.304   5.700   9.693 -0.2082 -0.6804  0.2913
  150SAPE  H11X16667   6.368   5.747   9.770 -1.3663  0.0429  0.8258
  150SAPE  H11Y16668   6.273   5.775   9.617  3.5579 -0.1032 -0.9082
  150SAPE  C31216669   6.370   5.581   9.623  0.5996  0.1169 -0.6302
  150SAPE  H12X16670   6.287   5.529   9.570  0.1824  0.6399 -0.5004
  150SAPE  H12Y16671   6.416   5.515   9.699 -1.3237  0.6779  1.1045
  150SAPE  C31316672   6.472   5.611   9.512 -0.1768  0.3258  0.4493
  150SAPE  H13X16673   6.496   5.517   9.457 -1.0114  1.0136 -1.1498
  150SAPE  H13Y16674   6.565   5.658   9.552 -1.1019  3.1097 -0.4752
  150SAPE  C31416675   6.427   5.711   9.411  0.9215 -0.1166 -0.2037
  150SAPE  H14X16676   6.398   5.808   9.458 -0.2412  0.2782 -1.6332
  150SAPE  H14Y16677   6.335   5.671   9.363  0.8610 -3.1070  2.0975
  150SAPE  C31516678   6.520   5.739   9.297 -0.3736  0.5984  0.5192
  150SAPE  H15X16679   6.468   5.785   9.211  0.4656 -0.8159 -0.7843
  150SAPE  H15Y16680   6.579   5.650   9.267  0.7496  2.0644 -1.8830
  150SAPE  C31616681   6.621   5.849   9.332  0.1972  0.3015  0.1504
  150SAPE  H16X16682   6.692   5.806   9.406 -1.2328 -1.0763  0.7666
  150SAPE  H16Y16683   6.572   5.937   9.378  2.0547  0.9463  0.9929
  150SAPE  C31716684   6.698   5.891   9.203  0.2598 -0.5165 -0.7111
  150SAPE  H17X16685   6.766   5.973   9.234 -0.1287 -0.7739  0.9349
  150SAPE  H17Y16686   6.621   5.939   9.139  0.3903 -1.4001 -1.5559
  150SAPE  C31816687   6.776   5.778   9.134 -0.5702 -0.0832  0.2177
  150SAPE  H18X16688   6.724   5.739   9.044  1.5316  0.6735 -1.4128
  150SAPE  H18Y16689   6.793   5.695   9.207 -0.5978 -1.4376 -1.2533
  150SAPE  H18Z16690   6.873   5.821   9.100 -0.7546  0.2252  0.0845
  151SAPE     N16691   2.508   4.141  11.092  0.4023  0.4234  0.1214
  151SAPE   HN116692   2.435   4.074  11.059  1.6992 -0.8842 -0.1566
  151SAPE   HN216693   2.499   4.140  11.195 -2.3423  1.0319 -0.0123
  151SAPE   HN316694   2.500   4.237  11.053  1.2352  1.0254  1.3815
  151SAPE   C1216695   2.633   4.089  11.036 -0.6027 -0.5428  0.6206
  151SAPE  H12A16696   2.633   3.978  11.041 -1.1504 -0.6516 -1.2800
  151SAPE  H12B16697   2.718   4.119  11.101  0.1284 -1.7200  0.2256
  151SAPE   C1116698   2.652   4.125  10.884  0.2540 -0.0458 -0.2979
  151SAPE  H11A16699   2.569   4.085  10.822 -1.9991  2.6012  0.7821
  151SAPE  H11B16700   2.746   4.080  10.845 -0.0088 -1.4371  0.6049
  151SAPE     P16701   2.774   4.352  10.845  0.2470 -0.1118  0.1381
  151SAPE   O1316702   2.767   4.477  10.926 -0.2749 -0.2088  0.4537
  151SAPE   O1416703   2.897   4.276  10.863 -0.2279  0.2493 -0.2918
  151SAPE   O1216704   2.645   4.269  10.869  0.2795  0.3422 -0.5638
  151SAPE   O1116705   2.761   4.385  10.692 -0.1971 -0.0807  0.2124
  151SAPE    C116706   2.655   4.459  10.638 -0.4867  0.4321  0.2178
  151SAPE    HA16707   2.638   4.547  10.703 -1.0221  0.1720  0.4333
  151SAPE    HB16708   2.685   4.498  10.538 -0.1362 -1.6562 -0.5414
  151SAPE    C216709   2.516   4.382  10.629 -1.1899 -0.0530  0.1766
  151SAPE    HS16710   2.468   4.377  10.729 -2.3895 -2.1365 -0.4317
  151SAPE   O2116711   2.540   4.252  10.575 -0.1220  0.5837 -0.0477
  151SAPE   C2116712   2.437   4.176  10.581  0.8050 -0.3700  0.8925
  151SAPE   O2216713   2.331   4.209  10.635  0.2216 -0.2324  0.1767
  151SAPE   C2216714   2.465   4.033  10.515 -0.4082 -0.8972 -0.0474
  151SAPE   H2R16715   2.491   4.049  10.408 -0.2268 -0.6379  0.0356
  151SAPE   H2S16716   2.546   3.990  10.577 -1.1265 -0.7972  1.0010
  151SAPE    C316717   2.435   4.474  10.535  0.2946  0.1411 -0.3330
  151SAPE    HX16718   2.436   4.576  10.580 -0.7055 -0.6046  1.4873
  151SAPE    HY16719   2.326   4.454  10.538  0.2190  0.5297 -0.4243
  151SAPE   O3116720   2.487   4.500  10.405 -0.1788  0.2030 -0.1468
  151SAPE   C3116721   2.414   4.443  10.302  0.7371 -0.0861 -0.1111
  151SAPE   O3216722   2.319   4.375  10.324 -0.0624  0.5312  0.1427
  151SAPE   C3216723   2.465   4.483  10.167  0.2778 -0.7294 -0.7310
  151SAPE   H2X16724   2.569   4.445  10.163 -0.4895 -2.9159 -1.5982
  151SAPE   H2Y16725   2.476   4.594  10.162 -2.2698 -0.3348  0.5241
  151SAPE   C2316726   2.334   3.943  10.521  0.8008  0.2936 -0.0284
  151SAPE   H3R16727   2.250   4.011  10.497 -1.2791 -1.4204  1.9238
  151SAPE   H3S16728   2.313   3.928  10.629 -0.3117 -1.0026 -0.4005
  151SAPE   C2416729   2.348   3.817  10.436 -0.7979  0.4100 -0.9203
  151SAPE   H4R16730   2.313   3.840  10.333  0.9393 -0.4978 -1.7395
  151SAPE   H4S16731   2.276   3.739  10.470 -2.0837  1.3431 -1.4009
  151SAPE   C2516732   2.487   3.765  10.443  0.0234 -0.7810 -0.0255
  151SAPE   H5R16733   2.505   3.723  10.542  2.2548 -0.8250 -0.3879
  151SAPE   C2616734   2.589   3.775  10.359 -0.6090  0.8482 -0.3570
  151SAPE   H6R16735   2.682   3.721  10.383 -0.7816 -0.4731 -2.4207
  151SAPE   C2716736   2.583   3.844  10.229 -0.1929 -0.2293 -0.1173
  151SAPE   H7R16737   2.679   3.900  10.218 -1.0927  2.3695  3.4495
  151SAPE   H7S16738   2.506   3.924  10.229  0.0085 -0.0266  0.6448
  151SAPE   C2816739   2.548   3.744  10.120 -0.3058 -0.0936  0.5634
  151SAPE   H8R16740   2.570   3.638  10.140  0.5596 -0.7948 -3.2787
  151SAPE   C2916741   2.518   3.775   9.994  0.2115  0.4891  0.2327
  151SAPE   H9R16742   2.485   3.696   9.925  2.1652  0.3478 -0.5921
  151SAPE  C21016743   2.495   3.913   9.937  0.2779  0.0886 -0.3378
  151SAPE  H10R16744   2.591   3.970   9.932 -0.0577  0.5760 -1.6975
  151SAPE  H10S16745   2.441   3.971  10.015  0.6060  1.3632 -1.0250
  151SAPE  C21116746   2.422   3.932   9.802  0.2633  0.7909  0.3156
  151SAPE  H11R16747   2.318   3.899   9.817  0.0738  1.3671  0.2819
  151SAPE  C21216748   2.469   3.980   9.689  0.3516  0.4049 -0.2211
  151SAPE  H12R16749   2.396   3.983   9.607 -0.3833  0.6628  0.4363
  151SAPE  C21316750   2.608   4.029   9.663  0.2944  0.0839 -0.0497
  151SAPE  H13R16751   2.646   4.051   9.765 -1.0595 -2.2303  1.0531
  151SAPE  H13S16752   2.600   4.130   9.618 -2.0646 -0.2686 -0.5336
  151SAPE  C21416753   2.715   3.961   9.579  0.2683 -0.1954 -0.1525
  151SAPE  H14R16754   2.804   3.924   9.633  0.3790 -2.6715 -1.8492
  151SAPE  C21516755   2.712   3.933   9.449  0.7225  0.4707 -0.7557
  151SAPE  H15R16756   2.805   3.897   9.403 -0.1062 -1.8822 -0.6933
  151SAPE  C21616757   2.606   3.957   9.354 -0.7851 -0.0838  0.4823
  151SAPE  H16R16758   2.542   4.037   9.397 -1.5047 -0.4031  0.0054
  151SAPE  H16S16759   2.543   3.867   9.344 -1.1064  0.1166  0.6824
  151SAPE  C21716760   2.666   4.001   9.214 -0.9038  0.6780  0.3045
  151SAPE  H17R16761   2.581   3.996   9.142 -1.4262  1.1425  0.8756
  151SAPE  H17S16762   2.742   3.927   9.180  0.5952  2.2498  0.1266
  151SAPE  C21816763   2.731   4.138   9.217  0.1638 -0.3187 -0.2227
  151SAPE  H18R16764   2.837   4.133   9.251  0.5015 -0.1152 -1.2254
  151SAPE  H18S16765   2.674   4.200   9.289 -0.1608  1.0599 -1.6159
  151SAPE  C21916766   2.723   4.195   9.071  0.0717  0.0962 -0.5486
  151SAPE  H19R16767   2.620   4.218   9.035  1.3634  1.2513 -3.9724
  151SAPE  H19S16768   2.752   4.114   9.001  2.9177  2.0595 -1.8535
  151SAPE  C22016769   2.805   4.324   9.053 -0.0576  0.8308  0.0215
  151SAPE  H20R16770   2.752   4.402   9.111  0.4484 -0.0900  1.7830
  151SAPE  H20S16771   2.806   4.344   8.944  3.9496  0.0403 -0.2593
  151SAPE  H20T16772   2.912   4.323   9.084  0.3552  1.6686 -1.2746
  151SAPE   C3316773   2.380   4.432  10.048  0.4822  0.2767 -0.0849
  151SAPE   H3X16774   2.273   4.460  10.053  0.5990  0.5460  1.3132
  151SAPE   H3Y16775   2.371   4.322  10.061 -0.5783  0.5685  2.1918
  151SAPE   C3416776   2.443   4.466   9.912  0.0025  0.2053 -0.0857
  151SAPE   H4X16777   2.534   4.404   9.894 -1.3095 -1.9547  0.2754
  151SAPE   H4Y16778   2.478   4.571   9.914  3.1397 -0.7346  0.0219
  151SAPE   C3516779   2.347   4.451   9.790 -0.8338  0.2281 -0.2363
  151SAPE   H5X16780   2.245   4.489   9.815 -1.1536  1.3821 -2.9308
  151SAPE   H5Y16781   2.338   4.346   9.756 -3.1784  0.0464  0.7384
  151SAPE   C3616782   2.387   4.545   9.665 -0.6917 -0.5480 -0.2875
  151SAPE   H6X16783   2.484   4.599   9.669 -1.1287  0.2450 -0.0527
  151SAPE   H6Y16784   2.314   4.629   9.661  1.0292  1.2500  2.6215
  151SAPE   C3716785   2.380   4.464   9.537  0.7800  0.0539 -0.2141
  151SAPE   H7X16786   2.275   4.431   9.520  0.6542  0.1823  0.2926
  151SAPE   H7Y16787   2.441   4.372   9.544 -1.8267 -1.8268 -0.8235
  151SAPE   C3816788   2.397   4.548   9.403  1.2722  0.0950  0.1354
  151SAPE   H8X16789   2.484   4.616   9.414  3.6209 -2.7480  0.4985
  151SAPE   H8Y16790   2.305   4.603   9.375  2.0214  2.2278  1.5579
  151SAPE   C3916791   2.417   4.460   9.275  0.0917  0.1616 -0.6769
  151SAPE   H9X16792   2.354   4.369   9.262  1.5073 -0.9815  0.1333
  151SAPE   H9Y16793   2.521   4.420   9.279  0.4739  1.1951  0.2167
  151SAPE  C31016794   2.401   4.545   9.153 -0.4870  0.2053  0.1727
  151SAPE  H10X16795   2.457   4.640   9.166 -0.9102  0.5123 -0.1779
  151SAPE  H10Y16796   2.291   4.557   9.136 -0.8638 -3.8064 -1.1886
  151SAPE  C31116797   2.440   4.471   9.026 -0.8288  0.5066 -0.2369
  151SAPE  H11X16798   2.385   4.375   9.028 -2.3100  1.3216  2.2335
  151SAPE  H11Y16799   2.551   4.460   9.024 -0.8574 -0.2560  1.0020
  151SAPE  C31216800   2.401   4.556   8.900 -0.0062  0.6946  0.9929
  151SAPE  H12X16801   2.449   4.656   8.912  1.3304  0.2444 -0.3464
  151SAPE  H12Y16802   2.292   4.571   8.916  0.0374  0.5027  1.4810
  151SAPE  C31316803   2.413   4.505   8.759  0.1344  0.2157  0.2012
  151SAPE  H13X16804   2.518   4.478   8.735 -0.5717 -0.6980 -2.1030
  151SAPE  H13Y16805   2.371   4.589   8.699 -0.7699 -0.2774  0.1403
  151SAPE  C31416806   2.334   4.381   8.721 -0.1139  0.0652 -0.2326
  151SAPE  H14X16807   2.228   4.412   8.725 -0.1093  0.0724 -0.1635
  151SAPE  H14Y16808   2.332   4.297   8.793  0.3283 -0.6640 -1.0524
  151SAPE  C31516809   2.365   4.336   8.577 -0.2865  0.7949 -0.8586
  151SAPE  H15X16810   2.375   4.226   8.589 -0.1734  0.7865 -1.0202
  151SAPE  H15Y16811   2.469   4.369   8.554 -0.1175  0.1150 -1.1118
  151SAPE  C31616812   2.257   4.370   8.468  0.5530  0.7708 -0.2025
  151SAPE  H16X16813   2.253   4.481   8.465 -0.4986  0.7434 -0.2189
  151SAPE  H16Y16814   2.162   4.330   8.511  0.0182  1.5374 -0.6501
  151SAPE  C31716815   2.289   4.303   8.328  0.0480 -0.2210 -0.5810
  151SAPE  H17X16816   2.276   4.194   8.341 -1.1109 -0.0994 -0.5834
  151SAPE  H17Y16817   2.386   4.343   8.291 -0.8414  3.5322  0.6205
  151SAPE  C31816818   2.188   4.347   8.218  0.4832  0.4417  0.4227
  151SAPE  H18X16819   2.197   4.288   8.124  0.8473 -1.0909  1.3811
  151SAPE  H18Y16820   2.195   4.456   8.197 -0.4634  0.2179 -1.2926
  151SAPE  H18Z16821   2.087   4.340   8.264  0.0859  1.5023 -0.2615
  152SAPE     N16822   4.744   3.540  10.600  0.1711  0.0859 -0.1957
  152SAPE   HN116823   4.672   3.562  10.672 -4.0844 -0.2095 -3.9161
  152SAPE   HN216824   4.735   3.601  10.516  2.5049  1.6607  0.5628
  152SAPE   HN316825   4.719   3.444  10.571 -1.0275  0.0824  0.7991
  152SAPE   C1216826   4.886   3.528  10.657 -0.5214 -0.2660  0.3816
  152SAPE  H12A16827   4.947   3.484  10.575 -0.9711 -0.8064  0.3340
  152SAPE  H12B16828   4.899   3.455  10.739  1.2374 -2.8766 -2.0261
  152SAPE   C1116829   4.938   3.658  10.712  0.7684  0.1306 -0.9818
  152SAPE  H11A16830   4.968   3.726  10.629  0.4875  1.4971  0.0021
  152SAPE  H11B16831   5.030   3.639  10.772  0.1591  2.8087  1.0029
  152SAPE     P16832   4.857   3.871  10.846  0.2006 -0.6876  0.0040
  152SAPE   O1316833   4.739   3.906  10.923  0.3821  0.4390 -0.0922
  152SAPE   O1416834   4.986   3.882  10.911  0.2329  0.0633  0.0925
  152SAPE   O1216835   4.836   3.727  10.786 -0.5858 -0.0331  0.1170
  152SAPE   O1116836   4.848   3.978  10.721 -0.0939 -0.0773 -0.7140
  152SAPE    C116837   4.746   3.966  10.624  0.4705 -0.2570 -0.6431
  152SAPE    HA16838   4.688   3.871  10.627 -1.3851  0.8514  0.2227
  152SAPE    HB16839   4.672   4.046  10.641  0.8035 -0.2247  0.8750
  152SAPE    C216840   4.788   3.999  10.479  0.0850 -0.3933  0.4228
  152SAPE    HS16841   4.820   3.899  10.440  0.6398 -0.6990  1.6061
  152SAPE   O2116842   4.888   4.098  10.479 -0.5344 -0.0339 -0.1041
  152SAPE   C2116843   5.010   4.052  10.484 -0.0066 -0.2642 -0.0457
  152SAPE   O2216844   5.041   3.936  10.474  0.1021  0.0531 -0.1439
  152SAPE   C2216845   5.112   4.158  10.515 -0.1960 -0.5577  0.0547
  152SAPE   H2R16846   5.086   4.205  10.612 -1.1026  0.6502 -0.7447
  152SAPE   H2S16847   5.210   4.116  10.546  0.5560  1.6500  0.8698
  152SAPE    C316848   4.671   4.042  10.392  0.5721 -0.2322  0.0401
  152SAPE    HX16849   4.624   4.132  10.437 -0.1736 -0.3041 -0.5723
  152SAPE    HY16850   4.601   3.956  10.399 -2.3063  1.9399 -0.6998
  152SAPE   O3116851   4.708   4.081  10.262 -0.6412 -0.2873 -0.0169
  152SAPE   C3116852   4.741   3.993  10.166  0.1565 -0.0798 -0.2315
  152SAPE   O3216853   4.755   3.873  10.186 -0.3405  0.0351 -0.0900
  152SAPE   C3216854   4.791   4.061  10.039  0.0750 -0.0744 -0.2422
  152SAPE   H2X16855   4.849   4.155  10.057  1.7203 -0.4620 -2.8911
  152SAPE   H2Y16856   4.703   4.085   9.976  0.7716 -0.6781 -1.4933
  152SAPE   C2316857   5.118   4.261  10.406  0.0014  0.1628  0.2186
  152SAPE   H3R16858   5.158   4.358  10.443 -3.8298  1.6102  1.0259
  152SAPE   H3S16859   5.011   4.281  10.386 -0.3083  0.4335  1.9611
  152SAPE   C2416860   5.197   4.234  10.280 -0.1091  0.9269  0.6435
  152SAPE   H4R16861   5.202   4.123  10.272 -1.9205  0.8585  0.0075
  152SAPE   H4S16862   5.301   4.264  10.308 -0.4238  2.9979 -0.2243
  152SAPE   C2516863   5.137   4.292  10.152 -0.0522 -0.1630  0.1210
  152SAPE   H5R16864   5.059   4.368  10.168  1.4653  2.3665 -3.1608
  152SAPE   C2616865   5.177   4.263  10.029  0.1647 -0.0374  0.2594
  152SAPE   H6R16866   5.127   4.313   9.944  0.5266  1.2306  0.7656
  152SAPE   C2716867   5.283   4.166   9.986 -0.9190 -0.1737 -0.1873
  152SAPE   H7R16868   5.250   4.081   9.923  0.3955 -0.8919  0.0446
  152SAPE   H7S16869   5.324   4.115  10.076 -0.1686 -0.5323 -0.7141
  152SAPE   C2816870   5.400   4.236   9.914 -0.2010  0.5923  0.2337
  152SAPE   H8R16871   5.497   4.239   9.964 -0.1582 -0.9759  0.2994
  152SAPE   C2916872   5.391   4.291   9.794 -0.6014  0.6817  0.6143
  152SAPE   H9R16873   5.483   4.320   9.742 -0.7984  0.2281 -0.0021
  152SAPE  C21016874   5.275   4.283   9.693 -0.2721  0.6904  0.2094
  152SAPE  H10R16875   5.189   4.218   9.718  0.3309 -0.4775 -0.6872
  152SAPE  H10S16876   5.313   4.234   9.601 -0.3673  0.5727  0.2322
  152SAPE  C21116877   5.230   4.420   9.663  0.1322 -0.2408 -0.0413
  152SAPE  H11R16878   5.161   4.457   9.741 -0.7727 -1.3166 -0.3025
  152SAPE  C21216879   5.229   4.488   9.545  0.0511  0.2132 -0.1724
  152SAPE  H12R16880   5.210   4.596   9.543  1.7543  0.5707  0.6519
  152SAPE  C21316881   5.292   4.439   9.415  0.9565  0.0584 -0.2924
  152SAPE  H13R16882   5.250   4.495   9.329  0.5058 -2.4586 -1.8232
  152SAPE  H13S16883   5.257   4.335   9.395  2.7451 -0.6895  0.2425
  152SAPE  C21416884   5.443   4.449   9.417  0.2410  0.2170 -0.0821
  152SAPE  H14R16885   5.490   4.462   9.516  1.4687 -1.2629 -0.4393
  152SAPE  C21516886   5.519   4.458   9.311  0.1753  0.1709  0.9323
  152SAPE  H15R16887   5.628   4.466   9.322 -0.0895  1.5734  2.8741
  152SAPE  C21616888   5.482   4.452   9.162 -0.0032 -0.4306  0.7551
  152SAPE  H16R16889   5.374   4.470   9.146  0.0428 -1.2254 -0.6228
  152SAPE  H16S16890   5.498   4.345   9.136 -0.1347 -0.2729 -0.0037
  152SAPE  C21716891   5.560   4.541   9.070  0.2101 -0.4001 -0.1871
  152SAPE  H17R16892   5.555   4.644   9.112 -1.9270 -0.3339 -0.4987
  152SAPE  H17S16893   5.507   4.537   8.972 -0.4660 -1.0376  0.1991
  152SAPE  C21816894   5.701   4.495   9.043 -0.7064 -0.7501 -0.2007
  152SAPE  H18R16895   5.700   4.388   9.014 -3.9719 -1.1044  0.8558
  152SAPE  H18S16896   5.753   4.506   9.141 -0.8522  1.0906 -0.2961
  152SAPE  C21916897   5.743   4.580   8.921  0.2397  0.0595  0.6947
  152SAPE  H19R16898   5.730   4.690   8.933  1.4136  0.6866 -2.7279
  152SAPE  H19S16899   5.681   4.557   8.832  1.9601 -1.7714 -0.1044
  152SAPE  C22016900   5.887   4.546   8.891 -0.0736  0.3368  0.6922
  152SAPE  H20R16901   5.935   4.608   8.812  0.2866 -0.9842 -0.1622
  152SAPE  H20S16902   5.876   4.444   8.849 -3.8568  0.7969  0.1711
  152SAPE  H20T16903   5.943   4.555   8.987 -1.7334 -1.8207  1.9714
  152SAPE   C3316904   4.876   3.969   9.945 -0.0086 -0.4078 -0.0575
  152SAPE   H3X16905   4.810   3.880   9.941  0.7267 -0.9976  0.5246
  152SAPE   H3Y16906   4.969   3.928   9.991  0.5194  0.6748 -0.1225
  152SAPE   C3416907   4.917   4.048   9.818  0.4988 -0.4343 -0.3478
  152SAPE   H4X16908   4.993   4.122   9.850  1.3221  0.0413 -3.1582
  152SAPE   H4Y16909   4.837   4.108   9.769 -1.5302 -1.0838  1.9400
  152SAPE   C3516910   4.963   3.954   9.706  1.1584 -0.1363 -0.1787
  152SAPE   H5X16911   4.884   3.877   9.691 -1.4135  1.9314  1.6542
  152SAPE   H5Y16912   5.053   3.901   9.743  1.2596  1.3428  1.8978
  152SAPE   C3616913   4.987   4.028   9.573  0.4010  0.4997 -0.3400
  152SAPE   H6X16914   5.050   4.118   9.588 -2.7731  2.7703  0.5365
  152SAPE   H6Y16915   4.887   4.068   9.545 -0.3322  0.0739  1.5012
  152SAPE   C3716916   5.047   3.943   9.459  0.2019  0.2568  0.4230
  152SAPE   H7X16917   4.967   3.880   9.413 -0.5174  1.2788  0.2255
  152SAPE   H7Y16918   5.132   3.882   9.494 -0.4736 -0.8041  0.2460
  152SAPE   C3816919   5.091   4.046   9.348 -0.0358 -0.0025  0.2768
  152SAPE   H8X16920   5.153   4.120   9.404  0.1435 -0.6468  0.9556
  152SAPE   H8Y16921   5.008   4.105   9.302  1.1096  2.1235  0.8079
  152SAPE   C3916922   5.168   3.973   9.239 -0.1540 -0.5660 -0.2670
  152SAPE   H9X16923   5.096   3.902   9.194 -1.2424  0.2142  0.2011
  152SAPE   H9Y16924   5.252   3.917   9.287  0.9794 -0.2449 -1.7807
  152SAPE  C31016925   5.244   4.066   9.136  0.6500 -0.3590 -0.6722
  152SAPE  H10X16926   5.308   4.136   9.193  0.9718 -2.1724  1.3004
  152SAPE  H10Y16927   5.171   4.126   9.078  0.6546  0.2070 -0.1000
  152SAPE  C31116928   5.333   4.001   9.030 -0.4853  0.2824 -0.0657
  152SAPE  H11X16929   5.275   4.005   8.935 -0.7320 -0.5774  0.0398
  152SAPE  H11Y16930   5.347   3.898   9.068  0.9676  0.1584 -0.8844
  152SAPE  C31216931   5.470   4.078   9.012 -0.1472 -0.1413  0.2787
  152SAPE  H12X16932   5.538   4.066   9.099  1.3477  0.8641 -0.6891
  152SAPE  H12Y16933   5.457   4.188   9.017 -1.4194 -0.3430  2.9352
  152SAPE  C31316934   5.542   4.018   8.889 -0.5553  0.7461  0.1182
  152SAPE  H13X16935   5.491   4.033   8.791 -0.0811 -0.8326 -0.3945
  152SAPE  H13Y16936   5.546   3.907   8.895 -0.5886  0.7423  0.0662
  152SAPE  C31416937   5.687   4.058   8.867 -0.2869 -0.0459 -0.1098
  152SAPE  H14X16938   5.752   3.969   8.878 -1.4166 -0.8450  0.3327
  152SAPE  H14Y16939   5.712   4.134   8.944 -2.1361  1.7252 -1.1545
  152SAPE  C31516940   5.714   4.119   8.724 -0.8242  0.2462 -0.6391
  152SAPE  H15X16941   5.691   4.042   8.648 -1.4343  1.3832 -1.6347
  152SAPE  H15Y16942   5.823   4.128   8.706 -0.4012 -0.7839  1.1244
  152SAPE  C31616943   5.656   4.260   8.703  0.3847 -0.3736  0.4749
  152SAPE  H16X16944   5.705   4.316   8.786  0.4101  0.0463  0.1781
  152SAPE  H16Y16945   5.547   4.245   8.711  0.6421 -1.9514  1.5245
  152SAPE  C31716946   5.667   4.317   8.560 -0.4328 -0.4360 -0.2413
  152SAPE  H17X16947   5.772   4.353   8.549  0.6319 -2.6874  1.5153
  152SAPE  H17Y16948   5.601   4.406   8.549 -0.6769 -0.0752  2.9930
  152SAPE  C31816949   5.637   4.207   8.458 -0.4106 -0.1015 -0.4323
  152SAPE  H18X16950   5.714   4.127   8.458  0.3571  0.6068  0.2257
  152SAPE  H18Y16951   5.641   4.255   8.358 -1.0245  0.7695 -0.0449
  152SAPE  H18Z16952   5.537   4.159   8.468  1.4237 -4.6278 -1.3174
  153SAPE     N16953   3.478   4.556  10.977 -0.0387  0.4131  0.0780
  153SAPE   HN116954   3.565   4.609  10.957 -0.3007  1.1445  0.7895
  153SAPE   HN216955   3.402   4.611  11.022 -0.9724 -1.6367  1.1582
  153SAPE   HN316956   3.503   4.492  11.055  1.3136  1.9443  0.9529
  153SAPE   C1216957   3.413   4.491  10.860  0.0806 -0.0228  0.0457
  153SAPE  H12A16958   3.385   4.565  10.781 -1.5896 -1.9096 -1.2410
  153SAPE  H12B16959   3.323   4.438  10.900  1.6987 -3.4251 -0.4781
  153SAPE   C1116960   3.501   4.382  10.799 -0.6747  0.6623  0.9258
  153SAPE  H11A16961   3.588   4.431  10.750 -0.5096 -0.5483 -0.0443
  153SAPE  H11B16962   3.439   4.340  10.717  0.3565  0.3925  0.2571
  153SAPE     P16963   3.450   4.149  10.898 -0.3768 -0.3197 -0.9512
  153SAPE   O1316964   3.509   4.058  11.000  0.2174 -0.3787  0.1357
  153SAPE   O1416965   3.310   4.191  10.924  0.3540 -0.4579  0.1870
  153SAPE   O1216966   3.541   4.281  10.892  0.1059  0.0652  0.3178
  153SAPE   O1116967   3.456   4.082  10.758 -0.0931 -0.5413  0.0212
  153SAPE    C116968   3.564   4.015  10.705 -0.3247 -0.3036  0.3087
  153SAPE    HA16969   3.662   4.035  10.754  0.0706 -0.9000 -0.2222
  153SAPE    HB16970   3.543   3.906  10.716  0.7229 -1.3815 -5.3880
  153SAPE    C216971   3.584   4.066  10.561  0.5186 -0.4673  0.3888
  153SAPE    HS16972   3.646   3.986  10.514 -2.0354 -1.8268 -0.8724
  153SAPE   O2116973   3.655   4.191  10.564  0.7809  0.1600 -0.4314
  153SAPE   C2116974   3.754   4.212  10.479  0.2084 -0.2675  0.5113
  153SAPE   O2216975   3.793   4.135  10.393 -0.7560  0.2164  0.1557
  153SAPE   C2216976   3.800   4.358  10.487 -0.0222 -1.2574  0.0989
  153SAPE   H2R16977   3.710   4.424  10.498  1.1172  0.2735  0.6544
  153SAPE   H2S16978   3.839   4.374  10.590  0.0960 -0.5883 -0.0465
  153SAPE    C316979   3.452   4.060  10.485 -0.8234 -0.4289 -0.0745
  153SAPE    HX16980   3.371   4.117  10.535  1.4461  1.4750  1.6479
  153SAPE    HY16981   3.416   3.956  10.497  0.2051 -0.6356  1.4790
  153SAPE   O3116982   3.465   4.087  10.347 -0.0333 -0.2981  0.1829
  153SAPE   C3116983   3.477   4.215  10.310 -0.2577 -0.7866 -0.2162
  153SAPE   O3216984   3.474   4.311  10.383 -0.2137  0.0079  0.2231
  153SAPE   C3216985   3.494   4.221  10.155 -0.9035  0.2470 -0.9884
  153SAPE   H2X16986   3.528   4.324  10.134  1.3022 -0.2775 -0.2221
  153SAPE   H2Y16987   3.389   4.203  10.124 -1.2312 -2.0581  1.1219
  153SAPE   C2316988   3.909   4.402  10.391  0.0474  0.1387 -0.1091
  153SAPE   H3R16989   3.990   4.329  10.370  0.6766  1.1817 -1.4827
  153SAPE   H3S16990   3.964   4.481  10.445 -0.6605 -0.2483  1.2247
  153SAPE   C2416991   3.845   4.452  10.253  0.7513  0.3834 -0.1151
  153SAPE   H4R16992   3.766   4.382  10.218  1.3336  0.0578 -0.8028
  153SAPE   H4S16993   3.918   4.445  10.170 -0.4654 -2.3098 -1.0824
  153SAPE   C2516994   3.794   4.595  10.259 -0.4352  0.7277  0.7718
  153SAPE   H5R16995   3.751   4.632  10.353 -1.0696  1.3557  0.2466
  153SAPE   C2616996   3.789   4.673  10.150  0.2812 -0.3537 -0.1609
  153SAPE   H6R16997   3.728   4.763  10.161  0.8802  0.0433 -0.0649
  153SAPE   C2716998   3.829   4.650  10.010  0.0343  0.3337  0.1861
  153SAPE   H7R16999   3.756   4.697   9.940  1.9687  2.4886 -0.5256
  153SAPE   H7S17000   3.827   4.540   9.998 -1.1200  0.6378 -3.9964
  153SAPE   C2817001   3.968   4.692   9.963 -0.0980  0.1553 -0.5295
  153SAPE   H8R17002   4.025   4.752  10.035 -2.7201 -0.0977  1.9205
  153SAPE   C2917003   4.027   4.673   9.845 -0.0750 -0.3490 -0.4448
  153SAPE   H9R17004   4.132   4.700   9.826 -0.0875 -1.2577 -2.0197
  153SAPE  C21017005   3.960   4.597   9.725  0.1978 -0.1126 -0.0962
  153SAPE  H10R17006   3.855   4.568   9.744 -0.2695  0.7096 -1.2734
  153SAPE  H10S17007   4.012   4.499   9.717  0.5291  0.1571 -1.8499
  153SAPE  C21117008   3.957   4.691   9.604 -0.4668 -0.0223  0.0626
  153SAPE  H11R17009   3.890   4.778   9.607 -1.2894 -0.6568  0.4887
  153SAPE  C21217010   4.013   4.664   9.482  0.6749 -0.2415 -0.4117
  153SAPE  H12R17011   3.997   4.733   9.398 -1.6577  0.8412  0.8023
  153SAPE  C21317012   4.080   4.541   9.429  0.1302  0.2428 -0.5770
  153SAPE  H13R17013   4.010   4.458   9.454 -0.0995 -0.7963 -4.1176
  153SAPE  H13S17014   4.170   4.519   9.490  2.0787  1.8840 -2.6807
  153SAPE  C21417015   4.095   4.525   9.278  0.0847 -0.1883  0.1338
  153SAPE  H14R17016   4.199   4.531   9.241 -0.9112  0.8274 -2.7955
  153SAPE  C21517017   3.997   4.500   9.186 -0.4948 -0.6770  0.2070
  153SAPE  H15R17018   4.023   4.487   9.080  3.7245 -2.1986  1.2710
  153SAPE  C21617019   3.848   4.484   9.214  0.2701 -0.4892 -0.2610
  153SAPE  H16R17020   3.825   4.508   9.320  1.0135 -0.0256 -0.2022
  153SAPE  H16S17021   3.813   4.380   9.197  0.3657 -0.3521 -1.4086
  153SAPE  C21717022   3.763   4.575   9.130 -0.3869  0.5196 -0.2050
  153SAPE  H17R17023   3.807   4.677   9.129 -0.6265  0.6449  0.8975
  153SAPE  H17S17024   3.661   4.585   9.174 -0.0122  3.1377  0.2484
  153SAPE  C21817025   3.728   4.519   8.991 -1.2089  1.1782  0.8198
  153SAPE  H18R17026   3.706   4.410   8.988  1.4038  0.5297  2.0168
  153SAPE  H18S17027   3.808   4.531   8.914 -1.5826  3.1815  0.6868
  153SAPE  C21917028   3.620   4.595   8.917  0.0839  1.2085 -0.2954
  153SAPE  H19R17029   3.628   4.705   8.915 -0.1993  1.2458  0.2698
  153SAPE  H19S17030   3.522   4.571   8.964 -1.5076  0.4741 -3.6576
  153SAPE  C22017031   3.615   4.555   8.770  0.1225  0.0152  0.0681
  153SAPE  H20R17032   3.537   4.614   8.716  0.9750  1.9051  0.8152
  153SAPE  H20S17033   3.587   4.448   8.760 -2.2291  0.6505 -1.0105
  153SAPE  H20T17034   3.716   4.559   8.724 -0.2669 -1.4796 -0.9936
  153SAPE   C3317035   3.590   4.120  10.098 -0.9461 -0.2017  0.5472
  153SAPE   H3X17036   3.533   4.024  10.090 -0.4324 -0.3549 -2.1965
  153SAPE   H3Y17037   3.679   4.093  10.158 -2.5216 -2.1461  2.1466
  153SAPE   C3417038   3.646   4.161   9.963  0.0420 -0.7066  0.4034
  153SAPE   H4X17039   3.675   4.268   9.954  0.9411 -0.9916 -0.2315
  153SAPE   H4Y17040   3.574   4.148   9.878  0.3076  0.3280  0.0063
  153SAPE   C3517041   3.763   4.070   9.918 -0.1214  0.5421  0.4294
  153SAPE   H5X17042   3.726   3.965   9.915  1.9269 -0.1959 -1.0858
  153SAPE   H5Y17043   3.847   4.076   9.990 -1.2182 -0.6240  1.8700
  153SAPE   C3617044   3.822   4.095   9.774 -0.1523 -0.3250 -0.8126
  153SAPE   H6X17045   3.914   4.033   9.765 -0.0392 -0.3258  0.1456
  153SAPE   H6Y17046   3.850   4.202   9.783 -3.2990  0.7449 -2.5506
  153SAPE   C3717047   3.727   4.084   9.654  0.2333 -0.2218 -0.0683
  153SAPE   H7X17048   3.638   4.146   9.678  0.8916  0.0764  1.7259
  153SAPE   H7Y17049   3.685   3.982   9.639  0.4655 -0.2583 -0.4653
  153SAPE   C3817050   3.792   4.146   9.527 -0.9914  0.5635  0.1110
  153SAPE   H8X17051   3.854   4.065   9.481 -0.2508  0.6386  0.9483
  153SAPE   H8Y17052   3.864   4.220   9.567 -1.4280  0.0748  1.9231
  153SAPE   C3917053   3.689   4.197   9.431  0.0754 -0.1305  0.7967
  153SAPE   H9X17054   3.747   4.259   9.358  2.2299 -0.2337  2.3065
  153SAPE   H9Y17055   3.615   4.260   9.484  0.5484 -0.3994  1.7954
  153SAPE  C31017056   3.596   4.097   9.364 -0.2170 -0.0864 -0.2113
  153SAPE  H10X17057   3.525   4.147   9.294 -0.7306  2.2401  1.8142
  153SAPE  H10Y17058   3.537   4.047   9.443  0.5319  0.2101  0.5624
  153SAPE  C31117059   3.679   3.991   9.295 -0.2204  0.2207  0.9515
  153SAPE  H11X17060   3.692   3.901   9.358  1.0173 -0.9159 -0.8280
  153SAPE  H11Y17061   3.783   4.026   9.278 -0.3705  1.4851  2.4148
  153SAPE  C31217062   3.616   3.934   9.173  0.2479 -0.1602 -0.3035
  153SAPE  H12X17063   3.604   4.022   9.107 -0.7503  1.6838  2.1947
  153SAPE  H12Y17064   3.514   3.894   9.194 -0.6439  1.2594 -1.7148
  153SAPE  C31317065   3.700   3.818   9.111 -0.2504 -0.3617  0.0478
  153SAPE  H13X17066   3.636   3.790   9.025  0.6990  0.4476 -0.9458
  153SAPE  H13Y17067   3.710   3.745   9.195  0.0278  1.2426  1.4678
  153SAPE  C31417068   3.844   3.855   9.060 -0.2094  1.1790 -0.5911
  153SAPE  H14X17069   3.896   3.762   9.028 -2.8620 -0.7561  0.4056
  153SAPE  H14Y17070   3.906   3.898   9.142 -1.6949  0.4231  0.9868
  153SAPE  C31517071   3.839   3.934   8.929 -0.4106  0.4886  0.8252
  153SAPE  H15X17072   3.789   4.032   8.950  0.7289  1.0073  1.2173
  153SAPE  H15Y17073   3.774   3.874   8.862  0.8947  2.0487 -2.0078
  153SAPE  C31617074   3.976   3.946   8.863 -0.5999 -0.4923 -0.7694
  153SAPE  H16X17075   4.064   3.885   8.891  0.1389  0.9970  0.3119
  153SAPE  H16Y17076   3.998   4.054   8.876 -0.1020 -0.6411 -0.3406
  153SAPE  C31717077   3.958   3.936   8.715  0.5604  0.5344  0.1815
  153SAPE  H17X17078   3.872   3.995   8.678  0.6512  0.3083 -0.4081
  153SAPE  H17Y17079   3.939   3.828   8.696 -2.9963  0.9237  0.8724
  153SAPE  C31817080   4.082   3.980   8.630  1.0661 -0.3884  0.4649
  153SAPE  H18X17081   4.158   3.902   8.609  1.7176 -0.0110  1.3637
  153SAPE  H18Y17082   4.134   4.056   8.691  1.7440  0.1868 -0.7846
  153SAPE  H18Z17083   4.043   4.033   8.540  0.6322 -0.6508  0.4931
  154SAPE     N17084   5.982   4.862  11.205 -0.6017 -0.5737  0.1834
  154SAPE   HN117085   6.082   4.878  11.182 -0.1312 -1.8518  1.2263
  154SAPE   HN217086   5.951   4.942  11.263  0.6236 -0.3737  0.6013
  154SAPE   HN317087   5.981   4.779  11.268 -2.0159 -0.1723  0.7255
  154SAPE   C1217088   5.883   4.834  11.099 -0.3251 -0.3158  0.0132
  154SAPE  H12A17089   5.841   4.926  11.055 -3.0143 -0.8150  1.3027
  154SAPE  H12B17090   5.796   4.781  11.144 -1.4979 -0.4928 -2.3198
  154SAPE   C1117091   5.944   4.751  10.992 -0.3907  0.4970  0.5643
  154SAPE  H11A17092   5.862   4.741  10.918 -1.1247 -2.0575  1.6136
  154SAPE  H11B17093   5.976   4.651  11.028  1.1287  0.8025  0.1048
  154SAPE     P17094   6.157   4.754  10.830  0.1358  0.2462  0.4024
  154SAPE   O1317095   6.285   4.823  10.859  0.2903 -0.2671  0.3137
  154SAPE   O1417096   6.156   4.607  10.844 -0.4130 -0.3298 -0.7047
  154SAPE   O1217097   6.046   4.818  10.925 -0.5304  0.1443  0.1727
  154SAPE   O1117098   6.112   4.797  10.685 -0.4880  0.4214 -0.0674
  154SAPE    C117099   5.975   4.775  10.644 -0.2277 -0.5462 -0.8077
  154SAPE    HA17100   5.946   4.673  10.612  0.8239 -1.3072  0.5757
  154SAPE    HB17101   5.910   4.798  10.731  0.6577  1.2976 -0.5878
  154SAPE    C217102   5.938   4.879  10.533 -0.3502  0.1772  0.4519
  154SAPE    HS17103   5.829   4.895  10.543 -0.7490 -1.4184 -0.9133
  154SAPE   O2117104   5.981   4.832  10.408 -0.9331 -0.1464 -0.5646
  154SAPE   C2117105   5.888   4.776  10.338 -0.2177  0.3783  1.0680
  154SAPE   O2217106   5.781   4.732  10.376 -0.3497 -0.6241 -0.3872
  154SAPE   C2217107   5.941   4.774  10.200 -0.6629 -0.1575  0.7631
  154SAPE   H2R17108   6.001   4.865  10.176 -1.8471  0.1528 -1.2294
  154SAPE   H2S17109   6.009   4.686  10.193 -0.5733  0.0356 -1.5653
  154SAPE    C317110   6.003   5.021  10.566  0.0276 -0.2092 -0.1800
  154SAPE    HX17111   6.111   5.010  10.591 -0.5830 -0.3086  2.7975
  154SAPE    HY17112   5.970   5.050  10.668  0.7499  0.6128 -0.1680
  154SAPE   O3117113   5.969   5.111  10.460 -0.7636 -0.5399 -0.2610
  154SAPE   C3117114   5.859   5.182  10.486  0.2211  0.1579 -0.4635
  154SAPE   O3217115   5.794   5.174  10.591 -0.3863  0.0667 -0.0941
  154SAPE   C3217116   5.798   5.258  10.364 -0.7981 -0.0193 -0.5331
  154SAPE   H2X17117   5.856   5.351  10.347  0.8391 -0.8434  0.2723
  154SAPE   H2Y17118   5.690   5.277  10.382 -0.4181  1.2979  0.6137
  154SAPE   C2317119   5.830   4.753  10.098  0.0862  0.2215  0.0414
  154SAPE   H3R17120   5.763   4.837  10.121  0.8686  0.3926  1.8587
  154SAPE   H3S17121   5.780   4.657  10.121  0.4779  0.7166  3.4361
  154SAPE   C2417122   5.882   4.762   9.955 -0.0164  0.1993  0.8537
  154SAPE   H4R17123   5.953   4.847   9.957 -1.7402  1.6952  3.4030
  154SAPE   H4S17124   5.795   4.789   9.891  1.0035 -0.1906 -0.7764
  154SAPE   C2517125   5.955   4.630   9.913  0.9604 -0.2305  0.4575
  154SAPE   H5R17126   6.011   4.564   9.980  0.5344 -2.4321 -1.2400
  154SAPE   C2617127   5.930   4.582   9.789  0.9301 -0.2737  0.3310
  154SAPE   H6R17128   5.968   4.481   9.769  0.7536 -0.2338 -0.2242
  154SAPE   C2717129   5.842   4.645   9.680 -0.6101  0.4643  0.3647
  154SAPE   H7R17130   5.859   4.753   9.665  2.0677 -0.2371 -2.8452
  154SAPE   H7S17131   5.733   4.628   9.695 -0.6318 -0.7959 -0.9701
  154SAPE   C2817132   5.874   4.576   9.550 -0.3824  0.2289  0.0338
  154SAPE   H8R17133   5.914   4.474   9.539  0.6167  0.8144 -2.4958
  154SAPE   C2917134   5.858   4.641   9.434 -0.1779 -0.0364  0.6997
  154SAPE   H9R17135   5.875   4.604   9.332 -1.7781  1.2676 -0.1046
  154SAPE  C21017136   5.805   4.780   9.419  0.8457 -0.1420  0.2139
  154SAPE  H10R17137   5.744   4.823   9.501  2.2004  0.2229  1.0664
  154SAPE  H10S17138   5.747   4.791   9.325 -0.2431 -0.6559  0.8031
  154SAPE  C21117139   5.929   4.872   9.413 -0.7551  0.5461 -0.7903
  154SAPE  H11R17140   5.964   4.905   9.511 -2.0161  0.6330 -0.3450
  154SAPE  C21217141   5.997   4.891   9.296 -0.6047 -0.1798 -0.2210
  154SAPE  H12R17142   6.084   4.958   9.301 -1.8710  1.6772 -1.5329
  154SAPE  C21317143   5.964   4.847   9.156  0.2158 -0.2612 -0.1504
  154SAPE  H13R17144   5.855   4.868   9.148  0.4508  0.7718 -0.7424
  154SAPE  H13S17145   5.976   4.737   9.152  4.5472 -0.0995  2.2194
  154SAPE  C21417146   6.041   4.928   9.055 -0.1963  0.0300  0.0102
  154SAPE  H14R17147   6.149   4.933   9.074  0.3849 -3.3148 -1.6578
  154SAPE  C21517148   5.988   4.993   8.945 -0.1334  0.2548 -0.4516
  154SAPE  H15R17149   6.054   5.060   8.888 -1.7194  1.4725 -0.9092
  154SAPE  C21617150   5.847   4.985   8.892 -0.1306 -0.8347  0.3169
  154SAPE  H16R17151   5.784   5.044   8.961 -0.5895 -1.0451  0.0841
  154SAPE  H16S17152   5.820   4.878   8.880  0.6427 -0.8045 -2.4530
  154SAPE  C21717153   5.818   5.045   8.749 -0.3373 -0.1614  1.1373
  154SAPE  H17R17154   5.834   5.155   8.749 -1.1336 -0.0344  1.5358
  154SAPE  H17S17155   5.707   5.038   8.739 -0.4475  0.6776  1.6800
  154SAPE  C21817156   5.886   4.961   8.640  0.2683  1.1387 -1.0177
  154SAPE  H18R17157   5.852   4.855   8.648 -0.6889  1.5230  0.3132
  154SAPE  H18S17158   5.995   4.976   8.655  0.6386 -1.0192 -1.2276
  154SAPE  C21917159   5.849   5.002   8.500 -0.0801  0.2677 -0.4838
  154SAPE  H19R17160   5.926   4.966   8.429 -0.6353  0.1339 -1.0192
  154SAPE  H19S17161   5.842   5.113   8.495 -2.0606  0.1194 -2.5998
  154SAPE  C22017162   5.714   4.956   8.440 -0.2840 -0.0485 -0.3177
  154SAPE  H20R17163   5.675   5.007   8.350 -0.7160 -2.1758 -1.4126
  154SAPE  H20S17164   5.640   4.978   8.520 -0.9247  2.1609 -1.4565
  154SAPE  H20T17165   5.728   4.847   8.426  2.0890  0.1422  0.1037
  154SAPE   C3317166   5.808   5.172  10.232 -0.4170  0.6100  1.2017
  154SAPE   H3X17167   5.755   5.075  10.248 -0.5649  0.2817 -1.0178
  154SAPE   H3Y17168   5.916   5.160  10.209 -0.4221  1.5263  0.6513
  154SAPE   C3417169   5.743   5.235  10.110  0.0172  0.0590 -0.3091
  154SAPE   H4X17170   5.784   5.337  10.092 -0.3042  1.0966  3.8067
  154SAPE   H4Y17171   5.632   5.237  10.119  0.1190  0.6639  1.1638
  154SAPE   C3517172   5.760   5.136   9.993 -0.6455  0.1306  0.5679
  154SAPE   H5X17173   5.691   5.050  10.008 -1.4462  0.6537 -0.0051
  154SAPE   H5Y17174   5.861   5.090   9.997 -0.9743 -0.5534  1.2333
  154SAPE   C3617175   5.742   5.195   9.852 -0.8764 -0.4730  0.1283
  154SAPE   H6X17176   5.640   5.235   9.834 -0.7946  0.8177  2.1729
  154SAPE   H6Y17177   5.748   5.109   9.783 -3.2238  0.9763 -2.0480
  154SAPE   C3717178   5.854   5.297   9.810 -0.2190  0.3744  0.2181
  154SAPE   H7X17179   5.953   5.248   9.815  0.8105  2.3882  0.8266
  154SAPE   H7Y17180   5.864   5.390   9.869 -0.4980 -0.2763  1.3176
  154SAPE   C3817181   5.822   5.340   9.669 -0.4490 -0.3262 -0.1207
  154SAPE   H8X17182   5.848   5.447   9.651  2.3090 -0.7396  1.0628
  154SAPE   H8Y17183   5.712   5.332   9.653 -0.7164  0.3076  1.2202
  154SAPE   C3917184   5.899   5.264   9.559 -0.5657 -0.0807 -0.0217
  154SAPE   H9X17185   5.934   5.166   9.596  0.0049  0.6819  1.5454
  154SAPE   H9Y17186   5.986   5.331   9.541 -2.0503  2.6064  1.9608
  154SAPE  C31017187   5.827   5.232   9.428 -0.0328  0.0416 -0.1541
  154SAPE  H10X17188   5.751   5.151   9.437 -1.3606  0.9850 -2.1061
  154SAPE  H10Y17189   5.908   5.197   9.361  0.5525  2.1532 -0.6326
  154SAPE  C31117190   5.770   5.357   9.356 -0.9544 -0.3446  0.2219
  154SAPE  H11X17191   5.853   5.427   9.331 -1.9687  0.5969 -0.6093
  154SAPE  H11Y17192   5.696   5.408   9.422  0.9196  2.5521  0.2686
  154SAPE  C31217193   5.707   5.311   9.216 -0.2760 -0.6460  0.4198
  154SAPE  H12X17194   5.657   5.220   9.254  1.8771 -1.5681  1.2560
  154SAPE  H12Y17195   5.795   5.296   9.149 -0.7133  1.1949 -0.6277
  154SAPE  C31317196   5.620   5.419   9.143 -0.6648  0.1855 -0.0600
  154SAPE  H13X17197   5.679   5.513   9.138 -1.8018  0.9152  0.0510
  154SAPE  H13Y17198   5.522   5.443   9.189 -0.6290  2.6012 -1.0961
  154SAPE  C31417199   5.602   5.383   8.997  0.2746  0.1346 -0.5634
  154SAPE  H14X17200   5.557   5.281   8.997  2.2115 -0.7811  1.2485
  154SAPE  H14Y17201   5.701   5.373   8.948 -0.1086  0.4549 -1.4273
  154SAPE  C31517202   5.517   5.496   8.925  0.1738  0.6143 -0.0405
  154SAPE  H15X17203   5.423   5.508   8.982 -0.5269 -0.5593 -0.8962
  154SAPE  H15Y17204   5.488   5.454   8.826  1.9257 -2.2890  0.5429
  154SAPE  C31617205   5.594   5.624   8.897 -0.0564 -0.1330 -0.1499
  154SAPE  H16X17206   5.627   5.627   8.791  0.9289 -0.1190  0.1417
  154SAPE  H16Y17207   5.693   5.630   8.947  0.9881 -3.6004 -1.4764
  154SAPE  C31717208   5.522   5.755   8.928  0.4892 -0.5589  0.1622
  154SAPE  H17X17209   5.588   5.834   8.886 -0.2826  0.8549  1.5229
  154SAPE  H17Y17210   5.527   5.774   9.038  0.5730 -0.5020  0.1487
  154SAPE  C31817211   5.376   5.764   8.881 -0.3408 -0.2445 -0.1224
  154SAPE  H18X17212   5.306   5.685   8.915 -0.3634  0.0208  0.4648
  154SAPE  H18Y17213   5.374   5.752   8.771  0.0099 -1.7665  0.0125
  154SAPE  H18Z17214   5.333   5.863   8.904  0.7601  0.6934 -1.8957
  155SAPE     N17215   5.170   4.788  11.061 -0.0795 -0.4685 -0.8411
  155SAPE   HN117216   5.266   4.750  11.079 -1.1063 -2.3603  1.0408
  155SAPE   HN217217   5.105   4.707  11.053  0.3082 -0.7270 -1.4562
  155SAPE   HN317218   5.155   4.833  10.968 -1.2042 -0.6895 -0.7698
  155SAPE   C1217219   5.135   4.884  11.177  0.2303 -0.8719  0.4336
  155SAPE  H12A17220   5.160   4.827  11.270 -0.1343  0.8895  1.6521
  155SAPE  H12B17221   5.024   4.894  11.177  0.4242  2.5412 -0.8341
  155SAPE   C1117222   5.204   5.014  11.157  0.2911 -0.0651 -0.1005
  155SAPE  H11A17223   5.312   4.988  11.148  0.0056 -2.6759  2.4515
  155SAPE  H11B17224   5.185   5.077  11.247  0.2236 -1.5458  0.9784
  155SAPE     P17225   5.183   5.250  11.045  0.0874 -0.1109  0.8312
  155SAPE   O1317226   5.053   5.300  11.094 -0.3272 -0.6816 -0.1918
  155SAPE   O1417227   5.304   5.280  11.121  0.0797 -0.2065 -1.0372
  155SAPE   O1217228   5.161   5.090  11.037  0.3228  0.4181  0.1135
  155SAPE   O1117229   5.216   5.282  10.887  0.1837 -0.1457 -0.4764
  155SAPE    C117230   5.262   5.168  10.809  0.3233  0.5797  0.1202
  155SAPE    HA17231   5.372   5.183  10.811  0.2554  1.4377  3.2245
  155SAPE    HB17232   5.237   5.066  10.844 -2.3351  1.4971  1.1885
  155SAPE    C217233   5.198   5.166  10.671 -0.0545 -0.3455 -0.2618
  155SAPE    HS17234   5.244   5.085  10.611  1.7831  0.9112 -0.6101
  155SAPE   O2117235   5.208   5.292  10.615  0.5986 -1.0227 -0.2541
  155SAPE   C2117236   5.326   5.321  10.558  0.9439  0.5109  0.3277
  155SAPE   O2217237   5.422   5.247  10.559 -0.3692 -0.4799  0.0943
  155SAPE   C2217238   5.317   5.448  10.478 -0.3246  0.2396 -0.1468
  155SAPE   H2R17239   5.248   5.436  10.391  1.4798  0.8154 -1.7195
  155SAPE   H2S17240   5.269   5.526  10.540 -2.6235  0.3090 -1.8527
  155SAPE    C317241   5.047   5.137  10.694  0.2207  0.1684 -0.2649
  155SAPE    HX17242   5.014   5.223  10.757  0.6432 -1.0876  1.7835
  155SAPE    HY17243   5.048   5.038  10.746 -0.2856  0.3731  0.1412
  155SAPE   O3117244   4.968   5.120  10.573  0.4740 -0.3290  0.0508
  155SAPE   C3117245   4.832   5.130  10.589  0.0141 -0.2710  0.5902
  155SAPE   O3217246   4.776   5.171  10.686 -0.3688  0.8882 -0.9100
  155SAPE   C3217247   4.766   5.085  10.454  1.2404 -0.6714  0.1758
  155SAPE   H2X17248   4.666   5.039  10.465  0.1017  1.8294  0.8199
  155SAPE   H2Y17249   4.837   5.005  10.421  0.1797 -1.8589  0.6752
  155SAPE   C2317250   5.452   5.506  10.431  0.0140 -0.4688  0.8438
  155SAPE   H3R17251   5.494   5.454  10.342  3.0129 -2.9597  3.4473
  155SAPE   H3S17252   5.539   5.495  10.500 -0.9360 -0.4852  2.0552
  155SAPE   C2417253   5.450   5.661  10.397  0.1179  0.2921 -0.1364
  155SAPE   H4R17254   5.559   5.685  10.396  0.3400 -0.6549  0.7526
  155SAPE   H4S17255   5.418   5.725  10.482  0.6898  1.5193 -0.8049
  155SAPE   C2517256   5.380   5.692  10.269  0.4963  0.6399  0.1629
  155SAPE   H5R17257   5.273   5.718  10.272  0.5654  1.1016 -0.9859
  155SAPE   C2617258   5.428   5.690  10.146  0.2065  0.2433 -0.0002
  155SAPE   H6R17259   5.366   5.723  10.061 -1.6336  2.6464  2.1064
  155SAPE   C2717260   5.567   5.656  10.107 -0.9126  0.8875  0.2250
  155SAPE   H7R17261   5.640   5.635  10.189  0.0654  0.0862 -0.8231
  155SAPE   H7S17262   5.614   5.740  10.053 -1.6080  2.5081  2.0058
  155SAPE   C2817263   5.560   5.535  10.015  0.2029 -0.0084 -0.1523
  155SAPE   H8R17264   5.517   5.448  10.067 -1.2842 -0.5966 -2.2294
  155SAPE   C2917265   5.577   5.533   9.877 -0.2535  0.9799 -0.3350
  155SAPE   H9R17266   5.577   5.438   9.823  1.8139  0.7496 -0.0003
  155SAPE  C21017267   5.605   5.660   9.800  0.1835 -0.1913  0.1101
  155SAPE  H10R17268   5.702   5.711   9.821 -0.6388  2.4527 -2.0202
  155SAPE  H10S17269   5.528   5.738   9.816 -2.0271 -1.9143 -1.4768
  155SAPE  C21117270   5.593   5.623   9.657 -0.1038 -0.4158 -0.3430
  155SAPE  H11R17271   5.513   5.553   9.629 -1.4713 -0.2005  2.6374
  155SAPE  C21217272   5.666   5.687   9.562 -0.1074  0.8250  0.5466
  155SAPE  H12R17273   5.670   5.636   9.465 -0.3657 -0.6921  1.3052
  155SAPE  C21317274   5.768   5.796   9.568  0.5209 -0.2889 -0.4575
  155SAPE  H13R17275   5.805   5.812   9.671 -0.4128  2.3042 -0.4481
  155SAPE  H13S17276   5.720   5.894   9.547 -0.0211  0.0507  2.0856
  155SAPE  C21417277   5.874   5.770   9.460  0.5091 -0.0258 -0.4121
  155SAPE  H14R17278   5.955   5.707   9.500 -0.9913 -0.8001  1.6182
  155SAPE  C21517279   5.876   5.804   9.332 -0.0383  0.0922 -0.5216
  155SAPE  H15R17280   5.970   5.783   9.280 -0.4225  0.3055 -1.3219
  155SAPE  C21617281   5.771   5.883   9.258  0.0997 -1.0136  0.1854
  155SAPE  H16R17282   5.679   5.912   9.313 -1.0121 -1.1755 -1.4981
  155SAPE  H16S17283   5.737   5.816   9.176  1.7918  1.6453 -2.9312
  155SAPE  C21717284   5.835   6.014   9.202  0.1693 -0.5036 -0.0502
  155SAPE  H17R17285   5.893   5.964   9.121  1.6295 -3.1333  2.4006
  155SAPE  H17S17286   5.914   6.053   9.270  0.1569 -2.0614  0.9234
  155SAPE  C21817287   5.736   6.127   9.155 -0.1404  0.4355 -0.1332
  155SAPE  H18R17288   5.784   6.220   9.119 -2.6225  2.2438  0.9334
  155SAPE  H18S17289   5.674   6.149   9.245 -0.0535 -2.4377  0.7478
  155SAPE  C21917290   5.634   6.085   9.051  0.3198  0.1818  0.0574
  155SAPE  H19R17291   5.598   5.988   9.090 -0.3621  0.0503 -0.8851
  155SAPE  H19S17292   5.685   6.080   8.953 -0.5513  1.4470 -0.4986
  155SAPE  C22017293   5.511   6.174   9.048 -0.0474  0.1711  0.1350
  155SAPE  H20R17294   5.518   6.254   8.971  0.2763  0.8169  0.8229
  155SAPE  H20S17295   5.487   6.230   9.141  0.1080 -0.5656  0.6277
  155SAPE  H20T17296   5.422   6.118   9.013 -0.0946  1.1392 -1.3776
  155SAPE   C3317297   4.756   5.207  10.358  0.4505  1.2970 -0.4502
  155SAPE   H3X17298   4.851   5.263  10.344  1.0257  0.2197 -0.9576
  155SAPE   H3Y17299   4.671   5.265  10.399 -1.3664 -0.3465 -1.7053
  155SAPE   C3417300   4.731   5.147  10.221  0.3202 -0.8323  0.1545
  155SAPE   H4X17301   4.626   5.114  10.209 -0.7746  2.2452  0.5842
  155SAPE   H4Y17302   4.796   5.058  10.205 -0.3513 -1.2487 -0.2888
  155SAPE   C3517303   4.748   5.255  10.108  0.4179 -0.0011  0.4105
  155SAPE   H5X17304   4.841   5.310  10.132  0.7223 -1.4875  2.9965
  155SAPE   H5Y17305   4.659   5.322  10.117 -1.2034 -1.6660 -1.9518
  155SAPE   C3617306   4.740   5.215   9.966 -0.0628 -0.6796 -0.5118
  155SAPE   H6X17307   4.634   5.181   9.966 -0.5422  0.7689 -0.6218
  155SAPE   H6Y17308   4.811   5.136   9.932  2.4349  0.4202  1.7899
  155SAPE   C3717309   4.764   5.336   9.878 -0.1970 -0.2172  0.1455
  155SAPE   H7X17310   4.863   5.372   9.914  0.9126 -2.9649  0.0735
  155SAPE   H7Y17311   4.692   5.420   9.895 -0.4345 -0.6671  1.5106
  155SAPE   C3817312   4.762   5.308   9.724 -0.4100  0.3175  0.0912
  155SAPE   H8X17313   4.828   5.219   9.709 -2.1294 -0.8380 -1.0454
  155SAPE   H8Y17314   4.799   5.396   9.668  0.8490  0.0083  0.3893
  155SAPE   C3917315   4.626   5.282   9.661  0.3499  0.4942  0.2452
  155SAPE   H9X17316   4.559   5.368   9.683 -0.4385 -0.4499  1.7185
  155SAPE   H9Y17317   4.572   5.198   9.709  0.5803  0.1256 -0.1347
  155SAPE  C31017318   4.641   5.253   9.507  0.1837  0.1653  0.0693
  155SAPE  H10X17319   4.549   5.213   9.459  0.4693 -1.2346  0.6302
  155SAPE  H10Y17320   4.720   5.177   9.487  0.3348  0.3727 -0.1276
  155SAPE  C31117321   4.664   5.389   9.427  0.9551 -0.3690  0.4943
  155SAPE  H11X17322   4.749   5.437   9.479  0.7156 -0.7232  1.2245
  155SAPE  H11Y17323   4.574   5.455   9.426  1.4389  0.3172  1.0566
  155SAPE  C31217324   4.723   5.374   9.282  1.4664  0.1049  0.0822
  155SAPE  H12X17325   4.799   5.296   9.304  1.9741  0.9330  1.3907
  155SAPE  H12Y17326   4.785   5.465   9.269  2.5508 -0.6870 -0.4394
  155SAPE  C31317327   4.615   5.357   9.177 -0.3177  0.1686  0.4988
  155SAPE  H13X17328   4.539   5.437   9.191  0.2928  0.4017  2.7981
  155SAPE  H13Y17329   4.558   5.264   9.200 -1.7498 -0.1932 -3.6898
  155SAPE  C31417330   4.675   5.362   9.032  0.1741 -0.0814 -0.3072
  155SAPE  H14X17331   4.765   5.298   9.021  0.1731  0.2602 -2.8534
  155SAPE  H14Y17332   4.713   5.466   9.022  1.8223 -0.6755 -0.5983
  155SAPE  C31517333   4.585   5.326   8.917  0.0116  0.3755 -0.2655
  155SAPE  H15X17334   4.651   5.333   8.828  0.1726 -0.7857 -0.2481
  155SAPE  H15Y17335   4.502   5.400   8.912 -0.9267 -0.7187 -2.0313
  155SAPE  C31617336   4.550   5.177   8.913 -0.0402  1.1973  0.2753
  155SAPE  H16X17337   4.530   5.146   9.018  0.1746  1.6776  0.4578
  155SAPE  H16Y17338   4.641   5.124   8.875  1.5017  2.9788  1.3172
  155SAPE  C31717339   4.427   5.156   8.824  0.0947  0.0604  0.6642
  155SAPE  H17X17340   4.367   5.249   8.830  1.0746  0.7347  0.3428
  155SAPE  H17Y17341   4.379   5.071   8.877  2.8084 -1.5841  0.7033
  155SAPE  C31817342   4.459   5.109   8.683 -1.0532 -1.0205  1.1578
  155SAPE  H18X17343   4.371   5.070   8.627 -0.1122  0.3893 -1.4600
  155SAPE  H18Y17344   4.545   5.039   8.678  0.9833  1.4273 -1.9715
  155SAPE  H18Z17345   4.491   5.196   8.623 -0.1437 -1.9145  0.2980
  156SAPE     N17346   3.864   2.979  11.110  0.2088 -0.2691  0.4694
  156SAPE   HN117347   3.871   3.067  11.164 -0.0977 -0.5784  1.0265
  156SAPE   HN217348   3.777   2.931  11.141  0.2693 -1.8345 -1.5468
  156SAPE   HN317349   3.935   2.913  11.147  2.3349  2.2380  1.0745
  156SAPE   C1217350   3.872   2.991  10.962 -0.3755 -0.7094 -0.4908
  156SAPE  H12A17351   3.870   2.888  10.922  1.3115 -1.1489  0.4603
  156SAPE  H12B17352   3.960   3.052  10.933  1.1603 -2.6548 -0.0945
  156SAPE   C1117353   3.738   3.045  10.907  0.4827 -1.0602 -0.0709
  156SAPE  H11A17354   3.661   2.981  10.957  0.3330  0.7849  2.2358
  156SAPE  H11B17355   3.735   3.038  10.796  0.8964 -1.0605 -0.0837
  156SAPE     P17356   3.799   3.294  10.895  0.2859 -0.1283 -0.2058
  156SAPE   O1317357   3.714   3.409  10.903  0.0856 -0.6797  0.5665
  156SAPE   O1417358   3.923   3.300  10.973  0.0879  0.1665  0.4717
  156SAPE   O1217359   3.716   3.179  10.945  0.0365 -0.0331 -0.1929
  156SAPE   O1117360   3.829   3.268  10.740 -0.1832  0.6699  0.1627
  156SAPE    C117361   3.756   3.338  10.634  0.0423  0.4241 -0.0798
  156SAPE    HA17362   3.668   3.400  10.659  0.8024  1.0346  1.1536
  156SAPE    HB17363   3.822   3.401  10.571 -0.4146 -0.1094 -1.1153
  156SAPE    C217364   3.715   3.228  10.532 -1.0277  0.4846  0.0159
  156SAPE    HS17365   3.661   3.272  10.445  0.5497  1.0360 -0.7346
  156SAPE   O2117366   3.630   3.125  10.596 -0.1889  0.0605  0.3768
  156SAPE   C2117367   3.500   3.162  10.618  0.3098 -0.1967  0.4817
  156SAPE   O2217368   3.453   3.275  10.599 -0.4103 -0.2286  0.0038
  156SAPE   C2217369   3.413   3.037  10.650  0.8314  0.4705 -0.4251
  156SAPE   H2R17370   3.478   2.953  10.682  2.9870  2.6695  1.3143
  156SAPE   H2S17371   3.356   3.077  10.737 -1.0518  0.2563 -1.4962
  156SAPE    C317372   3.845   3.155  10.484 -0.0596 -0.2261  0.1259
  156SAPE    HX17373   3.911   3.106  10.559 -0.2190 -1.6487 -0.6381
  156SAPE    HY17374   3.916   3.232  10.448 -0.1409  0.1073  0.6597
  156SAPE   O3117375   3.803   3.070  10.375  0.0367  0.1272  0.1572
  156SAPE   C3117376   3.844   2.943  10.391 -0.5033  0.0016 -0.1695
  156SAPE   O3217377   3.906   2.894  10.479 -0.3937 -0.7021 -0.6488
  156SAPE   C3217378   3.787   2.873  10.271 -0.0883  0.3333 -0.2825
  156SAPE   H2X17379   3.789   2.938  10.181 -0.6365 -0.6140 -1.0045
  156SAPE   H2Y17380   3.679   2.881  10.297  0.3267 -0.3606  1.8385
  156SAPE   C2317381   3.313   3.012  10.534  0.9708 -0.3034 -0.4829
  156SAPE   H3R17382   3.254   3.105  10.521  1.9298  0.4558  0.3337
  156SAPE   H3S17383   3.247   2.926  10.558 -0.0306  0.8726  1.2007
  156SAPE   C2417384   3.380   2.984  10.392  0.0743  0.3311 -0.2451
  156SAPE   H4R17385   3.437   2.888  10.393  0.7533  0.5586 -3.8930
  156SAPE   H4S17386   3.460   3.060  10.377  0.9005 -0.5129 -0.2234
  156SAPE   C2517387   3.276   2.979  10.286  0.8147 -0.6862 -0.7880
  156SAPE   H5R17388   3.204   2.896  10.295 -1.9251  1.6025 -0.2659
  156SAPE   C2617389   3.275   3.069  10.180  0.3976 -0.2154  0.2512
  156SAPE   H6R17390   3.189   3.069  10.111  1.2887 -2.0232 -0.9540
  156SAPE   C2717391   3.364   3.192  10.147 -0.5740  0.1249 -0.9481
  156SAPE   H7R17392   3.377   3.251  10.240 -3.1870  2.0487 -1.6900
  156SAPE   H7S17393   3.323   3.257  10.067  0.3944 -1.4880 -2.8364
  156SAPE   C2817394   3.497   3.148  10.098  0.1870 -0.9307 -0.4129
  156SAPE   H8R17395   3.576   3.167  10.171 -1.1395  2.3289  0.3718
  156SAPE   C2917396   3.519   3.101   9.976  0.1694  1.0152 -0.0005
  156SAPE   H9R17397   3.620   3.071   9.942  0.1695  0.8905  0.1066
  156SAPE  C21017398   3.414   3.078   9.871  0.4001  0.0674  0.3950
  156SAPE  H10R17399   3.397   3.175   9.819 -0.6811 -0.4248 -0.2110
  156SAPE  H10S17400   3.314   3.057   9.915  0.1596  0.0326 -0.1645
  156SAPE  C21117401   3.444   2.974   9.765  0.0279  0.3806 -0.0540
  156SAPE  H11R17402   3.483   2.876   9.795 -2.6729 -0.0246  2.6206
  156SAPE  C21217403   3.387   2.978   9.640  0.5638  0.5299 -0.1325
  156SAPE  H12R17404   3.429   2.910   9.565 -0.2959  0.6737 -0.7619
  156SAPE  C21317405   3.299   3.089   9.593 -0.5265  1.0802  0.0978
  156SAPE  H13R17406   3.365   3.164   9.544  0.5412  0.0264 -0.1448
  156SAPE  H13S17407   3.252   3.141   9.678  1.4494 -2.7172  3.8865
  156SAPE  C21417408   3.205   3.030   9.495  0.3723  0.0899  0.1527
  156SAPE  H14R17409   3.135   2.962   9.544 -0.8891  1.9882  1.0827
  156SAPE  C21517410   3.203   3.059   9.363  0.4122  0.1094 -0.0384
  156SAPE  H15R17411   3.133   2.995   9.306  1.5990 -0.7504 -0.5737
  156SAPE  C21617412   3.294   3.154   9.285  0.4784  0.0060 -0.8011
  156SAPE  H16R17413   3.386   3.176   9.343 -1.2516  0.1858  2.0908
  156SAPE  H16S17414   3.233   3.246   9.271 -1.0823 -0.4682  2.0127
  156SAPE  C21717415   3.342   3.109   9.143  0.1131 -0.3641  0.2467
  156SAPE  H17R17416   3.377   3.004   9.150 -3.1049 -1.6209 -0.7479
  156SAPE  H17S17417   3.432   3.162   9.105  0.5729 -0.5088  1.1029
  156SAPE  C21817418   3.237   3.131   9.035  0.1441  0.5218 -0.7478
  156SAPE  H18R17419   3.203   3.236   9.028  1.4814  1.0459  0.1859
  156SAPE  H18S17420   3.150   3.064   9.051  1.2915 -0.3470  2.6835
  156SAPE  C21917421   3.295   3.093   8.898 -0.0211  0.0006  0.2571
  156SAPE  H19R17422   3.399   3.133   8.893  1.4447 -3.5137 -1.5548
  156SAPE  H19S17423   3.239   3.129   8.809  2.2906 -0.5609 -1.5392
  156SAPE  C22017424   3.297   2.938   8.883 -0.3459 -0.9861  0.4700
  156SAPE  H20R17425   3.195   2.904   8.855 -0.6501  0.3677 -0.1922
  156SAPE  H20S17426   3.321   2.893   8.982  0.4562 -2.1035 -0.2100
  156SAPE  H20T17427   3.366   2.894   8.808 -0.2834  0.2930 -0.2612
  156SAPE   C3317428   3.842   2.732  10.246 -0.2074  0.2577  0.2503
  156SAPE   H3X17429   3.799   2.659  10.319 -1.6160 -0.8774 -1.6026
  156SAPE   H3Y17430   3.952   2.722  10.256 -0.2385  0.7786  1.2112
  156SAPE   C3417431   3.804   2.663  10.117  0.4655  0.3734  0.6521
  156SAPE   H4X17432   3.696   2.665  10.091 -0.1571  2.2446  3.0425
  156SAPE   H4Y17433   3.829   2.555  10.127 -1.0378 -0.0271  0.3372
  156SAPE   C3517434   3.879   2.720   9.989 -0.2373 -0.7039  0.1020
  156SAPE   H5X17435   3.975   2.770  10.014  0.3934 -1.1413 -1.3922
  156SAPE   H5Y17436   3.813   2.798   9.944  1.4752  0.9265  0.2858
  156SAPE   C3617437   3.898   2.626   9.868  0.0622 -0.4420  0.3524
  156SAPE   H6X17438   3.958   2.538   9.900 -1.1084 -1.1688  0.5799
  156SAPE   H6Y17439   3.948   2.682   9.786 -1.1938  1.3943  0.7774
  156SAPE   C3717440   3.761   2.578   9.816  0.3835 -0.4796  1.2127
  156SAPE   H7X17441   3.698   2.656   9.768 -0.0112 -1.2375  0.4764
  156SAPE   H7Y17442   3.701   2.541   9.902  0.1752 -0.0939  1.2352
  156SAPE   C3817443   3.774   2.455   9.714 -0.2142  0.6796 -0.3830
  156SAPE   H8X17444   3.682   2.393   9.713  1.2660 -1.6913  0.8803
  156SAPE   H8Y17445   3.856   2.390   9.750  0.0373  1.3556  0.3076
  156SAPE   C3917446   3.798   2.494   9.569 -1.1539  0.1315 -0.6385
  156SAPE   H9X17447   3.898   2.539   9.549 -0.6923 -0.6876 -0.2202
  156SAPE   H9Y17448   3.720   2.569   9.544  0.6698  2.3770  0.0094
  156SAPE  C31017449   3.797   2.383   9.461 -0.0225 -0.4635  0.1117
  156SAPE  H10X17450   3.811   2.422   9.358  0.0745  1.8924  0.9596
  156SAPE  H10Y17451   3.699   2.331   9.461 -0.1275 -0.2937  1.4169
  156SAPE  C31117452   3.901   2.268   9.490  0.9473  0.0845  0.4491
  156SAPE  H11X17453   3.872   2.230   9.590 -0.5769  1.0804  0.4270
  156SAPE  H11Y17454   4.007   2.300   9.499  1.1555 -0.9172  1.9107
  156SAPE  C31217455   3.892   2.145   9.398 -0.1084 -0.0073  0.1930
  156SAPE  H12X17456   3.974   2.150   9.323  0.0001  0.2463  0.3303
  156SAPE  H12Y17457   3.794   2.145   9.345  0.7378 -0.5054 -1.4538
  156SAPE  C31317458   3.898   2.020   9.483 -0.2081 -0.5180  0.1859
  156SAPE  H13X17459   3.807   2.023   9.546 -0.1462 -0.7815  0.2890
  156SAPE  H13Y17460   3.988   2.033   9.547  0.9541 -0.6498 -1.3597
  156SAPE  C31417461   3.896   1.891   9.407  0.1274  0.3221 -0.2885
  156SAPE  H14X17462   3.991   1.879   9.351 -0.0937 -1.2635 -0.3834
  156SAPE  H14Y17463   3.816   1.890   9.330  3.1463 -0.7016 -3.6771
  156SAPE  C31517464   3.890   1.764   9.495  0.3167  0.5792 -0.1769
  156SAPE  H15X17465   3.786   1.758   9.533 -0.3119 -1.5424 -1.9778
  156SAPE  H15Y17466   3.958   1.771   9.582  0.3868 -0.3381 -0.1389
  156SAPE  C31617467   3.898   1.628   9.411  0.1385  0.3206 -0.2456
  156SAPE  H16X17468   3.818   1.642   9.335 -0.4639  1.4716  0.5633
  156SAPE  H16Y17469   3.876   1.538   9.472 -1.0326 -0.7605 -2.1742
  156SAPE  C31717470   4.027   1.616   9.328  0.1065 -0.0737  0.5528
  156SAPE  H17X17471   4.112   1.618   9.399  0.3920 -2.0273  0.3262
  156SAPE  H17Y17472   4.033   1.705   9.261  0.7928 -0.6005 -0.1128
  156SAPE  C31817473   4.027   1.495   9.233 -0.3180  0.9418  0.3297
  156SAPE  H18X17474   4.112   1.500   9.162  0.1804  1.4162  0.9539
  156SAPE  H18Y17475   3.933   1.502   9.174 -1.1152 -0.9777  1.2836
  156SAPE  H18Z17476   4.027   1.397   9.286 -0.0887 -0.1824 -1.6639
  157SAPE     N17477   3.166   3.733  10.888 -0.0374  0.0552  0.0194
  157SAPE   HN117478   3.263   3.753  10.920 -0.2151  0.5429  0.2556
  157SAPE   HN217479   3.146   3.800  10.812  0.6601 -0.9948 -1.1258
  157SAPE   HN317480   3.098   3.759  10.962 -0.7134 -0.0585 -0.5557
  157SAPE   C1217481   3.129   3.592  10.845 -0.3411  0.7475 -0.5194
  157SAPE  H12A17482   3.188   3.524  10.909  0.2348  0.6265 -1.1662
  157SAPE  H12B17483   3.170   3.585  10.742  2.2458  2.3062  0.3169
  157SAPE   C1117484   2.982   3.559  10.869  0.2242 -0.2783  1.2149
  157SAPE  H11A17485   2.970   3.451  10.849  2.2593 -0.5900  1.4855
  157SAPE  H11B17486   2.916   3.612  10.797 -0.8569 -1.5216  1.2566
  157SAPE     P17487   2.813   3.672  11.032 -0.2430  0.3373 -0.0523
  157SAPE   O1317488   2.760   3.634  11.163 -0.3694  0.1530 -0.4448
  157SAPE   O1417489   2.845   3.812  11.005 -0.2618 -0.3141 -0.5222
  157SAPE   O1217490   2.941   3.589  11.003 -0.2517  0.0753 -0.2369
  157SAPE   O1117491   2.712   3.619  10.912 -0.0190  0.1468 -0.7820
  157SAPE    C117492   2.629   3.501  10.945 -0.2269  0.2734 -0.5056
  157SAPE    HA17493   2.582   3.506  11.046 -0.1434  1.9556 -0.5238
  157SAPE    HB17494   2.543   3.497  10.874 -0.3938  0.2395 -0.3030
  157SAPE    C217495   2.711   3.365  10.931 -0.6678 -0.3253 -0.3026
  157SAPE    HS17496   2.802   3.382  10.993  0.0237  0.5646 -1.5217
  157SAPE   O2117497   2.749   3.340  10.796 -0.3564  0.1246  0.3157
  157SAPE   C2117498   2.840   3.253  10.764 -0.4987 -0.6944  0.4684
  157SAPE   O2217499   2.913   3.197  10.844  0.3063 -0.2001 -0.1532
  157SAPE   C2217500   2.836   3.232  10.609 -0.1384  0.0931  0.1659
  157SAPE   H2R17501   2.726   3.221  10.592 -0.6445  1.9469  1.8311
  157SAPE   H2S17502   2.859   3.328  10.559 -2.0779 -0.0299 -1.0852
  157SAPE    C317503   2.639   3.248  10.990  0.5838 -0.3268 -0.0979
  157SAPE    HX17504   2.622   3.278  11.096  1.8928 -0.6277  0.2148
  157SAPE    HY17505   2.701   3.156  10.993  0.7271 -0.2079  1.3396
  157SAPE   O3117506   2.512   3.232  10.919  0.4953 -0.1595 -0.4920
  157SAPE   C3117507   2.495   3.119  10.840 -0.3317 -0.5279 -0.1872
  157SAPE   O3217508   2.587   3.045  10.808 -0.4798 -0.1093 -0.3550
  157SAPE   C3217509   2.350   3.099  10.810  0.0277 -0.2593  0.2400
  157SAPE   H2X17510   2.304   3.194  10.775  1.4721  0.9503  1.4692
  157SAPE   H2Y17511   2.299   3.087  10.909  0.8781  0.8365  0.8413
  157SAPE   C2317512   2.930   3.115  10.565  0.0917 -0.3832 -0.3491
  157SAPE   H3R17513   2.930   3.038  10.646 -0.0932 -0.1373 -0.1158
  157SAPE   H3S17514   3.032   3.157  10.559  0.1681 -0.6901 -1.2803
  157SAPE   C2417515   2.890   3.042  10.433  0.0133 -0.1248  0.5470
  157SAPE   H4R17516   2.981   2.985  10.405 -1.0090 -1.2172 -0.6036
  157SAPE   H4S17517   2.876   3.112  10.348  0.0197  1.1507  1.5652
  157SAPE   C2517518   2.767   2.964  10.451  0.7485 -0.3689 -0.3705
  157SAPE   H5R17519   2.713   2.972  10.547 -1.7653  1.3760 -1.8298
  157SAPE   C2617520   2.724   2.877  10.356  0.1091  0.0406 -0.0028
  157SAPE   H6R17521   2.627   2.828  10.374  0.6085 -0.9115  0.1960
  157SAPE   C2717522   2.791   2.856  10.222  0.0188 -0.2186 -0.0873
  157SAPE   H7R17523   2.771   2.749  10.199 -2.8646  0.6930 -2.4636
  157SAPE   H7S17524   2.901   2.874  10.228  0.6046 -3.0197 -0.6674
  157SAPE   C2817525   2.728   2.930  10.104 -0.2795  0.1664 -0.1946
  157SAPE   H8R17526   2.628   2.973  10.118 -0.1255  0.1672  1.0658
  157SAPE   C2917527   2.773   2.940   9.980  0.4749  0.2845  0.5087
  157SAPE   H9R17528   2.719   2.993   9.900  0.6610  1.7013  1.2996
  157SAPE  C21017529   2.907   2.881   9.938 -0.0084 -0.5603 -0.4064
  157SAPE  H10R17530   2.939   2.796  10.002 -2.3368 -0.5689  0.8625
  157SAPE  H10S17531   2.975   2.962   9.972 -0.4993 -0.7303  1.0731
  157SAPE  C21117532   2.925   2.841   9.791 -0.0709  0.5783 -0.2962
  157SAPE  H11R17533   2.973   2.926   9.739  0.9078 -0.1647 -0.6464
  157SAPE  C21217534   2.887   2.730   9.720 -0.0320 -0.6678  0.2079
  157SAPE  H12R17535   2.902   2.724   9.611 -1.0528  0.5122 -0.0266
  157SAPE  C21317536   2.813   2.601   9.764 -0.5383 -0.1883 -0.0554
  157SAPE  H13R17537   2.804   2.618   9.873 -0.7576  0.1683 -0.1258
  157SAPE  H13S17538   2.882   2.517   9.744 -0.3490 -0.1026  0.2323
  157SAPE  C21417539   2.676   2.589   9.694 -0.1478  0.1044  0.4624
  157SAPE  H14R17540   2.647   2.654   9.610  0.6476 -1.3565 -0.9915
  157SAPE  C21517541   2.586   2.501   9.735 -0.1168 -0.0740  0.7458
  157SAPE  H15R17542   2.494   2.486   9.677  1.0096  0.0041 -1.1434
  157SAPE  C21617543   2.596   2.400   9.841  0.4032  0.6512 -0.2406
  157SAPE  H16R17544   2.700   2.364   9.855  0.1599  0.1047  0.2195
  157SAPE  H16S17545   2.531   2.312   9.822  0.1072  0.3983  1.6786
  157SAPE  C21717546   2.570   2.456   9.988 -0.4461  1.0167  0.1227
  157SAPE  H17R17547   2.480   2.520   9.979  0.1719  1.6277 -2.8325
  157SAPE  H17S17548   2.647   2.528  10.025  0.0247  1.8376 -2.3056
  157SAPE  C21817549   2.549   2.357  10.107  0.3502 -0.0036  0.6294
  157SAPE  H18R17550   2.615   2.268  10.111  0.2074 -0.0849  1.1999
  157SAPE  H18S17551   2.447   2.317  10.092 -0.1682  0.4232  2.7362
  157SAPE  C21917552   2.570   2.432  10.237  0.2630  0.2370 -0.3793
  157SAPE  H19R17553   2.511   2.527  10.232  1.0633  0.7195 -0.8338
  157SAPE  H19S17554   2.679   2.443  10.255  0.0304  0.4049  1.0481
  157SAPE  C22017555   2.524   2.363  10.367 -0.2515 -0.1850 -0.0235
  157SAPE  H20R17556   2.417   2.391  10.373 -0.5346  0.9158 -5.3726
  157SAPE  H20S17557   2.587   2.393  10.454  0.1657  0.3875 -0.5086
  157SAPE  H20T17558   2.542   2.254  10.365  1.7939  0.0963  0.0176
  157SAPE   C3317559   2.317   2.982  10.711 -0.0445  0.3154 -0.2110
  157SAPE   H3X17560   2.210   2.959  10.733  1.0558 -2.6000  2.8306
  157SAPE   H3Y17561   2.370   2.889  10.737 -1.6673 -0.3488  0.9022
  157SAPE   C3417562   2.342   3.028  10.564 -0.3037 -0.1727 -0.4422
  157SAPE   H4X17563   2.448   3.061  10.555 -0.4049  0.8814  1.7426
  157SAPE   H4Y17564   2.282   3.121  10.552  0.6463  0.6207  0.7526
  157SAPE   C3517565   2.302   2.921  10.459  0.8508 -0.6217 -1.7367
  157SAPE   H5X17566   2.191   2.913  10.463  0.8297  0.0969 -0.4833
  157SAPE   H5Y17567   2.361   2.831  10.488  1.7987 -0.0221 -1.7808
  157SAPE   C3617568   2.348   2.961  10.318  0.6505 -0.1775 -0.1410
  157SAPE   H6X17569   2.457   2.978  10.328  0.6868 -0.8269  0.5886
  157SAPE   H6Y17570   2.295   3.053  10.284  0.9169  0.4737  1.1342
  157SAPE   C3717571   2.314   2.854  10.220 -0.3461 -0.6317 -0.2346
  157SAPE   H7X17572   2.213   2.813  10.237 -0.2881  0.1161  2.3921
  157SAPE   H7Y17573   2.388   2.772  10.230  0.1890 -0.3191 -1.4663
  157SAPE   C3817574   2.313   2.910  10.075 -0.3294  0.0790 -0.8817
  157SAPE   H8X17575   2.411   2.961  10.062  0.6018 -0.8999  1.6668
  157SAPE   H8Y17576   2.237   2.990  10.065  0.6917  1.2647  0.3966
  157SAPE   C3917577   2.301   2.792   9.977 -0.3904  0.2290 -0.0180
  157SAPE   H9X17578   2.195   2.804   9.945 -0.3418 -0.5042 -0.4787
  157SAPE   H9Y17579   2.331   2.700  10.032  1.7303  0.6899 -0.3149
  157SAPE  C31017580   2.379   2.816   9.847 -0.1202  0.0313 -0.4426
  157SAPE  H10X17581   2.410   2.714   9.814  0.7904  0.2798 -0.3791
  157SAPE  H10Y17582   2.469   2.878   9.867 -0.8231  1.3689 -1.2555
  157SAPE  C31117583   2.300   2.882   9.731  0.1756  0.1037 -0.7840
  157SAPE  H11X17584   2.304   2.989   9.757  3.5517 -0.5683  2.1480
  157SAPE  H11Y17585   2.202   2.829   9.735  1.1860 -1.8206 -0.1603
  157SAPE  C31217586   2.374   2.865   9.601 -0.5586 -0.5600  0.4697
  157SAPE  H12X17587   2.392   2.755   9.598 -2.3595 -0.8807 -0.0665
  157SAPE  H12Y17588   2.473   2.913   9.611  0.0816 -1.9367  0.9886
  157SAPE  C31317589   2.315   2.924   9.480  0.0623  0.2363  1.1370
  157SAPE  H13X17590   2.303   3.034   9.486 -0.6408  0.2316  0.0775
  157SAPE  H13Y17591   2.211   2.892   9.460 -0.1684  1.1130  0.9001
  157SAPE  C31417592   2.401   2.887   9.357  0.0390  0.2801 -0.3047
  157SAPE  H14X17593   2.400   2.776   9.350  0.3375  0.2957 -0.5926
  157SAPE  H14Y17594   2.507   2.911   9.382 -0.9266  1.5232  3.2655
  157SAPE  C31517595   2.365   2.942   9.221 -0.5035  0.2018  0.2011
  157SAPE  H15X17596   2.443   2.906   9.151 -0.6271  0.9497 -0.3363
  157SAPE  H15Y17597   2.383   3.051   9.212  1.2196 -0.1535 -1.2332
  157SAPE  C31617598   2.230   2.891   9.174 -0.4296 -0.6135  0.4370
  157SAPE  H16X17599   2.147   2.960   9.198 -0.6330 -1.2712  1.7320
  157SAPE  H16Y17600   2.198   2.789   9.205  0.3824 -1.4735 -1.3878
  157SAPE  C31717601   2.232   2.866   9.026  0.5450  0.5468  0.4386
  157SAPE  H17X17602   2.144   2.801   9.008  1.9619 -1.4697  0.5198
  157SAPE  H17Y17603   2.312   2.797   8.993  0.4928  0.0753  1.2743
  157SAPE  C31817604   2.217   2.993   8.940 -0.1353  0.3418 -0.5997
  157SAPE  H18X17605   2.219   2.974   8.831 -1.7198  2.6656 -1.0935
  157SAPE  H18Y17606   2.302   3.063   8.955  0.0164 -0.0024  0.2321
  157SAPE  H18Z17607   2.124   3.045   8.971 -0.9242 -1.1121 -0.4069
  158SAPE     N17608   4.577   4.416  10.885 -0.2003 -0.6172 -0.2192
  158SAPE   HN117609   4.621   4.368  10.966 -2.7475 -2.9222 -0.0807
  158SAPE   HN217610   4.611   4.514  10.894  1.6225 -1.3230  1.2715
  158SAPE   HN317611   4.476   4.404  10.903 -0.0196 -0.9214  0.6318
  158SAPE   C1217612   4.637   4.343  10.771  0.2238 -0.1556  0.0701
  158SAPE  H12A17613   4.608   4.405  10.683 -1.5226  2.9024  2.5808
  158SAPE  H12B17614   4.589   4.244  10.756  0.2031  0.0609 -1.5105
  158SAPE   C1117615   4.792   4.329  10.782  0.6457  0.4053 -1.0786
  158SAPE  H11A17616   4.817   4.292  10.680 -0.0839 -1.2422 -0.7036
  158SAPE  H11B17617   4.823   4.248  10.852 -0.5397  1.5851  0.8869
  158SAPE     P17618   5.002   4.453  10.873  0.0235  0.1005 -0.2739
  158SAPE   O1317619   5.039   4.590  10.918  0.0304 -0.3706 -0.2826
  158SAPE   O1417620   5.039   4.343  10.969 -0.2004 -0.4689  0.0388
  158SAPE   O1217621   4.851   4.449  10.827  0.2394  0.1150 -0.5888
  158SAPE   O1117622   5.071   4.427  10.742  0.0494 -0.6997  0.8612
  158SAPE    C117623   5.110   4.539  10.661 -0.3351 -0.1897  0.0515
  158SAPE    HA17624   5.173   4.610  10.718 -2.3091 -0.6205  2.9537
  158SAPE    HB17625   5.176   4.507  10.577 -0.9398  1.2078 -0.9891
  158SAPE    C217626   4.992   4.608  10.591  0.3044  0.2869  0.2949
  158SAPE    HS17627   4.921   4.646  10.668 -1.2387 -2.2081  0.2271
  158SAPE   O2117628   4.917   4.509  10.516  0.2962 -0.4029  0.1475
  158SAPE   C2117629   4.783   4.532  10.479 -0.2591 -0.3894 -0.1755
  158SAPE   O2217630   4.729   4.637  10.509 -0.1748  0.1194  0.6715
  158SAPE   C2217631   4.722   4.426  10.382 -0.3460  0.4809  0.1775
  158SAPE   H2R17632   4.801   4.347  10.375 -1.6639 -0.9361  0.7494
  158SAPE   H2S17633   4.633   4.388  10.436 -0.8764  3.0422  1.2517
  158SAPE    C317634   5.035   4.729  10.503  0.3025 -0.4481  0.4167
  158SAPE    HX17635   5.057   4.815  10.569 -3.0780 -0.2497  1.4692
  158SAPE    HY17636   4.951   4.753  10.434 -0.5777  2.8151  2.4004
  158SAPE   O3117637   5.151   4.699  10.427 -0.2777 -0.3018  0.5313
  158SAPE   C3117638   5.141   4.614  10.329 -0.0276 -0.2934  0.0891
  158SAPE   O3217639   5.040   4.577  10.270 -0.4322 -0.0972 -0.4832
  158SAPE   C3217640   5.286   4.576  10.289 -0.0781 -0.2256  0.4174
  158SAPE   H2X17641   5.301   4.468  10.311  0.5028  0.1533  1.9517
  158SAPE   H2Y17642   5.355   4.628  10.359  0.3179 -0.0313 -0.1057
  158SAPE   C2317643   4.690   4.483  10.237 -0.8855  1.1048  0.0014
  158SAPE   H3R17644   4.767   4.560  10.217 -1.4945  1.5623 -0.6306
  158SAPE   H3S17645   4.592   4.536  10.238 -3.5047 -3.1767  1.0743
  158SAPE   C2417646   4.705   4.382  10.130  0.1370  0.2149  0.3393
  158SAPE   H4R17647   4.644   4.293  10.156 -0.2342  0.2498 -0.3858
  158SAPE   H4S17648   4.807   4.344  10.111 -0.2517 -0.0868 -1.3476
  158SAPE   C2517649   4.657   4.436   9.999  0.0555 -0.8644 -0.5232
  158SAPE   H5R17650   4.554   4.411   9.973 -0.5093  0.0179  0.7416
  158SAPE   C2617651   4.723   4.525   9.925  0.0309  0.6506  0.4022
  158SAPE   H6R17652   4.664   4.567   9.843 -0.2931  1.9832  1.2956
  158SAPE   C2717653   4.860   4.595   9.944 -0.0210  0.4138  0.2811
  158SAPE   H7R17654   4.915   4.591   9.848 -1.2459  1.1849 -0.4778
  158SAPE   H7S17655   4.915   4.525  10.011  1.1941 -1.0056 -2.0984
  158SAPE   C2817656   4.870   4.733  10.010 -0.5309  0.2017 -0.4589
  158SAPE   H8R17657   4.861   4.732  10.120 -0.2033 -1.0173 -0.4215
  158SAPE   C2917658   4.919   4.846   9.953 -0.1078  0.9343  0.0776
  158SAPE   H9R17659   4.907   4.940  10.010 -1.4607  0.2208  1.0267
  158SAPE  C21017660   4.968   4.866   9.809  0.7899  0.6291  0.0843
  158SAPE  H10R17661   5.004   4.767   9.774 -0.8185  0.1903 -0.4006
  158SAPE  H10S17662   5.034   4.955   9.810 -0.0417  1.2549  0.0850
  158SAPE  C21117663   4.852   4.898   9.723 -0.4774 -0.2618 -0.3584
  158SAPE  H11R17664   4.765   4.912   9.789  1.3112 -0.6710  2.2512
  158SAPE  C21217665   4.848   4.910   9.593  0.0416 -0.6277  0.0904
  158SAPE  H12R17666   4.753   4.950   9.554 -0.3728  1.6543  3.0191
  158SAPE  C21317667   4.965   4.888   9.500  0.0585  0.0049 -0.2456
  158SAPE  H13R17668   5.056   4.886   9.564 -0.3974  0.8927  0.4667
  158SAPE  H13S17669   4.966   4.982   9.441 -1.5749  0.1191 -0.1296
  158SAPE  C21417670   4.956   4.760   9.411 -0.6462 -0.6619  0.0169
  158SAPE  H14R17671   4.869   4.697   9.434 -0.9993 -0.5227 -0.8882
  158SAPE  C21517672   5.047   4.728   9.320  0.0351  0.4932  1.5231
  158SAPE  H15R17673   5.032   4.644   9.251 -0.3544  1.2420  0.6830
  158SAPE  C21617674   5.166   4.810   9.298  0.3161  0.0045  0.1242
  158SAPE  H16R17675   5.249   4.785   9.367 -0.2788 -3.0405 -0.1310
  158SAPE  H16S17676   5.145   4.919   9.302  2.6879  0.5240 -0.0258
  158SAPE  C21717677   5.216   4.786   9.146  0.5821  0.4315  0.1960
  158SAPE  H17R17678   5.126   4.803   9.083  2.7171  1.7807 -2.7778
  158SAPE  H17S17679   5.244   4.680   9.126 -0.4932  0.1447  0.1436
  158SAPE  C21817680   5.312   4.895   9.093  1.4696  0.0005 -0.2914
  158SAPE  H18R17681   5.381   4.925   9.174 -0.6082  3.1093  0.4925
  158SAPE  H18S17682   5.245   4.983   9.087 -1.4451 -1.8994  1.5155
  158SAPE  C21917683   5.372   4.860   8.966 -0.7096  0.4424 -0.0664
  158SAPE  H19R17684   5.294   4.838   8.891 -1.2095 -1.4686  0.9384
  158SAPE  H19S17685   5.426   4.765   8.989  0.2128  1.0693  0.4306
  158SAPE  C22017686   5.465   4.962   8.891  0.8454  0.1475 -0.3169
  158SAPE  H20R17687   5.404   5.038   8.836 -0.1132 -0.6151 -0.3300
  158SAPE  H20S17688   5.536   4.907   8.825  1.0405 -0.5019  0.4201
  158SAPE  H20T17689   5.514   5.010   8.978 -1.3773 -0.8778  1.5880
  158SAPE   C3317690   5.319   4.624  10.157 -0.2604  0.3276  0.5088
  158SAPE   H3X17691   5.299   4.732  10.144 -2.1735  0.0435  0.8849
  158SAPE   H3Y17692   5.247   4.584  10.083  1.2478  2.3860 -2.2776
  158SAPE   C3417693   5.465   4.594  10.130  0.2242 -0.4531 -0.1400
  158SAPE   H4X17694   5.496   4.492  10.163 -0.5985 -0.5658  0.2931
  158SAPE   H4Y17695   5.533   4.672  10.172 -0.6046  0.1042  0.1783
  158SAPE   C3517696   5.481   4.598   9.975  0.1184 -0.0653 -0.0109
  158SAPE   H5X17697   5.430   4.509   9.933 -0.9019  0.5464 -0.0997
  158SAPE   H5Y17698   5.588   4.601   9.944 -0.1377  0.0835 -0.8868
  158SAPE   C3617699   5.418   4.718   9.893 -0.3160  0.4387 -0.4017
  158SAPE   H6X17700   5.447   4.801   9.961 -0.9516 -2.0356  3.2251
  158SAPE   H6Y17701   5.308   4.709   9.891 -0.1521 -3.0352 -1.8117
  158SAPE   C3717702   5.468   4.727   9.745  0.0781 -0.2076 -1.2160
  158SAPE   H7X17703   5.451   4.633   9.688  4.1365 -2.2957  0.5988
  158SAPE   H7Y17704   5.579   4.734   9.741  0.1229 -1.3546 -3.3133
  158SAPE   C3817705   5.397   4.841   9.669  0.7718  0.4939 -0.2633
  158SAPE   H8X17706   5.288   4.850   9.692  0.7636  1.6922 -0.7075
  158SAPE   H8Y17707   5.415   4.824   9.561  3.7536 -1.2630  0.4053
  158SAPE   C3917708   5.477   4.963   9.706  0.2166  0.1080 -0.2223
  158SAPE   H9X17709   5.584   4.933   9.713 -0.1068 -1.1103 -0.2605
  158SAPE   H9Y17710   5.445   5.003   9.805 -1.9994  0.6860 -1.1088
  158SAPE  C31017711   5.462   5.090   9.609  0.0043 -0.4803  0.3459
  158SAPE  H10X17712   5.495   5.051   9.510 -1.5499 -1.0022  0.0125
  158SAPE  H10Y17713   5.534   5.168   9.642  0.7159 -1.5366  1.3617
  158SAPE  C31117714   5.326   5.154   9.608  0.5325  0.0545  0.1508
  158SAPE  H11X17715   5.300   5.201   9.705  3.2982  1.3281  0.3589
  158SAPE  H11Y17716   5.253   5.071   9.593 -0.4041  0.6743  1.0729
  158SAPE  C31217717   5.307   5.258   9.490 -0.1746  0.0974 -0.2242
  158SAPE  H12X17718   5.343   5.200   9.402 -0.5860  1.3554 -1.2515
  158SAPE  H12Y17719   5.372   5.347   9.506 -0.6710  0.4893 -0.3308
  158SAPE  C31317720   5.157   5.294   9.457  0.7994 -0.6334 -0.2657
  158SAPE  H13X17721   5.109   5.320   9.553  0.3274 -2.9808  0.1976
  158SAPE  H13Y17722   5.106   5.200   9.426  0.7171  0.1554 -2.7421
  158SAPE  C31417723   5.137   5.397   9.340 -0.3047  0.0126 -0.6191
  158SAPE  H14X17724   5.205   5.483   9.357 -0.0921 -0.2299 -0.2290
  158SAPE  H14Y17725   5.033   5.431   9.361 -0.0937 -0.1041  0.6721
  158SAPE  C31517726   5.165   5.344   9.195  0.0736 -0.4690 -0.2396
  158SAPE  H15X17727   5.074   5.282   9.181  0.3930 -0.9191 -0.3305
  158SAPE  H15Y17728   5.253   5.278   9.182  1.1384  0.9004 -0.1896
  158SAPE  C31617729   5.153   5.455   9.088  0.4652  0.8296  0.1877
  158SAPE  H16X17730   5.199   5.414   8.996 -0.5502  0.3954 -0.1399
  158SAPE  H16Y17731   5.227   5.532   9.120  0.2025  0.5931  1.3853
  158SAPE  C31717732   5.010   5.509   9.068  0.5056  0.0985  0.6399
  158SAPE  H17X17733   4.966   5.543   9.165 -0.8827 -0.3098  0.1743
  158SAPE  H17Y17734   4.945   5.424   9.037  4.1192 -1.4326 -3.6343
  158SAPE  C31817735   5.009   5.630   8.972 -0.9413  0.0263 -0.6111
  158SAPE  H18X17736   4.906   5.657   8.943 -0.9351 -1.1812 -1.8800
  158SAPE  H18Y17737   5.071   5.615   8.880 -1.4340  0.8318 -1.0907
  158SAPE  H18Z17738   5.064   5.711   9.024 -1.7794 -1.1113  2.2281
  159SAPE     N17739   2.142   0.546   6.417 -0.6423 -0.7109  0.2797
  159SAPE   HN117740   2.081   0.625   6.388  0.1916 -0.6078 -1.3162
  159SAPE   HN217741   2.134   0.477   6.340  0.3396  0.0941 -0.5732
  159SAPE   HN317742   2.102   0.500   6.501 -0.4178 -3.1155 -0.8375
  159SAPE   C1217743   2.279   0.596   6.451  0.3840  0.1005  0.9040
  159SAPE  H12A17744   2.312   0.680   6.386 -0.8818 -0.7939 -0.9724
  159SAPE  H12B17745   2.357   0.523   6.422  0.6305  0.4311  0.7284
  159SAPE   C1117746   2.301   0.631   6.600  0.1783  0.2998 -0.0229
  159SAPE  H11A17747   2.244   0.723   6.626 -0.1201  1.2073 -3.4907
  159SAPE  H11B17748   2.409   0.653   6.618  0.3752  0.1436 -0.9645
  159SAPE     P17749   2.320   0.397   6.731 -0.1734 -0.1473 -0.0001
  159SAPE   O1317750   2.218   0.315   6.804 -0.2287 -0.7694 -0.4704
  159SAPE   O1417751   2.390   0.324   6.626  0.1242  0.0521 -0.1845
  159SAPE   O1217752   2.244   0.528   6.683  0.2028  0.1563  0.0323
  159SAPE   O1117753   2.417   0.466   6.829  0.2578 -0.0629 -0.0852
  159SAPE    C117754   2.379   0.566   6.926  0.0024 -0.0706  0.8392
  159SAPE    HA17755   2.409   0.668   6.894  0.0070 -0.7061 -1.3732
  159SAPE    HB17756   2.271   0.563   6.951 -0.3469 -1.1298 -0.6696
  159SAPE    C217757   2.458   0.545   7.060 -0.6426 -0.2478  0.1914
  159SAPE    HS17758   2.391   0.568   7.145 -0.7713  0.6235 -0.1343
  159SAPE   O2117759   2.584   0.613   7.068 -0.0555  0.2512 -0.1887
  159SAPE   C2117760   2.590   0.742   7.086 -0.6737  0.4011 -0.5888
  159SAPE   O2217761   2.496   0.821   7.071  0.4012 -0.3007  0.6406
  159SAPE   C2217762   2.736   0.776   7.122 -0.1573  0.7699 -0.5504
  159SAPE   H2R17763   2.776   0.704   7.197 -2.4023  0.5743  0.5458
  159SAPE   H2S17764   2.792   0.764   7.027 -1.0612  1.5774 -1.2001
  159SAPE    C317765   2.486   0.391   7.076 -0.2434  0.0291  0.2696
  159SAPE    HX17766   2.552   0.345   6.999 -1.9282 -2.0303 -0.0334
  159SAPE    HY17767   2.385   0.350   7.057 -0.7119  2.0229 -1.8631
  159SAPE   O3117768   2.550   0.369   7.206 -0.5496 -0.0018 -0.1655
  159SAPE   C3117769   2.512   0.251   7.252 -0.3009  0.2021  0.0575
  159SAPE   O3217770   2.467   0.160   7.183  0.2345  0.0840  0.6975
  159SAPE   C3217771   2.559   0.240   7.398  0.4541 -0.2518 -0.2083
  159SAPE   H2X17772   2.604   0.337   7.429  1.4706 -1.0767  1.0302
  159SAPE   H2Y17773   2.647   0.171   7.401 -0.9214 -2.1351  3.2847
  159SAPE   C2317774   2.759   0.919   7.174 -0.8439  0.2726  0.4260
  159SAPE   H3R17775   2.735   0.988   7.090  0.2007 -3.4209 -3.2355
  159SAPE   H3S17776   2.867   0.938   7.191 -0.7119  0.7489 -0.8055
  159SAPE   C2417777   2.699   0.937   7.318  0.0943 -0.5677  1.2562
  159SAPE   H4R17778   2.732   0.846   7.371  1.2484 -0.2018  1.1871
  159SAPE   H4S17779   2.588   0.929   7.309  0.0758  0.6835 -0.0816
  159SAPE   C2517780   2.740   1.067   7.383 -0.1495  0.1896 -0.3039
  159SAPE   H5R17781   2.734   1.156   7.319 -0.7662  1.3431  1.2931
  159SAPE   C2617782   2.780   1.080   7.507  0.0702  0.8280 -0.2569
  159SAPE   H6R17783   2.810   1.181   7.539 -1.1194  1.2421 -0.3771
  159SAPE   C2717784   2.798   0.963   7.606 -0.3604  0.2705 -0.3013
  159SAPE   H7R17785   2.896   0.986   7.653  0.6734 -1.4840 -1.4870
  159SAPE   H7S17786   2.809   0.857   7.577  0.0917  0.5142 -1.0555
  159SAPE   C2817787   2.685   0.974   7.702 -0.7938  0.7307  0.5967
  159SAPE   H8R17788   2.583   0.965   7.662 -1.1672  1.1153  1.4355
  159SAPE   C2917789   2.679   0.973   7.833 -0.1980  0.1223 -0.5533
  159SAPE   H9R17790   2.590   0.987   7.895  0.1502 -0.9606  0.2299
  159SAPE  C21017791   2.805   0.966   7.917  0.6406 -0.6033 -0.1836
  159SAPE  H10R17792   2.896   0.946   7.855  0.8150 -1.3260  0.2883
  159SAPE  H10S17793   2.803   0.879   7.987 -0.5899 -0.2995  0.1735
  159SAPE  C21117794   2.825   1.101   7.984  1.0141  1.2040 -1.1876
  159SAPE  H11R17795   2.814   1.184   7.913  4.3100  2.0627 -0.8584
  159SAPE  C21217796   2.863   1.120   8.114  0.5691  0.0488  0.0203
  159SAPE  H12R17797   2.847   1.220   8.157  1.5353  1.0953 -1.9053
  159SAPE  C21317798   2.877   1.011   8.226 -0.9774 -0.1813  0.9168
  159SAPE  H13R17799   2.949   1.062   8.293  2.3515 -2.9595 -0.2415
  159SAPE  H13S17800   2.914   0.919   8.175  0.7563  1.1095 -0.2604
  159SAPE  C21417801   2.745   0.988   8.294  0.3549  0.3123 -0.0415
  159SAPE  H14R17802   2.660   1.002   8.225  1.0095 -1.6905 -1.3670
  159SAPE  C21517803   2.728   0.954   8.423  0.3296  0.4220  0.0586
  159SAPE  H15R17804   2.627   0.934   8.461 -1.4576  1.7458 -3.5509
  159SAPE  C21617805   2.839   0.925   8.527 -0.2360 -0.0712 -1.1997
  159SAPE  H16R17806   2.934   0.925   8.470  0.4516  0.2473 -0.0951
  159SAPE  H16S17807   2.836   0.821   8.567 -1.2140  0.3129 -0.2051
  159SAPE  C21717808   2.834   1.031   8.637  0.0234 -0.8421  0.0803
  159SAPE  H17R17809   2.859   1.130   8.593 -0.4702 -1.4519 -1.6403
  159SAPE  H17S17810   2.919   1.006   8.704 -1.1624 -2.3064  1.0991
  159SAPE  C21817811   2.705   1.055   8.721 -0.3174  0.0503  0.9228
  159SAPE  H18R17812   2.688   0.960   8.776  0.2838 -1.7524 -1.8012
  159SAPE  H18S17813   2.622   1.079   8.651 -0.3978  0.9088  1.2964
  159SAPE  C21917814   2.725   1.166   8.828 -0.0975  0.3518 -0.1103
  159SAPE  H19R17815   2.628   1.173   8.881  0.1004 -0.0928  0.3161
  159SAPE  H19S17816   2.748   1.259   8.772  0.6486  0.2267 -0.0151
  159SAPE  C22017817   2.837   1.125   8.927 -0.0446  0.6381 -0.2208
  159SAPE  H20R17818   2.821   1.018   8.951 -0.2666 -0.0223 -2.9817
  159SAPE  H20S17819   2.848   1.196   9.012  0.9505  0.6828 -0.3714
  159SAPE  H20T17820   2.936   1.129   8.875 -0.5110  0.0960 -1.1723
  159SAPE   C3317821   2.461   0.179   7.497  0.6668 -0.3199  0.0759
  159SAPE   H3X17822   2.431   0.079   7.457  0.5208  0.4781 -1.9447
  159SAPE   H3Y17823   2.373   0.243   7.515  1.2366  0.3107  0.6269
  159SAPE   C3417824   2.515   0.143   7.640  0.7105  0.4461  0.6129
  159SAPE   H4X17825   2.601   0.073   7.637  1.4574  1.3943 -0.4731
  159SAPE   H4Y17826   2.428   0.088   7.684 -0.4054  1.4523 -0.2699
  159SAPE   C3517827   2.543   0.260   7.733 -0.7315 -0.0575  0.2766
  159SAPE   H5X17828   2.454   0.326   7.730 -0.8369 -0.1989 -3.0347
  159SAPE   H5Y17829   2.636   0.317   7.716 -1.6254  0.9992 -1.3343
  159SAPE   C3617830   2.549   0.194   7.868  0.0799  0.5139 -0.8972
  159SAPE   H6X17831   2.651   0.156   7.890 -0.4167 -0.9340 -1.0061
  159SAPE   H6Y17832   2.476   0.110   7.878 -2.1999  2.4425 -0.4067
  159SAPE   C3717833   2.510   0.291   7.983  0.0060  0.5617  0.2921
  159SAPE   H7X17834   2.399   0.297   7.992  0.1531  1.5672  1.5989
  159SAPE   H7Y17835   2.549   0.394   7.973  0.2727  0.4230 -0.1238
  159SAPE   C3817836   2.564   0.245   8.122  0.9331 -0.5189 -0.3640
  159SAPE   H8X17837   2.549   0.324   8.199  0.1050  0.9851 -2.0075
  159SAPE   H8Y17838   2.672   0.222   8.105  1.5438  2.2157 -0.5857
  159SAPE   C3917839   2.501   0.114   8.183  0.2679  0.2116  0.5931
  159SAPE   H9X17840   2.494   0.028   8.114  0.9176  0.2732  0.4458
  159SAPE   H9Y17841   2.393   0.142   8.189 -0.0668 -0.4292 -1.6451
  159SAPE  C31017842   2.544   0.075   8.327  0.3206  0.8451  0.1160
  159SAPE  H10X17843   2.647   0.032   8.319  0.4024  0.8519  1.0294
  159SAPE  H10Y17844   2.482  -0.011   8.359 -0.1327  0.9037 -0.5918
  159SAPE  C31117845   2.536   0.185   8.428  0.6133 -0.3409 -0.6942
  159SAPE  H11X17846   2.611   0.260   8.394  1.1730  0.1187  1.3941
  159SAPE  H11Y17847   2.570   0.143   8.525  0.4344 -1.3793 -1.0679
  159SAPE  C31217848   2.394   0.241   8.459  0.4861  0.0604  0.1900
  159SAPE  H12X17849   2.329   0.155   8.485  2.0239 -1.1838 -0.0057
  159SAPE  H12Y17850   2.347   0.287   8.369  1.4621 -1.0547 -0.9307
  159SAPE  C31317851   2.391   0.342   8.570 -0.8903  0.1372 -0.1208
  159SAPE  H13X17852   2.431   0.443   8.545  1.9205 -1.3827 -2.3162
  159SAPE  H13Y17853   2.448   0.309   8.659 -1.2645 -0.5534 -0.1338
  159SAPE  C31417854   2.244   0.370   8.614 -0.8896 -0.4572  0.3333
  159SAPE  H14X17855   2.184   0.277   8.608 -1.8315  0.2283 -1.6896
  159SAPE  H14Y17856   2.201   0.444   8.543  0.6325  0.0048 -0.1569
  159SAPE  C31517857   2.228   0.414   8.754 -0.4452  0.0308 -1.2414
  159SAPE  H15X17858   2.275   0.514   8.761 -1.3146  0.5304 -2.3379
  159SAPE  H15Y17859   2.283   0.340   8.817 -3.1098 -1.6912 -0.7678
  159SAPE  C31617860   2.089   0.413   8.819  0.3917  0.4668  0.2109
  159SAPE  H16X17861   2.028   0.497   8.779  0.1627 -0.9000 -2.5268
  159SAPE  H16Y17862   2.096   0.440   8.926 -0.7606 -2.7852  1.2155
  159SAPE  C31717863   2.011   0.278   8.807  0.7849  0.4473 -0.8395
  159SAPE  H17X17864   2.068   0.193   8.852  0.6247  0.4929 -0.5469
  159SAPE  H17Y17865   1.994   0.244   8.703 -0.7780  0.1343 -0.5072
  159SAPE  C31817866   1.874   0.271   8.880 -0.2176 -0.9004  0.0347
  159SAPE  H18X17867   1.813   0.355   8.841  1.1001 -0.8497 -2.0438
  159SAPE  H18Y17868   1.880   0.276   8.991 -0.0672  0.3455 -0.0162
  159SAPE  H18Z17869   1.822   0.181   8.842  1.3499 -1.8044 -0.0854
  160SAPE     N17870   1.847   0.724   6.700 -0.1061  0.0255  0.0642
  160SAPE   HN117871   1.853   0.647   6.630 -1.1951  1.2240 -1.4108
  160SAPE   HN217872   1.842   0.814   6.649  0.5806  0.7269  1.1927
  160SAPE   HN317873   1.932   0.735   6.759 -1.1819  2.2203  1.3162
  160SAPE   C1217874   1.731   0.702   6.788  0.0481  0.0741  0.4141
  160SAPE  H12A17875   1.736   0.600   6.832 -0.0288  0.0945  0.4692
  160SAPE  H12B17876   1.644   0.695   6.720  0.3287 -4.4855  0.2388
  160SAPE   C1117877   1.723   0.818   6.888  0.0222 -0.0925 -0.1226
  160SAPE  H11A17878   1.818   0.823   6.944 -0.6066  0.9236  0.9025
  160SAPE  H11B17879   1.640   0.792   6.956  0.6978 -0.0399  0.7326
  160SAPE     P17880   1.571   1.036   6.841  0.6333  0.0916  0.1208
  160SAPE   O1317881   1.608   1.180   6.818  0.3082 -0.4315  0.2602
  160SAPE   O1417882   1.464   0.980   6.748  0.0922 -0.0127 -0.2432
  160SAPE   O1217883   1.698   0.946   6.823 -0.0381  0.4300 -0.4422
  160SAPE   O1117884   1.519   1.005   6.983 -0.1721 -0.3910 -0.1974
  160SAPE    C117885   1.380   1.031   7.005  0.4828  0.3011  1.2826
  160SAPE    HA17886   1.350   1.124   6.952  0.8103  0.2908  1.0692
  160SAPE    HB17887   1.313   0.952   6.964  1.1840  0.8361 -1.0901
  160SAPE    C217888   1.353   1.034   7.157 -0.4236  0.4189 -0.1270
  160SAPE    HS17889   1.300   0.938   7.176  0.2406 -0.0455 -0.5903
  160SAPE   O2117890   1.275   1.146   7.194  0.0234 -0.8160 -0.4792
  160SAPE   C2117891   1.149   1.143   7.146 -0.0359  0.3952  0.0351
  160SAPE   O2217892   1.100   1.055   7.081 -0.3087  0.2328 -0.6347
  160SAPE   C2217893   1.065   1.272   7.182 -0.1739  0.2022  0.7020
  160SAPE   H2R17894   1.048   1.325   7.086 -0.4926 -1.5050 -0.2360
  160SAPE   H2S17895   0.964   1.236   7.212 -2.1079  3.3198 -1.4572
  160SAPE    C317896   1.487   1.034   7.234 -0.9552 -0.6817  0.1644
  160SAPE    HX17897   1.536   1.119   7.182 -0.0966 -0.2250  1.6897
  160SAPE    HY17898   1.553   0.947   7.211  0.8633  0.4297  1.0400
  160SAPE   O3117899   1.472   1.057   7.376  0.5563  0.3611  0.5723
  160SAPE   C3117900   1.425   0.951   7.445 -0.5274  1.1069  0.7026
  160SAPE   O3217901   1.412   0.841   7.394  0.3296 -0.0599  0.2924
  160SAPE   C3217902   1.439   0.980   7.589 -0.2327  0.7557 -0.4736
  160SAPE   H2X17903   1.375   1.068   7.613 -0.0485  1.3152 -1.9250
  160SAPE   H2Y17904   1.545   1.012   7.604 -0.0733 -0.6058  1.8081
  160SAPE   C2317905   1.127   1.366   7.286  0.1378  0.0346 -0.1186
  160SAPE   H3R17906   1.071   1.462   7.286 -0.4448 -0.2914 -1.0597
  160SAPE   H3S17907   1.232   1.390   7.260  1.2111 -1.2549  2.6470
  160SAPE   C2417908   1.111   1.316   7.433 -0.5614 -0.4270 -0.3408
  160SAPE   H4R17909   1.138   1.208   7.433  0.3414 -0.2186 -0.9180
  160SAPE   H4S17910   1.003   1.326   7.456 -1.2173 -2.6387 -2.0868
  160SAPE   C2517911   1.193   1.389   7.533  0.9678 -0.8734 -0.5111
  160SAPE   H5R17912   1.274   1.453   7.495  0.7103 -0.1218  0.2013
  160SAPE   C2617913   1.183   1.402   7.669 -0.0899 -0.3134  0.3073
  160SAPE   H6R17914   1.257   1.463   7.723  1.2354 -0.9922 -0.6905
  160SAPE   C2717915   1.074   1.345   7.755 -0.1768  0.0954  0.6097
  160SAPE   H7R17916   0.982   1.326   7.696 -1.0619  1.2766  1.5577
  160SAPE   H7S17917   1.044   1.432   7.817  3.0290  0.0370  2.5217
  160SAPE   C2817918   1.114   1.221   7.834 -0.4692  0.0382  0.4189
  160SAPE   H8R17919   1.111   1.131   7.771 -0.8335  0.2949  0.0647
  160SAPE   C2917920   1.144   1.203   7.961 -0.2099  0.6240  0.2509
  160SAPE   H9R17921   1.174   1.100   7.987 -0.1397  0.9471  1.5494
  160SAPE  C21017922   1.135   1.314   8.067 -1.0706  0.1523 -0.8545
  160SAPE  H10R17923   1.110   1.411   8.018 -1.1950  0.8395  0.5354
  160SAPE  H10S17924   1.229   1.342   8.118 -1.9292  1.3166  0.1542
  160SAPE  C21117925   1.021   1.270   8.160  0.1051  0.5045  0.3206
  160SAPE  H11R17926   0.918   1.296   8.130 -0.9666 -1.0773  2.3872
  160SAPE  C21217927   1.023   1.221   8.283  0.1327 -0.2752 -0.6972
  160SAPE  H12R17928   0.932   1.205   8.343 -0.6792 -0.9896 -2.0682
  160SAPE  C21317929   1.148   1.192   8.351 -0.2863 -0.1379 -0.0017
  160SAPE  H13R17930   1.146   1.225   8.457  2.7288 -1.1502  0.4808
  160SAPE  H13S17931   1.238   1.238   8.305 -0.6233 -1.1288 -1.7318
  160SAPE  C21417932   1.175   1.043   8.346 -0.1627 -0.7962 -0.1873
  160SAPE  H14R17933   1.221   0.998   8.257 -0.7891 -0.3595 -0.7426
  160SAPE  C21517934   1.140   0.963   8.450 -0.2386  0.2369 -0.3045
  160SAPE  H15R17935   1.162   0.856   8.438 -0.4273  0.0169  1.1038
  160SAPE  C21617936   1.072   0.999   8.579  0.8006  0.0184 -0.0265
  160SAPE  H16R17937   0.977   0.946   8.599  0.3903  0.6830 -0.1988
  160SAPE  H16S17938   1.037   1.104   8.580 -3.2801 -1.1700  0.8286
  160SAPE  C21717939   1.168   0.991   8.694  0.2212  0.7542 -0.3264
  160SAPE  H17R17940   1.255   1.056   8.672 -0.6147  1.8805 -0.4184
  160SAPE  H17S17941   1.209   0.889   8.708 -1.7874 -0.0249  0.2867
  160SAPE  C21817942   1.119   1.021   8.835  0.3159 -0.7747 -0.3966
  160SAPE  H18R17943   1.033   0.957   8.867  0.5127  0.0347  1.9025
  160SAPE  H18S17944   1.085   1.126   8.849 -2.0386 -1.6423  1.0739
  160SAPE  C21917945   1.230   1.004   8.928  0.0465 -0.2932  0.4010
  160SAPE  H19R17946   1.315   1.069   8.898 -1.0896  1.0850  0.0297
  160SAPE  H19S17947   1.267   0.900   8.929  1.9585  0.3364 -0.2638
  160SAPE  C22017948   1.194   1.045   9.070  0.0513  0.4350  0.0531
  160SAPE  H20R17949   1.101   0.990   9.091 -1.9172  2.7994 -1.8510
  160SAPE  H20S17950   1.176   1.154   9.085  1.2996  0.5970  0.5168
  160SAPE  H20T17951   1.273   1.017   9.144 -0.0656  2.8081  1.1740
  160SAPE   C3317952   1.384   0.857   7.669 -0.5627  0.1150  0.2099
  160SAPE   H3X17953   1.434   0.767   7.627 -1.4488  0.6604 -2.1450
  160SAPE   H3Y17954   1.276   0.842   7.649  0.0396 -0.4742 -3.0926
  160SAPE   C3417955   1.399   0.873   7.814 -0.3257 -0.2503 -0.6585
  160SAPE   H4X17956   1.310   0.927   7.852 -0.7511 -0.5821 -1.1581
  160SAPE   H4Y17957   1.490   0.929   7.843 -0.0354 -1.2619  0.4687
  160SAPE   C3517958   1.397   0.743   7.902 -0.5648  0.3012  0.4577
  160SAPE   H5X17959   1.471   0.672   7.858  0.0162  1.7052 -0.9251
  160SAPE   H5Y17960   1.300   0.689   7.897 -0.6230  0.3338  1.1890
  160SAPE   C3617961   1.440   0.776   8.044  0.0309  0.3330 -0.3350
  160SAPE   H6X17962   1.376   0.834   8.113 -1.6015 -0.5435 -1.0531
  160SAPE   H6Y17963   1.533   0.836   8.038 -0.2688  1.1788  2.3608
  160SAPE   C3717964   1.456   0.653   8.139  0.1431  0.1143  0.2722
  160SAPE   H7X17965   1.542   0.669   8.208 -0.0981  1.2125  0.3224
  160SAPE   H7Y17966   1.477   0.562   8.079 -0.1931  1.6314 -2.2812
  160SAPE   C3817967   1.326   0.622   8.216 -0.0702 -0.0752  0.1299
  160SAPE   H8X17968   1.240   0.614   8.146 -0.7868  1.6679  0.7386
  160SAPE   H8Y17969   1.304   0.704   8.288  1.6529 -0.9551  1.7312
  160SAPE   C3917970   1.343   0.496   8.298 -0.1527 -0.4744 -0.4223
  160SAPE   H9X17971   1.435   0.501   8.361 -0.1189  0.5601 -0.5373
  160SAPE   H9Y17972   1.348   0.412   8.226  0.6495 -0.2641 -0.6226
  160SAPE  C31017973   1.217   0.468   8.381 -0.3733 -0.2487  0.8297
  160SAPE  H10X17974   1.127   0.488   8.319  1.0138 -0.5667 -1.3761
  160SAPE  H10Y17975   1.215   0.533   8.471 -1.9306  0.2170  0.4875
  160SAPE  C31117976   1.214   0.318   8.421 -0.3411 -0.4027  0.3496
  160SAPE  H11X17977   1.241   0.236   8.351  0.1874  0.9976 -1.1653
  160SAPE  H11Y17978   1.108   0.299   8.449  0.3743 -2.0703  2.1838
  160SAPE  C31217979   1.297   0.314   8.551 -0.0974  0.1615 -0.1199
  160SAPE  H12X17980   1.277   0.402   8.616  2.8843  0.4574  0.5313
  160SAPE  H12Y17981   1.405   0.331   8.533 -0.3020  1.2452 -0.4055
  160SAPE  C31317982   1.269   0.179   8.620 -0.2349 -0.0376 -0.2717
  160SAPE  H13X17983   1.277   0.106   8.536 -1.1157 -1.8909  1.2001
  160SAPE  H13Y17984   1.164   0.180   8.656 -0.1479 -2.4860  0.2293
  160SAPE  C31417985   1.377   0.136   8.724 -0.1101 -0.1240  0.1036
  160SAPE  H14X17986   1.468   0.117   8.663 -1.0246 -0.9031 -1.0397
  160SAPE  H14Y17987   1.357   0.042   8.780 -1.9410 -0.5710 -1.2348
  160SAPE  C31517988   1.411   0.253   8.814 -0.1066 -0.3825  0.4182
  160SAPE  H15X17989   1.306   0.280   8.836 -0.2457 -0.0510 -0.6178
  160SAPE  H15Y17990   1.460   0.329   8.750 -0.8015  0.9344  1.4009
  160SAPE  C31617991   1.489   0.228   8.943 -0.1018 -0.0365 -0.0700
  160SAPE  H16X17992   1.569   0.156   8.914  0.5042  0.2170  0.9450
  160SAPE  H16Y17993   1.425   0.175   9.018 -0.7683 -0.0405 -0.6349
  160SAPE  C31717994   1.567   0.342   9.009  0.0973 -0.4987  0.5822
  160SAPE  H17X17995   1.596   0.418   8.934 -1.9061  0.6154  0.8543
  160SAPE  H17Y17996   1.663   0.301   9.047  0.7129 -0.4267 -0.8240
  160SAPE  C31817997   1.492   0.433   9.112 -0.4903  0.1538  0.4333
  160SAPE  H18X17998   1.395   0.464   9.068 -1.1041 -0.4033  1.3596
  160SAPE  H18Y17999   1.557   0.520   9.137 -1.1650  1.2814 -1.5132
  160SAPE  H18Z18000   1.469   0.389   9.212  0.0696  2.4064  1.6302
  161SAPE     N18001   3.492   1.746   6.702 -0.4906 -0.1318  0.8428
  161SAPE   HN118002   3.516   1.707   6.608  1.2251 -0.2950  1.3297
  161SAPE   HN218003   3.388   1.744   6.700 -0.4832 -0.0633 -0.6487
  161SAPE   HN318004   3.529   1.842   6.713 -0.7541 -0.1206  1.6792
  161SAPE   C1218005   3.553   1.647   6.797 -0.3725  0.4604  0.4355
  161SAPE  H12A18006   3.497   1.551   6.785  1.2195 -0.1746 -3.2136
  161SAPE  H12B18007   3.541   1.690   6.899  2.3075  0.7683  0.6792
  161SAPE   C1118008   3.704   1.612   6.777  0.4465  1.2106 -0.3999
  161SAPE  H11A18009   3.738   1.541   6.855  2.1855  1.5429 -0.8042
  161SAPE  H11B18010   3.754   1.709   6.800 -0.6483  1.4633  1.1031
  161SAPE     P18011   3.698   1.432   6.579  0.3340 -0.0848  0.2727
  161SAPE   O1318012   3.552   1.404   6.566  0.1530 -0.0505 -0.2570
  161SAPE   O1418013   3.782   1.421   6.459  0.1707 -0.1375  0.5904
  161SAPE   O1218014   3.731   1.579   6.639  0.8057  0.1486 -0.0921
  161SAPE   O1118015   3.752   1.322   6.681 -0.8276 -0.5564 -0.1301
  161SAPE    C118016   3.892   1.287   6.696 -0.0783 -0.6475 -0.1502
  161SAPE    HA18017   3.924   1.235   6.604  0.0497 -2.1380  0.7055
  161SAPE    HB18018   3.959   1.376   6.702 -1.9128  0.6865  2.8057
  161SAPE    C218019   3.908   1.204   6.823 -0.2820 -0.2080 -0.7843
  161SAPE    HS18020   3.839   1.117   6.828  0.2901 -0.6133  1.6945
  161SAPE   O2118021   3.899   1.292   6.938 -0.0663 -0.1461  0.1243
  161SAPE   C2118022   3.770   1.283   6.998  0.1843  0.3401  0.0138
  161SAPE   O2218023   3.672   1.231   6.943 -0.5690 -0.0686  0.7792
  161SAPE   C2218024   3.774   1.327   7.150 -0.4812  0.5280  0.8741
  161SAPE   H2R18025   3.855   1.273   7.203 -0.7042  1.2513  1.9927
  161SAPE   H2S18026   3.820   1.427   7.164 -0.0840  0.0907  3.2000
  161SAPE    C318027   4.047   1.136   6.823 -0.4487 -0.3031 -0.0351
  161SAPE    HX18028   4.128   1.209   6.804 -0.3428 -1.2748 -4.4506
  161SAPE    HY18029   4.047   1.063   6.740  1.2501 -0.6932  0.2741
  161SAPE   O3118030   4.076   1.077   6.954 -0.1826  0.1402 -0.0939
  161SAPE   C3118031   4.201   1.047   6.980 -1.6113 -0.5307 -0.3517
  161SAPE   O3218032   4.297   1.071   6.902 -0.2188  0.7992 -0.2437
  161SAPE   C3218033   4.207   0.968   7.109 -0.6586  0.5634  0.5609
  161SAPE   H2X18034   4.314   0.970   7.139  0.2558 -3.3407 -1.7981
  161SAPE   H2Y18035   4.194   0.861   7.084  0.0170  0.7257 -0.5397
  161SAPE   C2318036   3.639   1.320   7.220  0.7615 -0.4685 -0.0257
  161SAPE   H3R18037   3.591   1.230   7.176  0.8257 -0.9231  0.8010
  161SAPE   H3S18038   3.578   1.412   7.226 -0.9924 -1.6054  0.5061
  161SAPE   C2418039   3.649   1.277   7.370 -0.0736 -0.0267 -0.1510
  161SAPE   H4R18040   3.726   1.196   7.372 -0.4423 -0.3673  1.1392
  161SAPE   H4S18041   3.550   1.244   7.407  0.2910  0.2590  1.1072
  161SAPE   C2518042   3.704   1.390   7.457  0.3419  0.0708  0.6999
  161SAPE   H5R18043   3.736   1.476   7.396  0.6444  0.0847  0.8772
  161SAPE   C2618044   3.733   1.384   7.589  0.0006  0.1701 -0.9774
  161SAPE   H6R18045   3.769   1.471   7.645  1.2050 -1.2293  0.4960
  161SAPE   C2718046   3.711   1.273   7.690  0.6606  0.6513  0.3271
  161SAPE   H7R18047   3.813   1.259   7.732  1.2762  0.4566 -1.1642
  161SAPE   H7S18048   3.689   1.181   7.631 -0.6975  1.6450 -0.7923
  161SAPE   C2818049   3.596   1.304   7.786 -0.7027  0.4826 -0.4306
  161SAPE   H8R18050   3.498   1.325   7.740 -0.9444  4.0164  1.3075
  161SAPE   C2918051   3.605   1.298   7.925  0.7361 -0.6618  0.5044
  161SAPE   H9R18052   3.516   1.321   7.987  1.2669 -0.7577  1.3228
  161SAPE  C21018053   3.734   1.276   7.998 -0.2582  0.2585  0.0255
  161SAPE  H10R18054   3.788   1.372   7.987 -1.2944  0.9522  0.8329
  161SAPE  H10S18055   3.786   1.202   7.933  0.9538  1.5044 -0.4656
  161SAPE  C21118056   3.719   1.240   8.138  0.0610  0.1890 -0.3587
  161SAPE  H11R18057   3.718   1.131   8.152 -1.8111  0.2752  0.4336
  161SAPE  C21218058   3.698   1.318   8.244  0.0453 -0.2982 -0.4008
  161SAPE  H12R18059   3.697   1.269   8.342  2.8628 -1.0053 -0.6247
  161SAPE  C21318060   3.682   1.468   8.234  0.9572  0.6340  0.2833
  161SAPE  H13R18061   3.640   1.492   8.134 -1.5893  1.5132  1.4933
  161SAPE  H13S18062   3.778   1.523   8.240  0.8843  1.0206 -1.4077
  161SAPE  C21418063   3.584   1.519   8.340 -0.3750 -0.1735  0.1332
  161SAPE  H14R18064   3.485   1.550   8.303 -0.1182  1.1580  0.5268
  161SAPE  C21518065   3.604   1.523   8.476  0.0117  0.1519  0.8050
  161SAPE  H15R18066   3.518   1.550   8.539 -1.4393  0.2767 -1.1588
  161SAPE  C21618067   3.734   1.482   8.548 -0.2543 -0.2644 -0.2246
  161SAPE  H16R18068   3.796   1.574   8.554 -1.1962  0.3238  0.6575
  161SAPE  H16S18069   3.800   1.415   8.487  0.7807  2.3845 -2.2050
  161SAPE  C21718070   3.710   1.416   8.686  0.4923  0.3770 -0.0941
  161SAPE  H17R18071   3.642   1.328   8.678  2.1493 -0.8386 -1.7188
  161SAPE  H17S18072   3.667   1.490   8.756 -4.4420 -2.7170  0.6634
  161SAPE  C21818073   3.842   1.384   8.762 -0.0715 -0.5014  0.0948
  161SAPE  H18R18074   3.903   1.476   8.774  0.4567 -1.1667  3.4047
  161SAPE  H18S18075   3.899   1.325   8.687 -4.1829 -2.8692 -1.4882
  161SAPE  C21918076   3.832   1.303   8.893 -0.3086 -0.5003  0.0659
  161SAPE  H19R18077   3.744   1.236   8.887 -0.6084 -0.1746  0.8036
  161SAPE  H19S18078   3.809   1.377   8.972  2.3408  0.4581  0.0528
  161SAPE  C22018079   3.957   1.239   8.935  0.2276  0.0369 -0.0425
  161SAPE  H20R18080   4.044   1.300   8.967  1.2103 -1.7354  0.7998
  161SAPE  H20S18081   3.992   1.178   8.849  0.7029  0.6883 -0.3230
  161SAPE  H20T18082   3.933   1.177   9.024 -1.2593  1.0321  0.2954
  161SAPE   C3318083   4.111   1.011   7.222 -0.3763 -0.9473  0.0454
  161SAPE   H3X18084   4.088   0.927   7.290  0.0742 -0.5633  0.6755
  161SAPE   H3Y18085   4.013   1.036   7.176 -0.7830 -2.1745  0.2115
  161SAPE   C3418086   4.173   1.132   7.299  0.0133  0.1635 -0.0543
  161SAPE   H4X18087   4.185   1.215   7.226  1.6838 -0.3235 -0.3765
  161SAPE   H4Y18088   4.274   1.112   7.341 -0.1308  0.7741  0.5872
  161SAPE   C3518089   4.086   1.174   7.414 -0.2993  0.2615 -0.4066
  161SAPE   H5X18090   4.036   1.092   7.469  0.6189 -0.0611 -0.0265
  161SAPE   H5Y18091   4.008   1.247   7.384  2.0085  4.1496  2.1178
  161SAPE   C3618092   4.173   1.231   7.533 -0.5547 -0.2886 -0.1654
  161SAPE   H6X18093   4.201   1.336   7.510  0.4866 -0.4039  0.5272
  161SAPE   H6Y18094   4.264   1.173   7.557  0.7933  2.0669  0.7985
  161SAPE   C3718095   4.102   1.223   7.664  0.1487  0.1315 -0.3790
  161SAPE   H7X18096   4.088   1.115   7.684  2.2164 -0.4397 -1.7394
  161SAPE   H7Y18097   4.008   1.282   7.662  0.9521  1.4749  0.0553
  161SAPE   C3818098   4.183   1.291   7.780  0.1923  0.5284  0.1331
  161SAPE   H8X18099   4.215   1.393   7.750  0.3141 -0.0238 -1.7493
  161SAPE   H8Y18100   4.281   1.239   7.791  0.1591  0.7563  1.7804
  161SAPE   C3918101   4.090   1.281   7.910 -0.2015  0.2110  0.4562
  161SAPE   H9X18102   4.046   1.180   7.922  1.0791 -0.8590 -2.6299
  161SAPE   H9Y18103   4.013   1.355   7.881 -0.6283 -1.0200 -1.8673
  161SAPE  C31018104   4.159   1.322   8.043 -0.8112 -0.3322  0.2838
  161SAPE  H10X18105   4.200   1.424   8.030 -0.5673 -0.4415  0.1923
  161SAPE  H10Y18106   4.244   1.253   8.065 -0.9120 -0.9737 -1.2314
  161SAPE  C31118107   4.073   1.330   8.166 -0.0041  0.4247  0.3480
  161SAPE  H11X18108   4.021   1.233   8.183  4.8571 -2.2165  2.1336
  161SAPE  H11Y18109   3.992   1.400   8.137 -1.4944 -1.2227  0.2946
  161SAPE  C31218110   4.157   1.362   8.289 -0.3580  0.0420 -0.1940
  161SAPE  H12X18111   4.201   1.462   8.269 -0.0920 -0.0130  0.1053
  161SAPE  H12Y18112   4.237   1.286   8.297  0.4565  0.6156 -2.1667
  161SAPE  C31318113   4.069   1.348   8.416 -0.5883  0.8442  0.2048
  161SAPE  H13X18114   4.026   1.248   8.435  4.3639 -1.7532 -0.5933
  161SAPE  H13Y18115   3.985   1.419   8.400 -0.4952  0.9061 -0.0122
  161SAPE  C31418116   4.151   1.405   8.534 -0.0026  0.5781  0.0223
  161SAPE  H14X18117   4.072   1.468   8.579  0.0819  1.5645 -1.1516
  161SAPE  H14Y18118   4.232   1.469   8.493 -0.8304  0.2889 -2.2091
  161SAPE  C31518119   4.212   1.302   8.633  0.1801  0.4587 -0.0882
  161SAPE  H15X18120   4.144   1.217   8.657 -1.0166  1.9481  2.0459
  161SAPE  H15Y18121   4.234   1.357   8.727 -1.2184  0.5973  0.1754
  161SAPE  C31618122   4.339   1.224   8.577  0.0668 -0.0980  0.4650
  161SAPE  H16X18123   4.416   1.291   8.533 -0.8186  0.1959 -0.6817
  161SAPE  H16Y18124   4.311   1.185   8.478  3.9355 -0.5827 -0.6248
  161SAPE  C31718125   4.381   1.131   8.693 -0.2662 -0.4330  0.0557
  161SAPE  H17X18126   4.299   1.069   8.735  0.9260 -0.8598  1.9109
  161SAPE  H17Y18127   4.418   1.192   8.779  0.1734 -0.0268 -0.4167
  161SAPE  C31818128   4.499   1.038   8.652 -0.2918  0.4194  0.1542
  161SAPE  H18X18129   4.514   0.967   8.735  0.6136 -0.0406 -0.3860
  161SAPE  H18Y18130   4.596   1.091   8.642 -0.7593  0.9203 -2.5644
  161SAPE  H18Z18131   4.471   0.970   8.569  0.7190 -0.1352  0.2560
  162SAPE     N18132   3.081   3.965   6.250  0.2901 -0.8817 -0.2837
  162SAPE   HN118133   2.994   3.964   6.307  0.0365  3.5759 -0.1872
  162SAPE   HN218134   3.087   3.880   6.191  1.6565 -0.2188 -1.1604
  162SAPE   HN318135   3.161   3.959   6.317 -0.0974  0.6676  0.3628
  162SAPE   C1218136   3.093   4.087   6.157  0.5992 -0.4056  0.1863
  162SAPE  H12A18137   2.996   4.099   6.105  1.3818 -0.4349 -1.3539
  162SAPE  H12B18138   3.175   4.060   6.086  3.0535 -1.2860  3.1271
  162SAPE   C1118139   3.119   4.212   6.237  0.5727 -0.0908 -0.4114
  162SAPE  H11A18140   3.016   4.237   6.270  0.8476 -1.6808  1.8991
  162SAPE  H11B18141   3.168   4.282   6.166  2.1313 -0.6043  0.1088
  162SAPE     P18142   3.241   4.284   6.457 -0.8513  0.0465  0.0034
  162SAPE   O1318143   3.386   4.305   6.466 -0.1021  0.0944  0.1498
  162SAPE   O1418144   3.158   4.404   6.448 -0.3355 -0.3674  0.2163
  162SAPE   O1218145   3.215   4.193   6.333  0.5033  0.0843 -0.7158
  162SAPE   O1118146   3.193   4.187   6.576  0.2333  0.4943  0.1859
  162SAPE    C118147   3.062   4.137   6.573  0.6727  0.8815 -0.0431
  162SAPE    HA18148   2.982   4.213   6.555  1.6337  2.1383  0.8230
  162SAPE    HB18149   3.046   4.050   6.505 -0.3005  0.5437  0.5987
  162SAPE    C218150   3.014   4.070   6.713 -0.5237 -0.4230 -0.0655
  162SAPE    HS18151   2.924   4.006   6.697 -2.0795  1.5737  0.3736
  162SAPE   O2118152   2.986   4.170   6.818  0.0494  0.4305 -0.6597
  162SAPE   C2118153   2.859   4.210   6.820 -0.2187  0.8929 -0.5614
  162SAPE   O2218154   2.771   4.168   6.745 -0.3942 -0.6822 -0.4399
  162SAPE   C2218155   2.837   4.316   6.927 -0.1082  0.1093 -0.0562
  162SAPE   H2R18156   2.937   4.336   6.972  0.7456 -3.9719  0.1955
  162SAPE   H2S18157   2.801   4.407   6.874  0.1535  0.5086  0.4465
  162SAPE    C318158   3.129   3.982   6.763  0.2975 -0.4254 -0.0761
  162SAPE    HX18159   3.213   4.050   6.789 -1.8012  1.9491  0.8630
  162SAPE    HY18160   3.169   3.913   6.686 -0.1811 -0.2092 -0.5261
  162SAPE   O3118161   3.081   3.907   6.874 -0.1817  0.6929 -0.1554
  162SAPE   C3118162   3.041   3.776   6.847  0.0456 -0.3234 -0.0363
  162SAPE   O3218163   3.036   3.724   6.739 -0.3629  0.4123  0.8464
  162SAPE   C3218164   3.028   3.699   6.982  0.3371 -0.8635  0.0752
  162SAPE   H2X18165   2.928   3.735   7.016  0.4539 -0.5816  0.1223
  162SAPE   H2Y18166   3.113   3.733   7.045 -0.1871  2.3287 -0.7900
  162SAPE   C2318167   2.734   4.269   7.036  0.4656 -0.1969  0.2926
  162SAPE   H3R18168   2.658   4.203   6.988 -0.4167  0.8957  0.1427
  162SAPE   H3S18169   2.689   4.363   7.073  0.1732  0.3025 -1.2259
  162SAPE   C2418170   2.801   4.190   7.151 -0.0431 -0.0677  0.6733
  162SAPE   H4R18171   2.852   4.111   7.093 -0.8765  2.4784 -3.9665
  162SAPE   H4S18172   2.714   4.149   7.208 -0.1166  0.3336  0.8491
  162SAPE   C2518173   2.898   4.261   7.237  0.1083 -0.1687  0.1313
  162SAPE   H5R18174   2.991   4.290   7.185 -0.5088  1.7712  0.0144
  162SAPE   C2618175   2.887   4.307   7.361  0.3988  0.1539  0.5094
  162SAPE   H6R18176   2.969   4.366   7.402  1.3491 -0.3498 -0.6048
  162SAPE   C2718177   2.772   4.294   7.452  0.0909  0.2279 -0.6475
  162SAPE   H7R18178   2.676   4.304   7.395  0.4559  1.0724 -1.1375
  162SAPE   H7S18179   2.769   4.382   7.519 -2.7722 -0.2458 -0.0110
  162SAPE   C2818180   2.774   4.159   7.521 -0.1059 -0.3607  0.3480
  162SAPE   H8R18181   2.776   4.068   7.460  2.3035 -2.0956  2.7877
  162SAPE   C2918182   2.783   4.147   7.651  0.6739  0.5732 -0.5713
  162SAPE   H9R18183   2.773   4.046   7.694  0.9134  0.5230 -0.6344
  162SAPE  C21018184   2.785   4.260   7.749 -0.5249 -0.0809 -1.0903
  162SAPE  H10R18185   2.739   4.354   7.712  2.0079  1.8828  0.5116
  162SAPE  H10S18186   2.885   4.306   7.763 -0.8375  0.1916  0.3884
  162SAPE  C21118187   2.725   4.235   7.885 -0.1968  0.1314 -0.3279
  162SAPE  H11R18188   2.648   4.157   7.887 -0.9229  0.8561  0.3985
  162SAPE  C21218189   2.755   4.289   8.005 -0.2639  0.0304 -0.0911
  162SAPE  H12R18190   2.704   4.254   8.096  1.8391  0.5564  1.3679
  162SAPE  C21318191   2.853   4.402   8.040  0.3179  0.4448 -0.4782
  162SAPE  H13R18192   2.797   4.483   8.092 -1.3041 -0.8156 -0.2047
  162SAPE  H13S18193   2.869   4.440   7.937  2.2770 -1.0208 -0.7651
  162SAPE  C21418194   2.978   4.362   8.114  0.2685  0.1548  0.3577
  162SAPE  H14R18195   3.065   4.326   8.057  0.4669  1.9336 -0.5172
  162SAPE  C21518196   2.995   4.384   8.246  0.1624  0.1033 -0.3888
  162SAPE  H15R18197   3.092   4.361   8.294  1.6719  0.4981 -3.0220
  162SAPE  C21618198   2.899   4.448   8.343 -0.1771 -0.5176 -0.0074
  162SAPE  H16R18199   2.842   4.524   8.286  1.9930  1.0611 -0.1996
  162SAPE  H16S18200   2.958   4.505   8.418  3.0424  0.8029 -3.2063
  162SAPE  C21718201   2.776   4.357   8.392 -0.1772 -0.5483  0.5191
  162SAPE  H17R18202   2.729   4.329   8.296 -1.6339 -1.4063  1.4539
  162SAPE  H17S18203   2.710   4.425   8.452 -0.8295 -1.7514  1.1951
  162SAPE  C21818204   2.813   4.236   8.479 -0.2988  0.7573  1.0246
  162SAPE  H18R18205   2.904   4.195   8.430 -2.1005 -0.9324 -1.1208
  162SAPE  H18S18206   2.733   4.162   8.462 -1.8476  1.9433  2.7153
  162SAPE  C21918207   2.814   4.275   8.625  0.0141  0.3413 -0.7500
  162SAPE  H19R18208   2.717   4.253   8.673 -0.5146 -1.4160 -2.5288
  162SAPE  H19S18209   2.823   4.386   8.619  0.4421  0.2432 -2.1551
  162SAPE  C22018210   2.926   4.215   8.716 -0.3117 -0.6885 -0.9532
  162SAPE  H20R18211   2.872   4.183   8.808 -1.8501  2.3453 -0.6866
  162SAPE  H20S18212   3.011   4.278   8.749 -0.2612 -1.9455  1.5482
  162SAPE  H20T18213   2.968   4.125   8.667  1.3821 -0.3072 -0.2669
  162SAPE   C3318214   3.039   3.550   6.974 -0.6482  0.1180 -0.3891
  162SAPE   H3X18215   3.146   3.536   6.950 -0.8188 -1.5004 -0.3545
  162SAPE   H3Y18216   2.985   3.502   6.890  1.3831 -1.7008 -0.7560
  162SAPE   C3418217   2.989   3.480   7.095  0.0240  0.8220 -0.6154
  162SAPE   H4X18218   2.984   3.371   7.074  0.7892  0.9785 -1.6882
  162SAPE   H4Y18219   2.892   3.523   7.126 -0.3437  0.3362 -1.0847
  162SAPE   C3518220   3.084   3.498   7.214 -0.2355  0.2004 -0.4688
  162SAPE   H5X18221   3.115   3.603   7.233 -0.6121  0.4252 -1.0728
  162SAPE   H5Y18222   3.181   3.449   7.189  0.3727  0.4742  1.2307
  162SAPE   C3618223   3.023   3.431   7.337 -0.3181 -0.3928 -0.1205
  162SAPE   H6X18224   2.992   3.329   7.307  0.6762  0.1283 -3.3783
  162SAPE   H6Y18225   2.923   3.479   7.345 -0.8411 -0.9275 -2.5570
  162SAPE   C3718226   3.114   3.441   7.461  0.1579  0.3555 -0.6505
  162SAPE   H7X18227   3.114   3.540   7.512 -1.3176 -0.5959  1.2994
  162SAPE   H7Y18228   3.215   3.407   7.431  0.3943 -0.1088  0.6110
  162SAPE   C3818229   3.056   3.344   7.570  0.3490  0.4503  0.3987
  162SAPE   H8X18230   3.075   3.240   7.538  0.1895  0.4916  0.1680
  162SAPE   H8Y18231   2.946   3.355   7.576  0.4743  3.0563 -0.7407
  162SAPE   C3918232   3.130   3.353   7.704  0.1237  0.1962  0.3376
  162SAPE   H9X18233   3.232   3.387   7.677 -0.3676  1.3223 -0.1933
  162SAPE   H9Y18234   3.137   3.253   7.750  0.9641  0.8046  1.5787
  162SAPE  C31018235   3.061   3.427   7.814  0.2094  0.2135  0.2685
  162SAPE  H10X18236   2.970   3.371   7.844 -0.1944 -0.0720 -1.3881
  162SAPE  H10Y18237   3.011   3.516   7.771  2.3966  1.1733 -0.4561
  162SAPE  C31118238   3.159   3.457   7.931  0.5265  0.9755  0.3535
  162SAPE  H11X18239   3.229   3.539   7.907  1.6623  0.3552  1.4395
  162SAPE  H11Y18240   3.219   3.370   7.965 -0.1397  0.3675  0.0091
  162SAPE  C31218241   3.094   3.497   8.063  0.0391  0.6523  0.2623
  162SAPE  H12X18242   3.013   3.571   8.049 -1.9563 -1.4127  0.2707
  162SAPE  H12Y18243   3.168   3.549   8.128  1.6118 -0.8699 -0.2198
  162SAPE  C31318244   3.041   3.381   8.150 -0.3091 -0.7249 -0.3250
  162SAPE  H13X18245   3.128   3.320   8.183 -1.1498 -0.2261  3.2465
  162SAPE  H13Y18246   2.963   3.319   8.102  1.2261 -1.4447 -2.0293
  162SAPE  C31418247   2.984   3.441   8.283 -0.2710 -0.0724  0.1044
  162SAPE  H14X18248   2.880   3.475   8.260 -2.7444 -5.5380  1.5249
  162SAPE  H14Y18249   3.051   3.523   8.314 -0.7426  0.6657 -0.7836
  162SAPE  C31518250   2.967   3.329   8.390 -0.0162  0.0515 -0.3652
  162SAPE  H15X18251   3.045   3.250   8.398  0.0707  0.1657 -0.0994
  162SAPE  H15Y18252   2.872   3.275   8.366 -1.6858  2.6594 -0.0396
  162SAPE  C31618253   2.943   3.393   8.526  0.5635  0.2092  0.5481
  162SAPE  H16X18254   2.876   3.482   8.520  1.2414  0.7817  1.2382
  162SAPE  H16Y18255   3.037   3.445   8.554  0.5310  0.1985  0.6782
  162SAPE  C31718256   2.913   3.296   8.644  0.1741 -0.2331 -0.4466
  162SAPE  H17X18257   3.013   3.254   8.668 -0.1640 -1.0895 -0.5116
  162SAPE  H17Y18258   2.849   3.210   8.616 -0.2775  0.0115 -0.1655
  162SAPE  C31818259   2.843   3.354   8.768 -0.3001 -0.1584  0.6948
  162SAPE  H18X18260   2.739   3.395   8.763 -0.0382  0.7675  2.1858
  162SAPE  H18Y18261   2.913   3.428   8.812  0.6912 -3.0329  4.4551
  162SAPE  H18Z18262   2.845   3.281   8.851  0.2865  0.3343  1.1249
  163SAPE     N18263   2.172   1.432   6.409 -0.0921 -0.2328 -0.2726
  163SAPE   HN118264   2.169   1.416   6.306 -2.1535  1.3135 -0.5163
  163SAPE   HN218265   2.155   1.534   6.419 -0.5705  0.0528 -3.1120
  163SAPE   HN318266   2.264   1.396   6.441  0.4849  1.7492  0.4339
  163SAPE   C1218267   2.062   1.356   6.493 -0.5898 -0.4860  0.2275
  163SAPE  H12A18268   2.056   1.257   6.443  1.1068  0.1215 -1.3117
  163SAPE  H12B18269   1.968   1.414   6.477  0.4493  1.3164  0.3713
  163SAPE   C1118270   2.110   1.350   6.638  0.2497 -0.0885  0.0772
  163SAPE  H11A18271   2.207   1.298   6.655 -1.4684 -3.3510  0.8060
  163SAPE  H11B18272   2.042   1.281   6.693  0.0935 -0.7473 -0.9250
  163SAPE     P18273   1.981   1.523   6.777 -0.2507 -0.1231  0.2925
  163SAPE   O1318274   2.009   1.664   6.809 -0.2719 -0.3974  0.1674
  163SAPE   O1418275   1.860   1.492   6.693 -0.4031 -0.3353 -0.0967
  163SAPE   O1218276   2.115   1.484   6.693  0.7713  0.3790 -0.0377
  163SAPE   O1118277   1.982   1.434   6.908  0.4671 -0.0551 -0.0135
  163SAPE    C118278   2.107   1.411   6.969 -0.7383  0.6511 -0.0704
  163SAPE    HA18279   2.141   1.307   6.954  0.2781  0.8219  0.8895
  163SAPE    HB18280   2.198   1.467   6.938 -1.5657  2.1006  0.0434
  163SAPE    C218281   2.113   1.446   7.125 -0.0641  0.4277 -0.5512
  163SAPE    HS18282   2.212   1.411   7.161 -0.6719 -0.0979  0.6531
  163SAPE   O2118283   2.001   1.386   7.193 -1.1784  0.3166  0.3259
  163SAPE   C2118284   2.017   1.249   7.211  0.8111  0.4050  0.2021
  163SAPE   O2218285   2.109   1.182   7.162 -0.5913 -0.2262  0.4680
  163SAPE   C2218286   1.920   1.188   7.317  0.1545 -0.0844 -0.5244
  163SAPE   H2R18287   1.945   1.224   7.419  1.0801 -1.2691 -0.3057
  163SAPE   H2S18288   1.818   1.225   7.294 -0.6951  0.9988  3.9577
  163SAPE    C318289   2.108   1.602   7.141  0.1748  0.5493  0.2774
  163SAPE    HX18290   2.007   1.631   7.108  0.9747  1.3351 -1.6396
  163SAPE    HY18291   2.189   1.644   7.076  1.1441 -1.8908 -0.2099
  163SAPE   O3118292   2.127   1.627   7.279 -0.3826  0.6913  0.0476
  163SAPE   C3118293   2.125   1.752   7.319  0.2183 -0.4781 -0.8297
  163SAPE   O3218294   2.121   1.849   7.244  0.6080 -0.3504  0.5496
  163SAPE   C3218295   2.159   1.767   7.470 -0.0305 -0.1486  0.1708
  163SAPE   H2X18296   2.270   1.769   7.474  0.1613 -0.4533 -2.7673
  163SAPE   H2Y18297   2.123   1.673   7.518  1.5606 -2.6784 -3.1369
  163SAPE   C2318298   1.926   1.036   7.318  0.2112  0.4233  0.3483
  163SAPE   H3R18299   2.027   0.993   7.303  0.0529 -0.1177  0.8348
  163SAPE   H3S18300   1.866   1.004   7.230  1.0455 -1.0576  0.2872
  163SAPE   C2418301   1.865   0.967   7.451  0.5054 -0.5103  0.2971
  163SAPE   H4R18302   1.854   0.859   7.430  1.0361 -0.5942  0.4277
  163SAPE   H4S18303   1.769   1.020   7.468  1.4377  0.9853  1.1627
  163SAPE   C2518304   1.954   0.988   7.567  0.1278  0.7600  0.2993
  163SAPE   H5R18305   2.023   1.073   7.563 -0.5203  1.3553  1.4464
  163SAPE   C2618306   1.950   0.910   7.683  0.0666  0.3550  0.5717
  163SAPE   H6R18307   2.024   0.923   7.763 -0.2663 -4.2390  1.9271
  163SAPE   C2718308   1.856   0.794   7.706 -0.7045  0.2567 -0.1184
  163SAPE   H7R18309   1.913   0.699   7.713 -1.5458 -0.2371  0.1008
  163SAPE   H7S18310   1.785   0.794   7.621  0.4389  2.3986 -1.1575
  163SAPE   C2818311   1.782   0.813   7.834  0.1657 -0.6387  0.7632
  163SAPE   H8R18312   1.709   0.895   7.841  0.4284 -0.4028  0.7506
  163SAPE   C2918313   1.804   0.744   7.945 -0.2101 -1.0727  0.4829
  163SAPE   H9R18314   1.737   0.766   8.030 -0.0053 -0.7137  0.5527
  163SAPE  C21018315   1.902   0.642   7.979  0.2096 -0.5832  0.3669
  163SAPE  H10R18316   1.959   0.684   8.065 -0.1602  2.3967 -0.7163
  163SAPE  H10S18317   1.982   0.636   7.903  0.0238  2.0501 -0.1202
  163SAPE  C21118318   1.849   0.503   8.012 -0.4425  0.5163 -0.0871
  163SAPE  H11R18319   1.835   0.440   7.924  0.5443  1.4600 -0.9493
  163SAPE  C21218320   1.816   0.459   8.135 -0.0104 -0.0836  0.4547
  163SAPE  H12R18321   1.783   0.354   8.143  1.4320 -0.8838 -2.5651
  163SAPE  C21318322   1.831   0.537   8.262 -0.0019 -0.2371 -0.0164
  163SAPE  H13R18323   1.743   0.604   8.272 -0.3229 -0.5875 -0.4345
  163SAPE  H13S18324   1.919   0.604   8.260  0.0096 -0.2208  0.8425
  163SAPE  C21418325   1.849   0.457   8.388  1.1868  0.2005  0.6055
  163SAPE  H14R18326   1.877   0.351   8.378 -1.1519 -0.4784  0.7746
  163SAPE  C21518327   1.846   0.506   8.510 -0.7142  0.1572  0.8182
  163SAPE  H15R18328   1.858   0.434   8.592  1.6807  0.0756  0.4821
  163SAPE  C21618329   1.828   0.655   8.539 -0.2015 -0.7358 -0.0544
  163SAPE  H16R18330   1.869   0.708   8.450 -0.0089 -1.0094 -0.1305
  163SAPE  H16S18331   1.881   0.694   8.629 -3.5432  0.7053  1.4691
  163SAPE  C21718332   1.677   0.703   8.537  0.5697  0.0597  0.1590
  163SAPE  H17R18333   1.635   0.670   8.439 -1.2888  0.7340  0.6796
  163SAPE  H17S18334   1.662   0.813   8.535 -0.7065 -0.1013 -1.0608
  163SAPE  C21818335   1.602   0.652   8.660  0.1351  0.8263  0.3241
  163SAPE  H18R18336   1.664   0.693   8.742  3.1330 -1.8232 -0.4205
  163SAPE  H18S18337   1.601   0.541   8.670 -1.7181  0.6656 -1.0464
  163SAPE  C21918338   1.463   0.704   8.676  0.6335  0.0971 -0.2035
  163SAPE  H19R18339   1.408   0.660   8.590  0.8811  0.4524 -0.5491
  163SAPE  H19S18340   1.450   0.812   8.655 -1.8272 -0.4368 -1.9118
  163SAPE  C22018341   1.392   0.642   8.804  0.4758 -0.2242  0.5623
  163SAPE  H20R18342   1.292   0.691   8.810 -0.1114 -0.8086 -2.7763
  163SAPE  H20S18343   1.439   0.671   8.901 -1.3976 -0.2923  1.5298
  163SAPE  H20T18344   1.396   0.532   8.792  2.1782 -0.0359 -1.1887
  163SAPE   C3318345   2.104   1.897   7.536  0.6261 -0.9396 -0.5714
  163SAPE   H3X18346   2.108   1.977   7.458  0.1969  0.7741  1.0938
  163SAPE   H3Y18347   2.162   1.927   7.625  1.1663  0.5516 -1.3784
  163SAPE   C3418348   1.952   1.888   7.574  0.1940  0.0134  0.7559
  163SAPE   H4X18349   1.894   1.859   7.484  1.9384  1.4163 -0.9081
  163SAPE   H4Y18350   1.911   1.988   7.599 -0.4445 -0.1016  0.2040
  163SAPE   C3518351   1.917   1.782   7.674 -0.1243  0.2006  0.2682
  163SAPE   H5X18352   2.012   1.736   7.708  0.2415  0.9066  0.2314
  163SAPE   H5Y18353   1.851   1.706   7.627 -1.1244  1.7128 -0.8507
  163SAPE   C3618354   1.876   1.849   7.810  0.0221  0.1898  0.3700
  163SAPE   H6X18355   1.795   1.924   7.794  0.8205  0.6295 -2.0524
  163SAPE   H6Y18356   1.966   1.906   7.838 -0.8004  2.4784 -1.3374
  163SAPE   C3718357   1.830   1.747   7.914 -0.1735  0.0063  0.2444
  163SAPE   H7X18358   1.914   1.675   7.924  0.7127  0.7837 -1.3666
  163SAPE   H7Y18359   1.731   1.704   7.887 -0.2779  0.0572  0.5372
  163SAPE   C3818360   1.826   1.821   8.046 -0.2454 -0.2943 -0.2212
  163SAPE   H8X18361   1.775   1.919   8.044  0.6564  0.1847 -0.3267
  163SAPE   H8Y18362   1.929   1.853   8.072 -1.7303  4.3210  0.8594
  163SAPE   C3918363   1.756   1.736   8.155  0.4149 -0.1868  0.5337
  163SAPE   H9X18364   1.810   1.639   8.165 -0.1279 -0.4411  1.0413
  163SAPE   H9Y18365   1.652   1.719   8.121  0.8221  0.0212 -0.8834
  163SAPE  C31018366   1.758   1.798   8.298  0.7532 -0.0682  0.8261
  163SAPE  H10X18367   1.671   1.867   8.299 -0.9116 -2.0799  1.9271
  163SAPE  H10Y18368   1.847   1.850   8.339  0.3954  1.1253  0.1398
  163SAPE  C31118369   1.723   1.690   8.400 -0.0346 -0.7274 -0.5595
  163SAPE  H11X18370   1.808   1.617   8.403  0.3937 -0.2964 -1.6377
  163SAPE  H11Y18371   1.633   1.639   8.360 -1.1422  1.2482 -0.6935
  163SAPE  C31218372   1.679   1.741   8.539 -0.0224 -0.8551 -0.2311
  163SAPE  H12X18373   1.575   1.777   8.550  0.3080  0.1210 -0.1366
  163SAPE  H12Y18374   1.752   1.815   8.578  0.1300 -0.3447 -1.4370
  163SAPE  C31318375   1.674   1.631   8.647 -0.2528 -0.0936 -0.0063
  163SAPE  H13X18376   1.776   1.595   8.670 -0.4250 -1.6516 -1.4671
  163SAPE  H13Y18377   1.623   1.546   8.598  0.0294 -1.4816  2.0095
  163SAPE  C31418378   1.608   1.677   8.776 -0.0627  0.3573  0.2620
  163SAPE  H14X18379   1.500   1.687   8.750  0.0727  0.3122 -0.3409
  163SAPE  H14Y18380   1.659   1.769   8.813 -1.7566  1.4905 -0.0983
  163SAPE  C31518381   1.634   1.578   8.887  0.7143 -0.0791  0.0604
  163SAPE  H15X18382   1.739   1.544   8.897  1.3657  1.9389  0.5107
  163SAPE  H15Y18383   1.570   1.494   8.854 -1.4505  2.0519 -1.5597
  163SAPE  C31618384   1.594   1.633   9.025 -0.0696 -0.1649  0.7492
  163SAPE  H16X18385   1.496   1.684   9.010 -0.0282 -0.1668  0.4634
  163SAPE  H16Y18386   1.666   1.713   9.054 -0.6190  1.0894 -1.1371
  163SAPE  C31718387   1.584   1.523   9.142 -0.1629 -0.2002 -0.5072
  163SAPE  H17X18388   1.553   1.563   9.241  0.1995 -1.0481 -0.0426
  163SAPE  H17Y18389   1.688   1.490   9.164 -0.8284 -1.1322  1.3689
  163SAPE  C31818390   1.504   1.399   9.100 -0.7779  0.5217 -0.5501
  163SAPE  H18X18391   1.522   1.319   9.175 -0.1758  0.5302 -0.6829
  163SAPE  H18Y18392   1.547   1.367   9.003  0.0005 -1.1554  0.3014
  163SAPE  H18Z18393   1.396   1.420   9.083 -1.0128 -0.3572 -0.2137
  164SAPE     N18394   5.560   3.525   6.162 -0.2634  0.7615 -0.1993
  164SAPE   HN118395   5.639   3.495   6.101 -0.1517 -5.4366  2.2692
  164SAPE   HN218396   5.479   3.461   6.153 -0.3767  0.7757  0.6687
  164SAPE   HN318397   5.535   3.620   6.128  1.7022  1.8880  1.2394
  164SAPE   C1218398   5.601   3.536   6.305  0.1737  0.3456  0.2959
  164SAPE  H12A18399   5.513   3.576   6.360 -0.3139 -0.5193  0.1463
  164SAPE  H12B18400   5.674   3.620   6.315  1.3749 -0.9275  4.2204
  164SAPE   C1118401   5.647   3.402   6.353 -0.2829  0.0691  0.0841
  164SAPE  H11A18402   5.561   3.334   6.330 -1.0919  1.3167 -0.7011
  164SAPE  H11B18403   5.659   3.410   6.463  0.7784  1.9078 -0.1291
  164SAPE     P18404   5.904   3.414   6.323 -0.2744  0.0583 -0.1286
  164SAPE   O1318405   6.007   3.364   6.224 -0.4371 -0.2975 -0.5501
  164SAPE   O1418406   5.897   3.557   6.337 -0.1109 -0.2034 -0.0665
  164SAPE   O1218407   5.761   3.358   6.281  0.1199 -0.3546 -0.0401
  164SAPE   O1118408   5.930   3.351   6.461 -0.1916  0.0371 -0.0180
  164SAPE    C118409   5.964   3.219   6.473 -0.2860 -0.0946 -0.4093
  164SAPE    HA18410   5.957   3.154   6.384 -0.7337 -2.2892  1.1425
  164SAPE    HB18411   6.064   3.193   6.514 -0.2758 -0.8080 -0.8745
  164SAPE    C218412   5.869   3.155   6.577 -0.4535  0.0988 -0.8388
  164SAPE    HS18413   5.773   3.173   6.525 -0.6711 -0.1629 -0.5379
  164SAPE   O2118414   5.880   3.213   6.707 -0.1648  0.4499 -0.2733
  164SAPE   C2118415   5.761   3.230   6.766  0.0644 -0.0197  0.5315
  164SAPE   O2218416   5.654   3.201   6.720 -0.4614 -0.2481  0.2671
  164SAPE   C2218417   5.792   3.315   6.893 -0.1542 -0.3858 -0.3911
  164SAPE   H2R18418   5.861   3.255   6.955  0.4066 -0.7479 -1.3440
  164SAPE   H2S18419   5.833   3.415   6.867 -1.4547 -0.3882 -2.7907
  164SAPE    C318420   5.895   3.000   6.584  0.0300 -0.2246  0.6223
  164SAPE    HX18421   5.995   2.987   6.630  0.1840 -1.3509 -0.0007
  164SAPE    HY18422   5.900   2.960   6.481  3.3735 -1.6951  1.2458
  164SAPE   O3118423   5.806   2.932   6.668  0.3712 -0.1104 -0.2673
  164SAPE   C3118424   5.684   2.899   6.620 -0.5544  0.0101 -0.4424
  164SAPE   O3218425   5.653   2.926   6.507 -0.0174 -0.3985  0.0598
  164SAPE   C3218426   5.588   2.859   6.734 -0.2734  0.4922 -0.5688
  164SAPE   H2X18427   5.535   2.767   6.701 -0.5701  0.8091 -0.9874
  164SAPE   H2Y18428   5.526   2.949   6.747  1.3329  1.6915 -0.8635
  164SAPE   C2318429   5.674   3.344   6.975  0.6022 -0.0336 -0.1354
  164SAPE   H3R18430   5.592   3.389   6.914  2.2088  1.6886 -1.1236
  164SAPE   H3S18431   5.706   3.417   7.052  0.3760  0.1688 -0.2301
  164SAPE   C2418432   5.611   3.233   7.064  0.1287 -0.4732  1.0790
  164SAPE   H4R18433   5.696   3.190   7.121  0.7926 -1.3018 -0.4815
  164SAPE   H4S18434   5.566   3.156   6.997  1.3966  0.2452 -0.6708
  164SAPE   C2518435   5.497   3.290   7.153  0.7335  0.2419 -0.6727
  164SAPE   H5R18436   5.404   3.324   7.107 -0.2488 -0.0157  1.0654
  164SAPE   C2618437   5.505   3.303   7.286  0.1145 -0.1894 -0.1316
  164SAPE   H6R18438   5.409   3.336   7.329 -0.8770 -1.8759 -0.9055
  164SAPE   C2718439   5.619   3.264   7.381  0.5441 -0.7854  0.1073
  164SAPE   H7R18440   5.702   3.217   7.324 -0.8892 -2.3504 -0.7743
  164SAPE   H7S18441   5.570   3.186   7.443 -2.2167 -1.0479 -2.2099
  164SAPE   C2818442   5.671   3.379   7.472  0.3687  0.5072  0.1718
  164SAPE   H8R18443   5.753   3.437   7.427 -0.2088  0.5742 -0.8338
  164SAPE   C2918444   5.648   3.401   7.603 -0.3397 -0.6568  0.3414
  164SAPE   H9R18445   5.712   3.475   7.655  1.6357 -1.8832 -0.2234
  164SAPE  C21018446   5.558   3.313   7.688 -0.2377  0.1469 -0.3577
  164SAPE  H10R18447   5.581   3.206   7.670 -0.6650 -0.3638  1.8743
  164SAPE  H10S18448   5.450   3.332   7.669 -0.3325  0.9727  0.9070
  164SAPE  C21118449   5.595   3.349   7.831 -0.4522  0.4218 -0.0153
  164SAPE  H11R18450   5.703   3.349   7.854 -1.1978 -0.6228  4.3517
  164SAPE  C21218451   5.515   3.379   7.931  0.8977  0.5527  0.0305
  164SAPE  H12R18452   5.567   3.403   8.025 -1.7663 -1.5282  2.2331
  164SAPE  C21318453   5.371   3.386   7.929  0.2136 -0.0626  1.0328
  164SAPE  H13R18454   5.352   3.412   8.036  1.2301  1.1539  0.9450
  164SAPE  H13S18455   5.332   3.282   7.926 -1.2156  0.3656  2.5994
  164SAPE  C21418456   5.303   3.483   7.834 -0.2854  0.5093  0.1465
  164SAPE  H14R18457   5.360   3.574   7.814 -1.6143  1.8548  2.0547
  164SAPE  C21518458   5.198   3.460   7.757 -0.3069  0.3227  0.1801
  164SAPE  H15R18459   5.170   3.542   7.690 -0.4534  0.1227 -0.0062
  164SAPE  C21618460   5.099   3.345   7.746 -0.2071 -0.1402  0.5269
  164SAPE  H16R18461   5.027   3.360   7.828  1.2452  1.0196  1.6512
  164SAPE  H16S18462   5.149   3.246   7.748 -0.0329 -0.1247 -1.2190
  164SAPE  C21718463   5.026   3.357   7.605  0.2102 -0.0252 -0.4607
  164SAPE  H17R18464   4.972   3.453   7.600 -0.3144 -0.3898 -2.4376
  164SAPE  H17S18465   4.947   3.280   7.621  2.1774 -2.1410 -0.3285
  164SAPE  C21818466   5.101   3.320   7.483  0.7971 -0.0999 -0.3848
  164SAPE  H18R18467   5.139   3.218   7.501 -0.3515 -0.4856 -0.0308
  164SAPE  H18S18468   5.183   3.395   7.477 -0.3134  1.2275  0.3256
  164SAPE  C21918469   5.029   3.349   7.358 -0.5176  0.8369 -0.1064
  164SAPE  H19R18470   4.970   3.441   7.380 -1.6003  0.0628  0.2931
  164SAPE  H19S18471   4.952   3.271   7.344  0.8900 -0.8067  0.8906
  164SAPE  C22018472   5.115   3.346   7.227 -0.0308 -0.4148  0.1140
  164SAPE  H20R18473   5.195   3.423   7.225  0.3377 -0.7828 -2.3694
  164SAPE  H20S18474   5.065   3.369   7.130 -0.3565  0.0073  0.3763
  164SAPE  H20T18475   5.158   3.244   7.230 -2.3708 -1.4787 -0.0857
  164SAPE   C3318476   5.651   2.830   6.873  1.0334  0.0858  0.6143
  164SAPE   H3X18477   5.709   2.923   6.894  0.9139  0.4723 -0.6916
  164SAPE   H3Y18478   5.717   2.740   6.870  1.7296  0.5638  1.0951
  164SAPE   C3418479   5.544   2.822   6.982 -0.1460 -0.0734 -0.6122
  164SAPE   H4X18480   5.483   2.729   6.978  1.1571 -0.9666 -0.3320
  164SAPE   H4Y18481   5.479   2.907   6.954 -0.1009 -0.9296 -3.5791
  164SAPE   C3518482   5.593   2.848   7.127 -0.4591 -0.1029 -0.1043
  164SAPE   H5X18483   5.495   2.844   7.180 -1.1559  3.0971 -0.9156
  164SAPE   H5Y18484   5.637   2.948   7.147 -1.7884  0.6161 -0.5726
  164SAPE   C3618485   5.695   2.738   7.173  0.5555 -0.4739  0.3158
  164SAPE   H6X18486   5.787   2.768   7.118 -0.3751 -2.8947 -2.8490
  164SAPE   H6Y18487   5.647   2.643   7.140 -1.5260  0.5125  0.3472
  164SAPE   C3718488   5.727   2.734   7.327 -0.3947 -0.3350 -0.3577
  164SAPE   H7X18489   5.818   2.791   7.353 -0.1636 -1.2595  1.0006
  164SAPE   H7Y18490   5.751   2.628   7.352  1.4594 -0.2807 -1.7019
  164SAPE   C3818491   5.610   2.772   7.416 -0.3521 -0.6543 -0.2383
  164SAPE   H8X18492   5.530   2.698   7.396  0.2585 -1.3218 -0.2433
  164SAPE   H8Y18493   5.570   2.870   7.382 -0.2731 -0.3022  0.6414
  164SAPE   C3918494   5.634   2.784   7.566 -0.1704  0.5336  0.5719
  164SAPE   H9X18495   5.680   2.695   7.614  0.1771 -0.8666 -2.1688
  164SAPE   H9Y18496   5.535   2.797   7.614 -1.2328 -1.7214 -0.8472
  164SAPE  C31018497   5.730   2.904   7.598 -0.2740 -0.0455  0.2370
  164SAPE  H10X18498   5.718   2.999   7.542 -0.4236 -0.6730 -0.8144
  164SAPE  H10Y18499   5.838   2.880   7.583  0.1266  2.6274 -2.1758
  164SAPE  C31118500   5.740   2.940   7.748  0.1341  0.2036  0.6791
  164SAPE  H11X18501   5.647   2.987   7.786  0.5996  0.3710  1.6641
  164SAPE  H11Y18502   5.821   3.016   7.755  0.3527 -0.0639  1.2048
  164SAPE  C31218503   5.774   2.823   7.839  0.5708  0.6694 -0.1035
  164SAPE  H12X18504   5.860   2.764   7.804 -0.8583 -1.0315 -0.8944
  164SAPE  H12Y18505   5.692   2.749   7.847  0.2380  1.1012  0.6844
  164SAPE  C31318506   5.794   2.867   7.985  0.1574 -0.1153  0.2226
  164SAPE  H13X18507   5.701   2.918   8.017 -1.3329 -2.2928 -0.4259
  164SAPE  H13Y18508   5.880   2.937   7.985  0.9817 -1.0605  1.8914
  164SAPE  C31418509   5.827   2.753   8.082  0.2215  0.3981  0.0847
  164SAPE  H14X18510   5.919   2.704   8.045  1.7855  1.9023  1.8218
  164SAPE  H14Y18511   5.743   2.681   8.074 -0.0716  0.9081 -2.3464
  164SAPE  C31518512   5.853   2.799   8.231 -0.3441  0.5227 -0.2861
  164SAPE  H15X18513   5.765   2.858   8.263 -2.0906 -1.1645 -1.7009
  164SAPE  H15Y18514   5.943   2.863   8.236 -0.0222  0.0007  2.4135
  164SAPE  C31618515   5.873   2.688   8.332 -0.2109  0.7263  0.0918
  164SAPE  H16X18516   5.957   2.626   8.293  0.2935  1.0920  0.5953
  164SAPE  H16Y18517   5.791   2.613   8.330  0.0846  0.4020 -0.5882
  164SAPE  C31718518   5.890   2.735   8.479 -0.0052  0.2499  0.5849
  164SAPE  H17X18519   5.835   2.657   8.536 -0.3159  0.0627  0.0429
  164SAPE  H17Y18520   5.824   2.824   8.484 -0.2390  0.1543 -0.5502
  164SAPE  C31818521   6.031   2.760   8.531 -0.0890  0.3098  0.6404
  164SAPE  H18X18522   6.029   2.737   8.640 -1.6095 -0.2078  0.5261
  164SAPE  H18Y18523   6.063   2.866   8.518 -1.0100  0.5228  0.0301
  164SAPE  H18Z18524   6.098   2.695   8.471 -0.9331 -0.4821  0.5307
  165SAPE     N18525   4.600   1.614   6.325 -0.3775  0.4411  0.4716
  165SAPE   HN118526   4.635   1.704   6.363 -2.1255  2.8043 -2.9738
  165SAPE   HN218527   4.629   1.530   6.379  1.0516 -1.1509 -2.5238
  165SAPE   HN318528   4.635   1.600   6.229  0.2599 -0.6236  0.8510
  165SAPE   C1218529   4.453   1.640   6.323  0.2243 -0.5636  0.4177
  165SAPE  H12A18530   4.401   1.546   6.295 -0.0083 -0.2634 -0.1824
  165SAPE  H12B18531   4.445   1.714   6.241  1.0450  0.1012  0.9223
  165SAPE   C1118532   4.391   1.708   6.447  0.3040  0.2844  0.5005
  165SAPE  H11A18533   4.387   1.643   6.538  0.2556  0.2177  0.4510
  165SAPE  H11B18534   4.283   1.727   6.430  0.3617 -0.0710 -0.3021
  165SAPE     P18535   4.389   1.968   6.466  0.2373  0.1091  0.2263
  165SAPE   O1318536   4.418   2.027   6.331  0.4617  0.1509 -0.1673
  165SAPE   O1418537   4.245   1.954   6.501  0.3947 -0.1076 -0.0292
  165SAPE   O1218538   4.461   1.830   6.474  0.3249 -0.0362  0.1430
  165SAPE   O1118539   4.469   2.053   6.576 -0.0000 -0.3175 -0.4504
  165SAPE    C118540   4.457   2.012   6.715 -0.5416 -0.1129 -0.0983
  165SAPE    HA18541   4.370   2.060   6.764 -0.4701 -2.8536  3.0894
  165SAPE    HB18542   4.437   1.903   6.724  1.5151 -0.4371  1.3733
  165SAPE    C218543   4.580   2.041   6.802  0.0154 -0.0673 -0.5869
  165SAPE    HS18544   4.667   2.048   6.734  0.0147  4.5914 -0.4223
  165SAPE   O2118545   4.575   1.952   6.911 -0.1895  0.4213  0.5962
  165SAPE   C2118546   4.695   1.898   6.933 -0.2676  0.3385 -0.8654
  165SAPE   O2218547   4.792   1.908   6.862  0.4653 -0.0840  0.2942
  165SAPE   C2218548   4.693   1.813   7.063 -0.1180  0.3277 -1.2348
  165SAPE   H2R18549   4.588   1.780   7.076  0.3806 -0.4936  1.1267
  165SAPE   H2S18550   4.771   1.734   7.052 -0.7008 -0.1477 -2.0896
  165SAPE    C318551   4.571   2.178   6.860 -0.2201 -0.4685  0.3730
  165SAPE    HX18552   4.470   2.197   6.902 -0.3718  2.8356 -1.0940
  165SAPE    HY18553   4.574   2.251   6.776 -0.6962  1.4436  1.9539
  165SAPE   O3118554   4.674   2.211   6.948 -0.6049  0.3569 -0.2634
  165SAPE   C3118555   4.786   2.268   6.898 -0.3896  0.0115  0.0967
  165SAPE   O3218556   4.818   2.278   6.781  0.4255 -0.4514 -0.0341
  165SAPE   C3218557   4.881   2.316   7.010  0.3406 -0.4943  0.2912
  165SAPE   H2X18558   4.891   2.426   6.999  0.0828 -0.4513  0.4742
  165SAPE   H2Y18559   4.974   2.256   7.000  0.3810 -0.8343  2.2491
  165SAPE   C2318560   4.723   1.905   7.182  0.0127 -0.4742 -0.1918
  165SAPE   H3R18561   4.659   1.873   7.267  1.0976 -1.6346  0.2215
  165SAPE   H3S18562   4.692   2.009   7.157  0.3333 -0.7585 -1.8736
  165SAPE   C2418563   4.866   1.908   7.234  0.3248  0.5624  0.4519
  165SAPE   H4R18564   4.872   2.000   7.296 -1.2091  1.5846 -0.8368
  165SAPE   H4S18565   4.940   1.917   7.152  0.3423  0.0557  0.4061
  165SAPE   C2518566   4.903   1.783   7.305 -0.4239 -1.1422  0.2042
  165SAPE   H5R18567   4.940   1.702   7.241 -2.1268  0.3429 -2.8894
  165SAPE   C2618568   4.888   1.763   7.437  0.1585  0.0909 -0.4352
  165SAPE   H6R18569   4.910   1.661   7.473  2.8245  1.1965  1.3714
  165SAPE   C2718570   4.830   1.861   7.544  0.0313 -0.7465 -0.4419
  165SAPE   H7R18571   4.750   1.807   7.598  1.1011 -1.1122  0.8215
  165SAPE   H7S18572   4.776   1.953   7.512 -1.3650 -1.6751 -0.8317
  165SAPE   C2818573   4.920   1.914   7.651  0.7407  0.8349 -0.0676
  165SAPE   H8R18574   4.964   2.007   7.614  1.6601  0.4950  0.1386
  165SAPE   C2918575   4.936   1.877   7.783  0.5797  0.1168  0.4948
  165SAPE   H9R18576   4.995   1.945   7.846 -1.2503  0.6395  1.7208
  165SAPE  C21018577   4.855   1.773   7.856  0.3644  0.0540  0.4136
  165SAPE  H10R18578   4.793   1.715   7.785 -1.5103  3.7350 -1.2263
  165SAPE  H10S18579   4.783   1.823   7.924  1.1651  1.6293  0.1468
  165SAPE  C21118580   4.954   1.704   7.939 -0.2404  0.3431 -0.3706
  165SAPE  H11R18581   5.037   1.664   7.878 -0.1131  2.4249 -1.6822
  165SAPE  C21218582   4.953   1.699   8.072  0.2121  0.8031  0.1487
  165SAPE  H12R18583   5.039   1.664   8.131  0.1976  3.9985  2.3549
  165SAPE  C21318584   4.843   1.751   8.162  1.0312  0.6420 -0.4132
  165SAPE  H13R18585   4.745   1.703   8.140  1.7025 -0.0843 -1.9360
  165SAPE  H13S18586   4.811   1.855   8.140 -0.6562  0.1355 -0.4586
  165SAPE  C21418587   4.895   1.742   8.301 -0.3782 -0.2115  0.2105
  165SAPE  H14R18588   4.862   1.658   8.364  1.2498  1.2961  3.3165
  165SAPE  C21518589   4.974   1.830   8.373 -0.0612 -0.2892 -0.1043
  165SAPE  H15R18590   5.000   1.815   8.478  0.3609  3.4225  0.4571
  165SAPE  C21618591   5.039   1.955   8.326 -0.5380  0.9396 -0.0773
  165SAPE  H16R18592   5.040   1.965   8.215 -2.1207  1.0430 -0.1115
  165SAPE  H16S18593   5.145   1.956   8.357 -0.3149 -1.1350 -0.6378
  165SAPE  C21718594   4.977   2.090   8.376  0.1925 -0.2763 -0.5867
  165SAPE  H17R18595   4.868   2.075   8.357  0.4741 -1.7910 -1.1492
  165SAPE  H17S18596   5.017   2.166   8.306  1.3130 -0.4415 -0.1386
  165SAPE  C21818597   5.000   2.135   8.524 -0.3052 -0.6919 -0.3086
  165SAPE  H18R18598   5.105   2.107   8.548 -1.0900 -1.4630  2.7072
  165SAPE  H18S18599   4.940   2.067   8.589  0.9239 -0.4606  1.1207
  165SAPE  C21918600   4.979   2.284   8.555  0.8001 -0.7106 -0.0086
  165SAPE  H19R18601   4.891   2.325   8.502  3.5314  3.1539 -2.0450
  165SAPE  H19S18602   5.060   2.340   8.504  2.1655 -1.0865  1.6574
  165SAPE  C22018603   4.973   2.321   8.702  0.0476  0.4131 -0.4198
  165SAPE  H20R18604   5.072   2.300   8.748  0.1087  0.2175 -0.6371
  165SAPE  H20S18605   4.898   2.257   8.754 -1.5045  0.7909 -2.0941
  165SAPE  H20T18606   4.941   2.426   8.714  0.5783  0.6483 -0.9804
  165SAPE   C3318607   4.827   2.296   7.158  0.0862  0.1349  0.2283
  165SAPE   H3X18608   4.784   2.194   7.165  0.8263 -0.1869  0.1715
  165SAPE   H3Y18609   4.745   2.370   7.165  1.1135  1.7351 -2.9035
  165SAPE   C3418610   4.938   2.312   7.263  0.3947  0.2886 -0.1778
  165SAPE   H4X18611   4.985   2.413   7.261  0.1186  0.4167 -0.2274
  165SAPE   H4Y18612   5.017   2.236   7.244  1.2664  0.9104  0.8150
  165SAPE   C3518613   4.892   2.286   7.408  0.0152 -0.3414  0.0245
  165SAPE   H5X18614   4.858   2.181   7.422 -0.3762 -0.5872 -2.2793
  165SAPE   H5Y18615   4.814   2.364   7.425  1.8366  1.3067  1.3556
  165SAPE   C3618616   5.010   2.326   7.502 -0.7739 -0.2662 -0.3216
  165SAPE   H6X18617   5.056   2.422   7.469  0.2867 -0.3247  0.9205
  165SAPE   H6Y18618   5.089   2.248   7.501  0.3267  0.7946  0.3378
  165SAPE   C3718619   4.974   2.345   7.650 -0.0376  0.3977 -0.3892
  165SAPE   H7X18620   5.066   2.384   7.700  0.4821 -1.7926  0.5099
  165SAPE   H7Y18621   4.949   2.255   7.710 -1.1514  1.1415  0.2875
  165SAPE   C3818622   4.868   2.448   7.678  0.0732 -0.1391  0.0260
  165SAPE   H8X18623   4.765   2.442   7.636  0.0593  2.9395 -0.6120
  165SAPE   H8Y18624   4.917   2.544   7.652 -0.1453 -0.9464 -4.1071
  165SAPE   C3918625   4.845   2.461   7.828  0.3248  0.1726  0.2792
  165SAPE   H9X18626   4.933   2.489   7.890  0.4479 -1.0070  0.6721
  165SAPE   H9Y18627   4.824   2.361   7.873  4.2939 -0.2190  1.7417
  165SAPE  C31018628   4.738   2.569   7.862 -0.3085  0.5094  0.0480
  165SAPE  H10X18629   4.638   2.576   7.813 -0.5304  0.9648  0.5554
  165SAPE  H10Y18630   4.792   2.665   7.844  0.9128  0.0525  1.2042
  165SAPE  C31118631   4.692   2.557   8.005  0.2079 -0.5238 -0.2945
  165SAPE  H11X18632   4.619   2.474   8.014 -0.7713  0.1796 -1.4148
  165SAPE  H11Y18633   4.629   2.648   8.021  2.1647  1.1485 -1.5786
  165SAPE  C31218634   4.804   2.552   8.110  0.1130  0.2534 -0.4005
  165SAPE  H12X18635   4.875   2.634   8.084  0.4763  0.9384  2.4176
  165SAPE  H12Y18636   4.841   2.448   8.102 -0.8274 -0.1147 -0.1129
  165SAPE  C31318637   4.759   2.589   8.249  0.0811  0.7036  0.2735
  165SAPE  H13X18638   4.682   2.517   8.285 -0.2573  0.4023 -0.9932
  165SAPE  H13Y18639   4.714   2.690   8.255 -0.7415  0.3474  0.3224
  165SAPE  C31418640   4.882   2.587   8.351 -0.4067  0.3976 -0.0532
  165SAPE  H14X18641   4.980   2.620   8.310  0.3346 -0.6817  0.7966
  165SAPE  H14Y18642   4.908   2.480   8.366  0.4901  0.5861 -0.2001
  165SAPE  C31518643   4.861   2.664   8.486 -0.2410  0.5193 -0.4145
  165SAPE  H15X18644   4.926   2.617   8.562  2.4342  0.1541 -2.7564
  165SAPE  H15Y18645   4.753   2.647   8.504 -0.1026 -2.5225 -1.7174
  165SAPE  C31618646   4.909   2.809   8.477  0.0671 -0.1800  0.6877
  165SAPE  H16X18647   4.857   2.878   8.408  2.9561  2.1974  0.7171
  165SAPE  H16Y18648   5.009   2.802   8.430  0.2197  1.6410  0.6907
  165SAPE  C31718649   4.931   2.867   8.617 -0.1364 -0.1485  0.4071
  165SAPE  H17X18650   4.990   2.961   8.612  0.4985 -0.6252 -2.4777
  165SAPE  H17Y18651   4.996   2.792   8.668 -0.1691 -0.2051  0.3651
  165SAPE  C31818652   4.798   2.884   8.689  0.3373 -0.2677  0.1099
  165SAPE  H18X18653   4.727   2.804   8.662  1.5190 -0.3561 -3.1684
  165SAPE  H18Y18654   4.746   2.980   8.667  3.5381  1.8458  1.0968
  165SAPE  H18Z18655   4.813   2.881   8.800 -0.4252 -0.0728  0.2246
  166SAPE     N18656   3.849   5.416   6.480  0.6838 -0.1541 -0.8844
  166SAPE   HN118657   3.887   5.351   6.552 -1.4241 -0.0892  0.3469
  166SAPE   HN218658   3.825   5.505   6.528 -1.7253 -0.7144 -0.9577
  166SAPE   HN318659   3.761   5.370   6.452  0.7289 -0.6961 -0.1737
  166SAPE   C1218660   3.947   5.432   6.372  0.1748  0.0719 -0.4013
  166SAPE  H12A18661   3.886   5.468   6.286 -0.6448 -0.1076  0.0956
  166SAPE  H12B18662   3.983   5.333   6.338 -2.8039 -0.9099 -0.9646
  166SAPE   C1118663   4.052   5.537   6.426  0.0520  0.9000  0.0852
  166SAPE  H11A18664   4.141   5.548   6.360  0.0426 -0.6193 -0.2192
  166SAPE  H11B18665   4.088   5.497   6.524 -0.6084 -4.1027 -1.4401
  166SAPE     P18666   3.969   5.761   6.331 -0.1693 -0.2747 -0.4061
  166SAPE   O1318667   4.083   5.852   6.323  0.6132 -0.5964 -0.5448
  166SAPE   O1418668   3.948   5.679   6.210 -0.9368 -0.2748  0.3312
  166SAPE   O1218669   3.996   5.664   6.456  0.5055 -0.2366 -0.6902
  166SAPE   O1118670   3.842   5.845   6.352 -0.0972  0.3644  0.4192
  166SAPE    C118671   3.735   5.797   6.436  0.5927  0.8168  0.2080
  166SAPE    HA18672   3.643   5.847   6.400  2.0440  3.0392 -0.6162
  166SAPE    HB18673   3.721   5.689   6.416 -2.7667  1.3368 -0.9277
  166SAPE    C218674   3.758   5.842   6.585 -0.0203  1.0631  0.0572
  166SAPE    HS18675   3.856   5.810   6.626 -1.1876 -1.4667  1.1163
  166SAPE   O2118676   3.644   5.798   6.672 -0.6251  0.2580  0.1521
  166SAPE   C2118677   3.637   5.673   6.689 -0.6970  0.2627 -0.0331
  166SAPE   O2218678   3.724   5.588   6.657  0.4199 -0.5446  0.0496
  166SAPE   C2218679   3.512   5.642   6.777  0.4608  0.5057 -0.5682
  166SAPE   H2R18680   3.433   5.716   6.754  1.9922  2.8474  1.2392
  166SAPE   H2S18681   3.485   5.540   6.740  0.5987  0.2607 -0.0085
  166SAPE    C318682   3.754   5.993   6.593 -1.0157  0.0108 -0.8154
  166SAPE    HX18683   3.648   6.024   6.587 -0.7381  2.4953  3.3463
  166SAPE    HY18684   3.826   6.041   6.523  0.3508  1.1709  1.2960
  166SAPE   O3118685   3.793   6.029   6.728 -0.2481  0.2335  0.3256
  166SAPE   C3118686   3.922   6.049   6.757  0.0185  1.3581 -0.8851
  166SAPE   O3218687   4.012   6.041   6.673  0.4019  0.0168 -0.3253
  166SAPE   C3218688   3.937   6.087   6.907 -0.1961 -0.1627  0.0614
  166SAPE   H2X18689   3.927   6.197   6.908  2.9743  0.4767 -5.0062
  166SAPE   H2Y18690   4.042   6.063   6.934 -0.3766 -0.2301  0.7330
  166SAPE   C2318691   3.535   5.643   6.927  0.2827  0.8018 -0.4705
  166SAPE   H3R18692   3.538   5.752   6.951 -0.4833  0.4502  1.3613
  166SAPE   H3S18693   3.627   5.590   6.959 -2.5244 -3.3824  1.5954
  166SAPE   C2418694   3.421   5.578   7.015  0.2880 -0.6897 -0.2398
  166SAPE   H4R18695   3.333   5.645   7.008 -0.6682 -2.0362 -1.9302
  166SAPE   H4S18696   3.437   5.581   7.125 -1.1190  2.4599 -0.0213
  166SAPE   C2518697   3.376   5.444   6.979  0.5154  0.5564  0.1937
  166SAPE   H5R18698   3.392   5.405   6.877 -2.3486  0.7110 -0.3901
  166SAPE   C2618699   3.316   5.360   7.063 -0.2875  0.1404 -0.4713
  166SAPE   H6R18700   3.302   5.258   7.026 -0.5100 -0.1004  0.2534
  166SAPE   C2718701   3.279   5.392   7.206 -0.0251  0.5953  0.0514
  166SAPE   H7R18702   3.224   5.488   7.214 -2.0022 -0.4360 -0.4239
  166SAPE   H7S18703   3.372   5.390   7.266 -0.2917  2.1118  0.5710
  166SAPE   C2818704   3.183   5.290   7.265 -0.0802  0.0248  0.1061
  166SAPE   H8R18705   3.150   5.209   7.198 -0.6360 -0.3091  0.7615
  166SAPE   C2918706   3.125   5.274   7.382  1.1043  0.0719 -1.1220
  166SAPE   H9R18707   3.048   5.197   7.396 -1.4604  2.7426  0.6858
  166SAPE  C21018708   3.142   5.366   7.503 -0.6077  0.0733  0.3897
  166SAPE  H10R18709   3.040   5.396   7.538  0.1906  3.9849 -0.1413
  166SAPE  H10S18710   3.201   5.455   7.470 -0.4314  0.2735  1.2225
  166SAPE  C21118711   3.219   5.307   7.622 -0.1111 -0.1744 -0.1197
  166SAPE  H11R18712   3.281   5.221   7.591 -0.0912  0.2144 -1.2056
  166SAPE  C21218713   3.231   5.355   7.745 -0.0259  0.4661 -0.3787
  166SAPE  H12R18714   3.289   5.290   7.812 -1.8954 -0.3778  0.4765
  166SAPE  C21318715   3.162   5.477   7.804 -0.2573 -0.0383 -0.1971
  166SAPE  H13R18716   3.105   5.536   7.730  0.3470  1.6132  0.6121
  166SAPE  H13S18717   3.245   5.538   7.846 -0.7360  1.5991 -1.5040
  166SAPE  C21418718   3.064   5.449   7.912  0.8429 -0.0829 -0.0611
  166SAPE  H14R18719   2.963   5.432   7.871  0.4247  0.3622  0.7617
  166SAPE  C21518720   3.076   5.471   8.039  0.0023  0.0876  0.3962
  166SAPE  H15R18721   2.982   5.462   8.097  0.4401  1.1093  1.3001
  166SAPE  C21618722   3.197   5.525   8.108  0.0304 -0.0521  0.1769
  166SAPE  H16R18723   3.212   5.631   8.077  0.5945  0.3580  1.7598
  166SAPE  H16S18724   3.290   5.482   8.064  1.0303  2.3043 -0.2303
  166SAPE  C21718725   3.206   5.524   8.257  0.8359 -0.1381  0.5198
  166SAPE  H17R18726   3.307   5.558   8.288 -0.3837  1.9137  2.6064
  166SAPE  H17S18727   3.179   5.428   8.305  0.4905 -0.2969  0.0157
  166SAPE  C21818728   3.114   5.634   8.320 -0.3287 -0.1942  0.2694
  166SAPE  H18R18729   3.009   5.624   8.286 -0.1669  0.2310 -0.3863
  166SAPE  H18S18730   3.149   5.726   8.268  0.7109 -0.4065  0.5740
  166SAPE  C21918731   3.125   5.635   8.474  0.2144 -0.2332  0.3502
  166SAPE  H19R18732   3.231   5.665   8.492 -0.1144  1.9445 -0.9437
  166SAPE  H19S18733   3.106   5.538   8.525 -1.1330 -0.7925 -1.1406
  166SAPE  C22018734   3.019   5.733   8.530  0.5225  0.3490  0.5377
  166SAPE  H20R18735   3.015   5.829   8.473 -2.2461 -0.4358 -0.7588
  166SAPE  H20S18736   3.028   5.749   8.639  2.3161 -1.0752  0.6490
  166SAPE  H20T18737   2.918   5.690   8.513  0.0419  1.6701 -0.1021
  166SAPE   C3318738   3.836   6.030   7.000  0.1834  0.1990  0.2884
  166SAPE   H3X18739   3.730   6.033   6.967  0.4598 -0.9031 -0.7882
  166SAPE   H3Y18740   3.835   6.094   7.091  0.4968  1.9092 -0.8705
  166SAPE   C3418741   3.868   5.880   7.036 -0.4724 -0.1586  0.7395
  166SAPE   H4X18742   3.978   5.864   7.026 -0.5619 -0.1888 -0.3012
  166SAPE   H4Y18743   3.809   5.819   6.964 -2.9641  2.1976  0.6213
  166SAPE   C3518744   3.824   5.848   7.182  0.0250  0.2336  0.3762
  166SAPE   H5X18745   3.714   5.865   7.192 -0.3986 -1.6030 -0.7318
  166SAPE   H5Y18746   3.874   5.915   7.256  1.0249  0.3305 -0.3621
  166SAPE   C3618747   3.842   5.701   7.222 -0.0361 -0.2911 -0.3158
  166SAPE   H6X18748   3.949   5.671   7.226  0.1265  0.3773  2.8217
  166SAPE   H6Y18749   3.791   5.643   7.142 -1.0329 -0.2585  0.2801
  166SAPE   C3718750   3.783   5.663   7.355 -0.6241  0.2795 -0.8021
  166SAPE   H7X18751   3.834   5.724   7.432  0.1521 -2.1407  0.7210
  166SAPE   H7Y18752   3.817   5.561   7.385  0.3326  1.0662  0.8718
  166SAPE   C3818753   3.633   5.665   7.363  0.1267 -0.2214 -0.1984
  166SAPE   H8X18754   3.593   5.605   7.278  0.4573 -0.7529  0.0141
  166SAPE   H8Y18755   3.578   5.761   7.352  1.5451  0.5055 -1.2036
  166SAPE   C3918756   3.583   5.585   7.488  0.4290  0.5804  0.9440
  166SAPE   H9X18757   3.606   5.477   7.474  1.3580  0.9945 -0.9460
  166SAPE   H9Y18758   3.473   5.593   7.500  0.0723 -0.3634 -1.2691
  166SAPE  C31018759   3.656   5.625   7.621  0.4743  0.2451  1.0702
  166SAPE  H10X18760   3.621   5.730   7.636 -3.5908 -0.5911 -1.1658
  166SAPE  H10Y18761   3.766   5.619   7.608  0.7698 -1.3892  3.5918
  166SAPE  C31118762   3.609   5.541   7.736  0.2073  0.5615  0.2037
  166SAPE  H11X18763   3.679   5.455   7.727  1.6734  1.7001  0.4182
  166SAPE  H11Y18764   3.507   5.497   7.730  0.8619 -1.2216  1.3901
  166SAPE  C31218765   3.628   5.607   7.876 -0.1698  0.6123  0.3343
  166SAPE  H12X18766   3.559   5.693   7.888  1.4423  1.8466  1.2582
  166SAPE  H12Y18767   3.730   5.650   7.887  0.8569 -2.1799  3.3020
  166SAPE  C31318768   3.608   5.509   7.990  0.2634 -0.6363 -0.2879
  166SAPE  H13X18769   3.697   5.442   7.990  0.5222 -0.2992 -0.0133
  166SAPE  H13Y18770   3.519   5.447   7.969  1.1313 -1.8352 -0.5349
  166SAPE  C31418771   3.611   5.583   8.128 -0.9854  0.1394 -0.1010
  166SAPE  H14X18772   3.530   5.659   8.130 -1.5027 -0.3016 -2.1477
  166SAPE  H14Y18773   3.708   5.637   8.123 -1.1062  0.2553 -2.8493
  166SAPE  C31518774   3.628   5.485   8.245 -0.6298 -0.5431 -0.0988
  166SAPE  H15X18775   3.718   5.423   8.224  1.0324  1.7646 -0.1170
  166SAPE  H15Y18776   3.537   5.424   8.265 -0.8008 -0.2021  0.1733
  166SAPE  C31618777   3.664   5.565   8.373  0.2689  0.7568  0.1917
  166SAPE  H16X18778   3.749   5.635   8.353 -0.2785  0.8493 -2.1081
  166SAPE  H16Y18779   3.672   5.489   8.453  0.4999 -1.5900 -1.9423
  166SAPE  C31718780   3.547   5.642   8.438  0.4153  0.3360 -0.7070
  166SAPE  H17X18781   3.470   5.564   8.455  0.9431 -0.9153 -3.4142
  166SAPE  H17Y18782   3.515   5.713   8.359 -0.0713  0.7012 -0.1887
  166SAPE  C31818783   3.575   5.726   8.563 -0.1857 -0.8828  0.3781
  166SAPE  H18X18784   3.636   5.816   8.538  0.5911 -1.6518 -0.5910
  166SAPE  H18Y18785   3.635   5.676   8.642  1.1903  1.1021  0.6746
  166SAPE  H18Z18786   3.487   5.773   8.611  2.5081  2.0858  2.8743
  167SAPE     N18787   5.289   3.920   6.415 -0.4689  0.0986 -0.6363
  167SAPE   HN118788   5.195   3.887   6.383 -1.9608  1.2625  2.1968
  167SAPE   HN218789   5.344   3.838   6.446  0.1441  0.3611 -1.0148
  167SAPE   HN318790   5.286   3.980   6.500 -1.3887  0.0978 -0.6575
  167SAPE   C1218791   5.354   3.986   6.301  0.9429 -0.2063 -0.2240
  167SAPE  H12A18792   5.285   4.064   6.263 -0.0124 -1.9293 -2.2018
  167SAPE  H12B18793   5.361   3.906   6.225 -0.1741  0.1101 -0.6841
  167SAPE   C1118794   5.488   4.044   6.355  0.1206 -0.0130  0.2401
  167SAPE  H11A18795   5.550   4.082   6.271 -1.3870  1.6741 -0.1913
  167SAPE  H11B18796   5.544   3.962   6.404 -2.1573 -1.3982  0.6864
  167SAPE     P18797   5.517   4.297   6.442  0.1849  0.0953  0.5744
  167SAPE   O1318798   5.667   4.308   6.447  0.4931  0.6029  0.3446
  167SAPE   O1418799   5.454   4.360   6.322  0.4093 -0.5714 -0.2080
  167SAPE   O1218800   5.467   4.142   6.457  0.2646 -0.1246 -0.5191
  167SAPE   O1118801   5.461   4.371   6.566 -0.8100 -0.1460 -0.1739
  167SAPE    C118802   5.338   4.335   6.622  0.4473 -0.4545 -0.2285
  167SAPE    HA18803   5.261   4.315   6.545  1.5033 -1.2960 -1.1101
  167SAPE    HB18804   5.358   4.252   6.693  0.2470  0.5886  1.0887
  167SAPE    C218805   5.285   4.450   6.717 -0.0372  0.3729 -0.0096
  167SAPE    HS18806   5.281   4.546   6.662  1.5484  1.1216  1.0820
  167SAPE   O2118807   5.366   4.460   6.834  0.2070  0.6760 -0.3348
  167SAPE   C2118808   5.361   4.573   6.901  0.1469  0.5113  0.3095
  167SAPE   O2218809   5.294   4.670   6.866  0.0747 -0.3795  0.4914
  167SAPE   C2218810   5.450   4.559   7.021 -0.0735  0.2987  0.2885
  167SAPE   H2R18811   5.485   4.454   7.031  0.9691  0.4837 -1.1166
  167SAPE   H2S18812   5.537   4.623   6.994 -1.0422  1.4454 -0.1662
  167SAPE    C318813   5.132   4.418   6.758 -0.3009 -0.9018  0.2855
  167SAPE    HX18814   5.063   4.417   6.670 -0.8640  0.1198  0.6942
  167SAPE    HY18815   5.098   4.506   6.817 -0.2845 -0.5589 -0.2108
  167SAPE   O3118816   5.114   4.295   6.839 -0.2199  0.4018 -0.6348
  167SAPE   C3118817   5.009   4.300   6.921  0.0145  0.2077 -0.1553
  167SAPE   O3218818   4.921   4.384   6.928  0.6672  0.0156  0.6506
  167SAPE   C3218819   5.008   4.180   7.016 -0.7605  0.1507 -0.3940
  167SAPE   H2X18820   5.112   4.178   7.057 -0.0614 -1.7723 -2.0668
  167SAPE   H2Y18821   4.995   4.089   6.953  0.7052 -1.9531  2.1359
  167SAPE   C2318822   5.382   4.613   7.145  0.4851 -0.5548  0.4878
  167SAPE   H3R18823   5.332   4.711   7.126  0.6548 -0.6120 -0.2606
  167SAPE   H3S18824   5.451   4.637   7.229  0.6082 -0.4645  0.3610
  167SAPE   C2418825   5.279   4.513   7.206  0.6483  0.5775 -1.1167
  167SAPE   H4R18826   5.208   4.482   7.127 -0.7378  0.4735  0.1253
  167SAPE   H4S18827   5.214   4.573   7.274  1.4289  1.3315 -1.0099
  167SAPE   C2518828   5.339   4.383   7.260 -0.1412 -0.2639 -0.1082
  167SAPE   H5R18829   5.404   4.331   7.189  1.7246 -1.4427  2.3005
  167SAPE   C2618830   5.314   4.345   7.384  0.1338  0.2022  0.3024
  167SAPE   H6R18831   5.370   4.260   7.425  0.2369 -0.0738 -0.3924
  167SAPE   C2718832   5.231   4.423   7.485 -0.0713  0.4923  0.5252
  167SAPE   H7R18833   5.136   4.452   7.436  1.6020  0.6356 -2.9090
  167SAPE   H7S18834   5.285   4.519   7.494  0.0277  0.9058 -3.1626
  167SAPE   C2818835   5.211   4.345   7.616 -0.9126  0.1874 -0.1386
  167SAPE   H8R18836   5.115   4.292   7.618  0.9457 -3.5542 -0.4103
  167SAPE   C2918837   5.294   4.347   7.721 -0.3724 -0.3695 -0.0544
  167SAPE   H9R18838   5.282   4.288   7.813  1.4412  1.6284  1.5696
  167SAPE  C21018839   5.428   4.416   7.744  0.1195 -0.7185  0.2896
  167SAPE  H10R18840   5.453   4.424   7.852  0.0480  0.5044  0.2303
  167SAPE  H10S18841   5.422   4.527   7.731 -0.1369 -0.3732  2.7638
  167SAPE  C21118842   5.544   4.374   7.651 -0.1956  0.7361  0.2867
  167SAPE  H11R18843   5.541   4.418   7.551 -3.0060 -0.1063 -0.0876
  167SAPE  C21218844   5.651   4.300   7.682  0.2334 -0.2035 -0.7464
  167SAPE  H12R18845   5.717   4.267   7.601 -0.8089  1.5227 -2.3902
  167SAPE  C21318846   5.674   4.242   7.819  0.7656 -0.4163  0.2123
  167SAPE  H13R18847   5.657   4.133   7.832  1.3293 -0.4822  0.4652
  167SAPE  H13S18848   5.608   4.294   7.892  0.5690 -2.9167  1.9706
  167SAPE  C21418849   5.817   4.282   7.853  0.2699 -0.0582  0.0085
  167SAPE  H14R18850   5.847   4.383   7.823 -0.3795  1.1471  3.0789
  167SAPE  C21518851   5.888   4.198   7.928 -0.4947  0.2465 -0.8886
  167SAPE  H15R18852   5.980   4.242   7.968 -2.0074  1.1163  1.9585
  167SAPE  C21618853   5.848   4.081   8.004  0.3674 -0.0255 -0.5842
  167SAPE  H16R18854   5.841   3.986   7.947  0.0556 -1.2680  1.4063
  167SAPE  H16S18855   5.743   4.101   8.035  1.3655  0.1927  3.1607
  167SAPE  C21718856   5.928   4.039   8.129 -0.3439 -0.1296  0.3865
  167SAPE  H17R18857   6.028   4.003   8.097  0.1763  1.7059 -0.2049
  167SAPE  H17S18858   5.880   3.958   8.188 -0.2976  2.3946  4.3118
  167SAPE  C21818859   5.948   4.154   8.231 -0.0639 -0.0887 -0.0639
  167SAPE  H18R18860   5.844   4.188   8.252 -0.5603  0.8285 -3.3866
  167SAPE  H18S18861   6.000   4.237   8.178 -0.2930  1.6115  2.2113
  167SAPE  C21918862   6.033   4.110   8.344 -0.0588 -0.0906  0.5001
  167SAPE  H19R18863   6.124   4.055   8.312 -0.8184 -0.4722 -1.1194
  167SAPE  H19S18864   5.985   4.029   8.403  0.7313  1.1784  3.0210
  167SAPE  C22018865   6.067   4.218   8.451  0.2317  0.1680 -0.6049
  167SAPE  H20R18866   6.108   4.164   8.539  0.4207 -1.8771 -1.8614
  167SAPE  H20S18867   5.978   4.278   8.481  0.5114  0.5388 -0.5102
  167SAPE  H20T18868   6.144   4.290   8.417  2.8669 -1.2241  1.9132
  167SAPE   C3318869   4.892   4.175   7.119  0.1028 -0.0102  0.2896
  167SAPE   H3X18870   4.879   4.064   7.121  0.8229 -0.1383 -1.0152
  167SAPE   H3Y18871   4.792   4.208   7.083  0.1337  0.7399  0.8818
  167SAPE   C3418872   4.914   4.227   7.262  0.5729 -0.3718  0.2092
  167SAPE   H4X18873   4.938   4.333   7.238  1.5035 -0.5389  0.3743
  167SAPE   H4Y18874   5.011   4.199   7.308  0.4566 -2.0289 -0.4814
  167SAPE   C3518875   4.800   4.224   7.366 -0.7336  0.3300  0.4573
  167SAPE   H5X18876   4.770   4.120   7.391  2.4387 -1.2964 -1.6905
  167SAPE   H5Y18877   4.710   4.266   7.317 -1.5101 -2.7546 -1.0654
  167SAPE   C3618878   4.826   4.302   7.491  0.0002  0.5752  0.3849
  167SAPE   H6X18879   4.751   4.384   7.489  1.8944  2.4393  1.1097
  167SAPE   H6Y18880   4.927   4.348   7.489  1.7954 -3.0124  0.4660
  167SAPE   C3718881   4.819   4.207   7.610  0.2249 -0.1883  0.0478
  167SAPE   H7X18882   4.896   4.128   7.594  1.1324  0.9248 -1.2780
  167SAPE   H7Y18883   4.713   4.175   7.617 -0.1552  0.9274 -0.4014
  167SAPE   C3818884   4.852   4.288   7.732 -0.0370  1.0862  0.9268
  167SAPE   H8X18885   4.770   4.363   7.740  2.3723  4.0419  0.0565
  167SAPE   H8Y18886   4.946   4.347   7.721 -1.0189  2.3628 -1.3154
  167SAPE   C3918887   4.866   4.191   7.852  1.1196 -1.7246  0.2113
  167SAPE   H9X18888   4.954   4.124   7.839  1.3862 -1.2014 -0.7446
  167SAPE   H9Y18889   4.784   4.116   7.855 -0.3109 -0.2232  0.1798
  167SAPE  C31018890   4.876   4.253   7.996  0.5855  0.3680  0.0806
  167SAPE  H10X18891   4.805   4.339   7.998 -0.6831 -0.6015 -1.2130
  167SAPE  H10Y18892   4.973   4.306   8.009  0.1436  1.4288 -0.7747
  167SAPE  C31118893   4.842   4.151   8.103  0.4191 -0.3628 -0.3602
  167SAPE  H11X18894   4.748   4.098   8.077 -0.0446  0.0978  0.3467
  167SAPE  H11Y18895   4.821   4.208   8.196 -0.1469 -0.0625 -0.6605
  167SAPE  C31218896   4.953   4.057   8.122 -0.0477 -0.6995 -0.3987
  167SAPE  H12X18897   4.966   4.010   8.022  0.0910  0.5955 -1.0068
  167SAPE  H12Y18898   4.912   3.983   8.195  2.2925  1.6234  3.6476
  167SAPE  C31318899   5.084   4.107   8.188 -0.4363 -0.3221  1.1310
  167SAPE  H13X18900   5.141   4.180   8.128  0.7114 -1.7576  0.3991
  167SAPE  H13Y18901   5.153   4.020   8.185 -2.1660 -1.7442 -0.0912
  167SAPE  C31418902   5.082   4.162   8.331  0.2363  0.2097 -0.6198
  167SAPE  H14X18903   5.042   4.265   8.335  0.7297  0.3717  0.5376
  167SAPE  H14Y18904   5.188   4.171   8.363  0.2423 -0.1844 -0.5247
  167SAPE  C31518905   5.010   4.078   8.438  0.3704 -0.6989 -0.3569
  167SAPE  H15X18906   4.908   4.047   8.406 -0.1006 -0.2251  0.6281
  167SAPE  H15Y18907   4.991   4.135   8.531  1.9895  1.7653 -1.4278
  167SAPE  C31618908   5.084   3.955   8.477  0.3266  0.4373  0.4919
  167SAPE  H16X18909   5.115   3.908   8.381 -1.3741  1.2193 -0.4966
  167SAPE  H16Y18910   5.016   3.878   8.519  3.5951 -2.3026  1.2060
  167SAPE  C31718911   5.195   3.976   8.584 -0.4729  0.0316 -0.2600
  167SAPE  H17X18912   5.158   4.046   8.662  0.6791  0.3688 -0.0005
  167SAPE  H17Y18913   5.284   4.020   8.534 -0.6610 -0.2302 -0.8297
  167SAPE  C31818914   5.235   3.845   8.656  0.3042 -0.1225  0.3938
  167SAPE  H18X18915   5.159   3.800   8.723  0.1300 -0.2300  0.1280
  167SAPE  H18Y18916   5.321   3.865   8.723  0.3705  0.7165  0.0719
  167SAPE  H18Z18917   5.268   3.769   8.582 -2.4990 -1.4366  0.3658
  168SAPE     N18918   5.322   5.319   6.550 -0.1008  0.4889 -0.3235
  168SAPE   HN118919   5.304   5.277   6.644  1.5351 -1.8502 -0.9521
  168SAPE   HN218920   5.319   5.422   6.560 -0.2586  0.5033 -0.5068
  168SAPE   HN318921   5.241   5.294   6.490 -1.6349  3.4495  0.3241
  168SAPE   C1218922   5.449   5.270   6.497 -0.0752 -0.6499 -0.4827
  168SAPE  H12A18923   5.471   5.323   6.402  2.3223 -2.4606 -1.0278
  168SAPE  H12B18924   5.431   5.160   6.485  0.1690 -1.4520  4.5217
  168SAPE   C1118925   5.579   5.295   6.585  0.0021 -0.7181 -0.2030
  168SAPE  H11A18926   5.669   5.267   6.526 -0.3573 -0.6268 -0.8041
  168SAPE  H11B18927   5.586   5.220   6.667 -2.2316  1.2699  1.9532
  168SAPE     P18928   5.692   5.529   6.650  0.0199  0.5157  0.4296
  168SAPE   O1318929   5.807   5.457   6.589 -0.2188  0.1295  0.5004
  168SAPE   O1418930   5.660   5.661   6.589 -0.1278  0.0561  0.1374
  168SAPE   O1218931   5.572   5.426   6.646  0.1018  0.1912 -0.2542
  168SAPE   O1118932   5.712   5.554   6.806 -0.1086  0.1159  0.4334
  168SAPE    C118933   5.623   5.499   6.907  0.1091  0.3075  0.2574
  168SAPE    HA18934   5.605   5.394   6.877 -0.9211  0.0145  1.7912
  168SAPE    HB18935   5.662   5.512   7.010 -1.3529 -0.4521  0.9226
  168SAPE    C218936   5.491   5.577   6.915 -0.0484 -0.1039  0.1246
  168SAPE    HS18937   5.470   5.591   6.807 -1.7063  0.0913  0.4376
  168SAPE   O2118938   5.507   5.707   6.980 -0.2284 -0.0891  0.0653
  168SAPE   C2118939   5.400   5.789   6.985 -1.0702 -0.2286  0.2183
  168SAPE   O2218940   5.298   5.777   6.924  0.2363  0.0006  0.2491
  168SAPE   C2218941   5.437   5.902   7.071  0.1889 -0.0596 -0.4678
  168SAPE   H2R18942   5.541   5.885   7.108  0.4922 -0.7689 -1.5879
  168SAPE   H2S18943   5.462   5.991   7.010  1.9266  1.0426  1.7073
  168SAPE    C318944   5.376   5.487   6.975 -0.1918 -0.0538 -0.5448
  168SAPE    HX18945   5.379   5.389   6.924 -0.9227 -0.0673 -0.5611
  168SAPE    HY18946   5.293   5.556   6.950 -0.7992 -0.3447  0.5829
  168SAPE   O3118947   5.393   5.462   7.122 -0.4089 -0.4009 -0.2560
  168SAPE   C3118948   5.302   5.514   7.203 -0.7391 -0.5774  0.4138
  168SAPE   O3218949   5.197   5.568   7.167  0.0355  0.0179  0.1234
  168SAPE   C3218950   5.343   5.503   7.346  0.0401 -0.8721  0.6213
  168SAPE   H2X18951   5.378   5.603   7.379  0.7803 -0.7362 -0.5027
  168SAPE   H2Y18952   5.425   5.428   7.351  0.4763 -0.6390 -1.6627
  168SAPE   C2318953   5.335   5.932   7.183 -0.3203 -0.4932  0.0152
  168SAPE   H3R18954   5.362   5.856   7.259  0.1742  0.6293  1.0126
  168SAPE   H3S18955   5.230   5.914   7.154 -0.4582  1.8011 -1.2017
  168SAPE   C2418956   5.344   6.065   7.252  0.4075 -0.1839 -0.7211
  168SAPE   H4R18957   5.273   6.059   7.337  2.6022 -0.8889  1.1447
  168SAPE   H4S18958   5.307   6.150   7.191  0.2521 -0.0453 -0.4313
  168SAPE   C2518959   5.482   6.106   7.293  0.1487  0.3123 -0.7904
  168SAPE   H5R18960   5.560   6.081   7.218 -0.8016 -1.0942 -1.3523
  168SAPE   C2618961   5.520   6.140   7.419 -0.7276  0.9398 -0.2339
  168SAPE   H6R18962   5.629   6.151   7.428 -0.8499  0.9634  1.5634
  168SAPE   C2718963   5.435   6.155   7.546  0.3795 -0.3420  0.3183
  168SAPE   H7R18964   5.381   6.060   7.566 -1.5052  0.5686 -0.1856
  168SAPE   H7S18965   5.347   6.221   7.530 -1.1256 -2.3318 -0.1454
  168SAPE   C2818966   5.508   6.200   7.663 -0.2079 -0.3063  0.2091
  168SAPE   H8R18967   5.582   6.280   7.643 -1.2489  0.2272 -1.7770
  168SAPE   C2918968   5.490   6.153   7.788  0.6067  0.4746 -0.5802
  168SAPE   H9R18969   5.544   6.211   7.863 -0.1114  0.1409  0.2067
  168SAPE  C21018970   5.391   6.054   7.838  0.9458 -0.1585  1.0120
  168SAPE  H10R18971   5.368   5.975   7.762  0.8733  2.1108 -1.4833
  168SAPE  H10S18972   5.294   6.108   7.835  1.0370  0.0169  1.2942
  168SAPE  C21118973   5.421   5.995   7.973 -0.1679 -0.5902 -0.2005
  168SAPE  H11R18974   5.493   5.911   7.971  2.2376  1.2918  1.0274
  168SAPE  C21218975   5.379   6.034   8.093  0.1896 -0.1580 -0.1537
  168SAPE  H12R18976   5.403   5.967   8.177  0.2595 -0.0279 -0.0699
  168SAPE  C21318977   5.282   6.155   8.116 -0.3410  0.3617 -0.1737
  168SAPE  H13R18978   5.179   6.119   8.096 -0.0692 -1.1576  0.9407
  168SAPE  H13S18979   5.294   6.246   8.053  1.9409 -0.3762 -0.9299
  168SAPE  C21418980   5.299   6.194   8.261  1.3889  0.1032  0.3117
  168SAPE  H14R18981   5.350   6.289   8.284 -1.9729  1.9761  0.6698
  168SAPE  C21518982   5.237   6.136   8.367  0.2481  0.5551 -0.2595
  168SAPE  H15R18983   5.269   6.172   8.466 -1.2994  0.8021  0.1822
  168SAPE  C21618984   5.143   6.024   8.375  0.6639  0.4491 -0.2586
  168SAPE  H16R18985   5.215   5.943   8.399  0.2940  0.6751  1.7682
  168SAPE  H16S18986   5.101   6.000   8.275 -0.1603 -1.5388  0.5107
  168SAPE  C21718987   5.039   6.018   8.493 -0.6216 -0.6690  0.0516
  168SAPE  H17R18988   4.991   5.917   8.497 -1.0711 -0.4421  0.6657
  168SAPE  H17S18989   4.950   6.082   8.475 -1.1390 -0.7925  1.9151
  168SAPE  C21818990   5.096   6.028   8.638 -0.3410  0.4106  0.1036
  168SAPE  H18R18991   5.090   6.137   8.659  0.0904  0.5318 -0.3764
  168SAPE  H18S18992   5.203   6.000   8.633  0.0861  1.8911  0.4131
  168SAPE  C21918993   5.005   5.945   8.736  0.3770 -0.2725 -0.5092
  168SAPE  H19R18994   5.000   5.836   8.716  2.2444 -0.6387  0.8370
  168SAPE  H19S18995   4.903   5.989   8.732  0.5861  0.3277  0.3965
  168SAPE  C22018996   5.052   5.966   8.878  0.3892 -0.2291  0.6250
  168SAPE  H20R18997   5.072   6.074   8.890 -2.6294  0.5370 -0.3981
  168SAPE  H20S18998   5.134   5.909   8.927 -0.8029 -1.7650  0.9143
  168SAPE  H20T18999   4.969   5.942   8.948 -0.9345  1.1752 -0.3891
  168SAPE   C3319000   5.227   5.470   7.447  1.0884  0.0818 -0.1441
  168SAPE   H3X19001   5.179   5.371   7.433  1.1852 -0.2176  1.4233
  168SAPE   H3Y19002   5.153   5.554   7.443  1.3093  0.2350 -2.1224
  168SAPE   C3419003   5.280   5.468   7.588 -0.3116 -0.1046  0.0891
  168SAPE   H4X19004   5.264   5.567   7.635  1.5141 -0.1561  0.8966
  168SAPE   H4Y19005   5.388   5.442   7.585 -0.4076 -0.5475 -3.2494
  168SAPE   C3519006   5.206   5.377   7.698 -0.4839  0.8370  0.0373
  168SAPE   H5X19007   5.189   5.272   7.666 -0.5930  1.0116 -0.5028
  168SAPE   H5Y19008   5.110   5.415   7.737 -0.9409 -1.3602  1.2068
  168SAPE   C3619009   5.284   5.353   7.818 -0.4428  0.0009 -0.2813
  168SAPE   H6X19010   5.327   5.444   7.866 -1.5321  0.6985 -0.6068
  168SAPE   H6Y19011   5.370   5.288   7.790  0.9417  1.5088  0.2843
  168SAPE   C3719012   5.192   5.299   7.923  0.0894  0.1809 -0.3566
  168SAPE   H7X19013   5.120   5.224   7.884 -1.5685  1.2118  0.6191
  168SAPE   H7Y19014   5.135   5.388   7.956 -1.4045  0.4739 -3.3280
  168SAPE   C3819015   5.266   5.239   8.045  0.2384 -0.7227  0.1842
  168SAPE   H8X19016   5.343   5.309   8.083 -0.0781  0.3640 -1.0668
  168SAPE   H8Y19017   5.311   5.147   8.004  0.0542 -1.6216  1.8918
  168SAPE   C3919018   5.183   5.208   8.168 -0.1042 -0.2791 -0.4224
  168SAPE   H9X19019   5.111   5.128   8.141 -2.1812  0.4721  2.4393
  168SAPE   H9Y19020   5.117   5.293   8.193  0.7961  0.3655 -0.1879
  168SAPE  C31019021   5.267   5.156   8.290  0.8253 -0.2346  0.0613
  168SAPE  H10X19022   5.336   5.241   8.314  1.6174 -0.9121  0.2370
  168SAPE  H10Y19023   5.336   5.077   8.252 -0.3853 -1.9197  1.2230
  168SAPE  C31119024   5.179   5.116   8.409 -0.3610  0.2964  0.5168
  168SAPE  H11X19025   5.106   5.036   8.381  1.2840 -0.6808 -1.2402
  168SAPE  H11Y19026   5.119   5.206   8.434  0.0084  0.4801  0.7523
  168SAPE  C31219027   5.268   5.057   8.526  0.6076 -0.1625 -0.2901
  168SAPE  H12X19028   5.333   5.145   8.549  2.2765 -1.5585  0.5512
  168SAPE  H12Y19029   5.330   4.971   8.495  1.9189  0.6404  0.0106
  168SAPE  C31319030   5.183   5.014   8.648  0.7545 -0.1436 -0.3890
  168SAPE  H13X19031   5.240   4.955   8.724  1.7876  0.0062 -1.0307
  168SAPE  H13Y19032   5.099   4.945   8.627  1.2276 -0.7783 -0.2394
  168SAPE  C31419033   5.123   5.134   8.718 -0.9058 -0.6184 -0.6479
  168SAPE  H14X19034   5.052   5.184   8.649 -0.8584  0.9047  0.3614
  168SAPE  H14Y19035   5.199   5.214   8.731 -0.4956 -1.4208  2.8479
  168SAPE  C31519036   5.062   5.115   8.851  0.2536  0.0163 -0.6514
  168SAPE  H15X19037   5.042   5.210   8.904  2.4737 -1.0838  2.4365
  168SAPE  H15Y19038   5.132   5.048   8.906  2.3191  1.9004 -0.8527
  168SAPE  C31619039   4.921   5.052   8.848  0.4030  0.2941  0.2720
  168SAPE  H16X19040   4.911   4.988   8.758  0.6612  1.2525 -0.4500
  168SAPE  H16Y19041   4.848   5.134   8.842  0.7110  0.6600  1.2233
  168SAPE  C31719042   4.880   4.969   8.974 -0.2892 -0.1258  0.5427
  168SAPE  H17X19043   4.924   4.868   8.961 -0.4892 -0.0266 -1.0980
  168SAPE  H17Y19044   4.769   4.975   8.971 -0.2749 -0.0528  0.0055
  168SAPE  C31819045   4.920   5.035   9.110  0.1436 -0.8110  0.1244
  168SAPE  H18X19046   5.028   5.052   9.128 -0.1084  1.7689 -0.3839
  168SAPE  H18Y19047   4.887   4.969   9.193  2.9510 -1.3531  0.9111
  168SAPE  H18Z19048   4.871   5.135   9.112 -0.5412 -0.9753 -3.1798
  169SAPE     N19049   5.927   2.088   6.564  0.8580 -0.6402  0.0059
  169SAPE   HN119050   5.925   1.991   6.602 -0.6592 -0.1462  1.2979
  169SAPE   HN219051   5.971   2.155   6.631  1.6855  2.3610 -3.2375
  169SAPE   HN319052   5.831   2.121   6.545  1.1521  0.0873 -0.2753
  169SAPE   C1219053   6.015   2.089   6.443  0.3893  0.6952  0.3876
  169SAPE  H12A19054   5.982   2.172   6.378  0.2600  0.4478  0.1398
  169SAPE  H12B19055   5.999   1.989   6.397  0.3442  1.4867 -1.3710
  169SAPE   C1119056   6.161   2.106   6.486  0.2502 -0.4923  0.9646
  169SAPE  H11A19057   6.179   2.210   6.520 -0.3158 -0.2086  0.4072
  169SAPE  H11B19058   6.210   2.082   6.390 -3.0776  1.8901 -1.5818
  169SAPE     P19059   6.302   1.916   6.597  0.2155 -0.0544 -0.0471
  169SAPE   O1319060   6.305   1.829   6.482  0.3148 -0.0562 -0.1832
  169SAPE   O1419061   6.421   2.001   6.621  0.1965 -0.0971 -0.5225
  169SAPE   O1219062   6.188   2.017   6.592  0.8774  0.3025  0.2495
  169SAPE   O1119063   6.263   1.829   6.719 -0.1810 -0.0671 -0.2241
  169SAPE    C119064   6.322   1.879   6.846  0.3639  0.1812  0.2702
  169SAPE    HA19065   6.298   1.803   6.924  3.5264  0.8994  2.1162
  169SAPE    HB19066   6.433   1.876   6.845  0.4262  1.6928  0.3579
  169SAPE    C219067   6.246   2.003   6.898 -0.3091 -0.3092 -0.5578
  169SAPE    HS19068   6.265   2.092   6.834  0.1532  0.1425  0.1934
  169SAPE   O2119069   6.297   2.033   7.037  0.3219  0.6329 -0.1444
  169SAPE   C2119070   6.296   2.158   7.070 -0.3449 -0.5661 -0.0370
  169SAPE   O2219071   6.260   2.246   6.994  0.3295  0.0808 -0.2185
  169SAPE   C2219072   6.352   2.187   7.217  0.1090  0.1165  0.1529
  169SAPE   H2R19073   6.458   2.155   7.225  0.8590  2.8146  2.9161
  169SAPE   H2S19074   6.338   2.293   7.248  1.0703 -0.2876  2.0909
  169SAPE    C319075   6.093   2.000   6.895 -0.1344 -0.1141 -0.2093
  169SAPE    HX19076   6.066   1.988   6.788  0.5294 -1.7301 -0.2309
  169SAPE    HY19077   6.050   2.098   6.924  0.2728  0.3238 -1.0572
  169SAPE   O3119078   6.038   1.896   6.973 -0.0896 -0.3447 -0.3289
  169SAPE   C3119079   6.022   1.923   7.109  0.3823 -0.0075  0.2375
  169SAPE   O3219080   6.010   2.034   7.161  0.2928  0.1850 -0.4493
  169SAPE   C3219081   6.009   1.783   7.179 -0.7098 -0.6302 -0.1534
  169SAPE   H2X19082   5.944   1.728   7.108 -0.7122  1.1491 -1.6137
  169SAPE   H2Y19083   5.946   1.797   7.270  1.1323  0.6186  1.0172
  169SAPE   C2319084   6.281   2.104   7.328  0.7501 -0.4668  0.1623
  169SAPE   H3R19085   6.276   1.997   7.299 -3.4203  0.2174 -2.5683
  169SAPE   H3S19086   6.173   2.130   7.338  0.4771 -1.3977 -0.3412
  169SAPE   C2419087   6.342   2.124   7.473 -0.2689  0.5378  0.0585
  169SAPE   H4R19088   6.349   2.232   7.497  2.0663  0.4949 -0.2053
  169SAPE   H4S19089   6.444   2.084   7.456 -0.6752 -0.2895 -0.5004
  169SAPE   C2519090   6.258   2.045   7.573 -0.6155 -0.2402  0.2195
  169SAPE   H5R19091   6.177   1.990   7.524 -1.9312  2.2917 -0.6423
  169SAPE   C2619092   6.259   2.052   7.701 -0.3182  0.1121 -0.2546
  169SAPE   H6R19093   6.195   1.976   7.746  0.9677 -1.7652 -1.4341
  169SAPE   C2719094   6.356   2.137   7.783  0.6803 -0.3073  0.4344
  169SAPE   H7R19095   6.337   2.246   7.771  1.7130 -0.1800 -0.2576
  169SAPE   H7S19096   6.459   2.136   7.740  0.2123  1.0452 -0.7901
  169SAPE   C2819097   6.365   2.086   7.928  0.0275 -0.5240  0.9599
  169SAPE   H8R19098   6.450   2.018   7.946 -0.1131 -1.2303 -0.8502
  169SAPE   C2919099   6.294   2.120   8.038 -0.2757  0.4657  0.8060
  169SAPE   H9R19100   6.301   2.065   8.133 -2.4178  0.6798  1.1462
  169SAPE  C21019101   6.169   2.215   8.039  0.9099 -0.5125  0.4269
  169SAPE  H10R19102   6.085   2.161   8.087  0.0163 -0.7071 -1.2606
  169SAPE  H10S19103   6.132   2.226   7.934  1.5304  2.7157  0.4560
  169SAPE  C21119104   6.201   2.351   8.092 -0.4622  0.0706 -0.4536
  169SAPE  H11R19105   6.251   2.416   8.018 -0.3331  0.0661 -0.3711
  169SAPE  C21219106   6.185   2.398   8.216  0.4255 -0.2605 -0.0006
  169SAPE  H12R19107   6.218   2.502   8.235 -0.2450 -0.2996  1.5931
  169SAPE  C21319108   6.118   2.329   8.333  0.3397  0.4683  0.5339
  169SAPE  H13R19109   6.098   2.222   8.308 -0.1774  0.4460  1.0303
  169SAPE  H13S19110   6.016   2.372   8.340  0.1134  0.3709 -1.5453
  169SAPE  C21419111   6.198   2.346   8.456 -0.3669 -0.3754  0.6952
  169SAPE  H14R19112   6.286   2.412   8.448 -1.1607  0.5598 -0.8475
  169SAPE  C21519113   6.167   2.292   8.575 -0.1417 -0.1596  0.5763
  169SAPE  H15R19114   6.231   2.316   8.661 -1.9545 -0.7833  2.1735
  169SAPE  C21619115   6.047   2.197   8.589 -0.6945 -0.3628  0.6521
  169SAPE  H16R19116   6.094   2.098   8.608 -1.3511 -1.2974 -2.1140
  169SAPE  H16S19117   5.977   2.177   8.505 -0.6691 -1.9007  0.9803
  169SAPE  C21719118   5.965   2.226   8.713  0.1864  0.6747  1.0293
  169SAPE  H17R19119   6.030   2.240   8.802 -1.4729  2.7961  1.9931
  169SAPE  H17S19120   5.894   2.144   8.738 -0.7558  0.2842 -2.3049
  169SAPE  C21819121   5.882   2.357   8.679 -0.4341  0.1250 -0.0262
  169SAPE  H18R19122   5.840   2.336   8.578  1.7948 -0.0941 -0.9690
  169SAPE  H18S19123   5.953   2.441   8.692 -1.3271  1.0360 -0.8174
  169SAPE  C21919124   5.776   2.373   8.794 -0.2594 -0.0214  0.0113
  169SAPE  H19R19125   5.828   2.367   8.892  3.0715 -2.3161 -1.7073
  169SAPE  H19S19126   5.706   2.286   8.794  0.9585 -1.0339  0.8401
  169SAPE  C22019127   5.697   2.501   8.777  0.1733  0.8860 -0.2055
  169SAPE  H20R19128   5.648   2.486   8.678  0.8428 -1.3790 -0.2456
  169SAPE  H20S19129   5.775   2.580   8.781  1.9043 -0.7701  0.5062
  169SAPE  H20T19130   5.619   2.510   8.856  0.9671 -1.2975  0.9216
  169SAPE   C3319131   6.151   1.736   7.222 -0.4931 -0.3061  0.0694
  169SAPE   H3X19132   6.198   1.820   7.278 -0.0838 -0.3605 -0.1879
  169SAPE   H3Y19133   6.203   1.718   7.125 -0.5857 -1.3763  0.2108
  169SAPE   C3419134   6.137   1.611   7.315 -0.1641  0.2995  1.0351
  169SAPE   H4X19135   6.233   1.557   7.322  0.8960  2.1711  1.6334
  169SAPE   H4Y19136   6.054   1.542   7.288 -0.8869  1.7901 -0.7309
  169SAPE   C3519137   6.102   1.656   7.454  0.5305 -0.8164 -0.5124
  169SAPE   H5X19138   6.007   1.713   7.468  1.5812  0.3337  3.3412
  169SAPE   H5Y19139   6.171   1.725   7.508  0.0302 -1.4597  1.0060
  169SAPE   C3619140   6.085   1.536   7.548 -0.2456 -0.2155  0.4666
  169SAPE   H6X19141   6.186   1.491   7.552  1.3746  2.8588 -1.6662
  169SAPE   H6Y19142   6.010   1.465   7.508  1.8773 -1.4196 -1.6239
  169SAPE   C3719143   6.040   1.568   7.689 -0.5726 -0.8985 -0.4822
  169SAPE   H7X19144   5.935   1.604   7.686 -0.5398 -0.7268  0.2263
  169SAPE   H7Y19145   6.102   1.648   7.734  0.6546 -1.4247 -1.1655
  169SAPE   C3819146   6.036   1.441   7.777  0.5352  0.8527 -0.1724
  169SAPE   H8X19147   6.134   1.391   7.767  0.1096 -0.1944  0.6961
  169SAPE   H8Y19148   5.948   1.374   7.768  0.3778  0.8377  1.2347
  169SAPE   C3919149   6.019   1.478   7.929 -0.7067  0.4393  0.1354
  169SAPE   H9X19150   5.917   1.519   7.948 -0.5172  0.1978  1.8001
  169SAPE   H9Y19151   6.093   1.560   7.943  0.6768 -0.6192 -0.8105
  169SAPE  C31019152   6.052   1.351   8.007  0.2168  0.6378  0.5202
  169SAPE  H10X19153   6.154   1.310   7.992  0.4480  1.1517  0.6296
  169SAPE  H10Y19154   5.985   1.267   7.981  2.4272 -1.4244  1.1124
  169SAPE  C31119155   6.033   1.377   8.158  0.5629  0.5372  0.7844
  169SAPE  H11X19156   5.929   1.417   8.167 -0.9684 -1.6887 -3.8931
  169SAPE  H11Y19157   6.124   1.435   8.184  0.5360  0.6405  0.6475
  169SAPE  C31219158   6.044   1.253   8.248 -0.0219  0.0667  0.3111
  169SAPE  H12X19159   6.142   1.205   8.227 -1.5398 -2.6010 -1.1992
  169SAPE  H12Y19160   5.959   1.190   8.213 -0.5652  0.1336  1.4663
  169SAPE  C31319161   6.044   1.283   8.398 -1.2143  0.2936  0.0384
  169SAPE  H13X19162   6.116   1.364   8.422  1.9410 -2.9348  2.7168
  169SAPE  H13Y19163   6.093   1.202   8.457  0.5377 -0.4808 -2.3219
  169SAPE  C31419164   5.911   1.327   8.457 -0.2312 -0.1679 -0.2925
  169SAPE  H14X19165   5.832   1.262   8.415 -0.7944 -1.0301  1.9890
  169SAPE  H14Y19166   5.894   1.436   8.442  0.2359  0.2453  1.8719
  169SAPE  C31519167   5.919   1.299   8.613  1.1558  0.0997 -0.3257
  169SAPE  H15X19168   6.000   1.367   8.650  1.4112 -0.9931  1.2481
  169SAPE  H15Y19169   5.956   1.196   8.632  1.9242  0.4526  0.1583
  169SAPE  C31619170   5.787   1.334   8.679  0.5571 -0.3220 -0.6230
  169SAPE  H16X19171   5.719   1.248   8.661 -1.0856  0.7053  0.4213
  169SAPE  H16Y19172   5.743   1.419   8.623  0.8786  0.2404 -0.0461
  169SAPE  C31719173   5.784   1.338   8.828  0.0268  0.2381 -1.1917
  169SAPE  H17X19174   5.858   1.416   8.857  0.3160  0.0077 -1.3005
  169SAPE  H17Y19175   5.830   1.244   8.867 -0.1468  0.7054  0.2012
  169SAPE  C31819176   5.646   1.365   8.877 -0.5943  0.3441 -0.0342
  169SAPE  H18X19177   5.602   1.454   8.828  0.1758  1.2893  0.9381
  169SAPE  H18Y19178   5.651   1.400   8.982 -0.8429 -0.7988  0.3706
  169SAPE  H18Z19179   5.585   1.273   8.866 -1.9599  1.1413  0.6905
  170SAPE     N19180   6.249   4.867   6.171  0.0844  0.0159  0.3833
  170SAPE   HN119181   6.216   4.910   6.083  1.3428  0.9568  0.3594
  170SAPE   HN219182   6.188   4.792   6.210  3.0819 -1.5809  2.3817
  170SAPE   HN319183   6.246   4.940   6.245 -0.7973 -2.0166  2.4912
  170SAPE   C1219184   6.386   4.805   6.151 -0.0111  0.3556 -0.2814
  170SAPE  H12A19185   6.456   4.889   6.132  1.1677 -0.6960 -0.7815
  170SAPE  H12B19186   6.374   4.740   6.062 -1.4180  0.3051 -0.0836
  170SAPE   C1119187   6.420   4.714   6.270 -0.4280  0.1536  0.4552
  170SAPE  H11A19188   6.447   4.779   6.356 -1.0554 -0.4897  1.1548
  170SAPE  H11B19189   6.514   4.665   6.238 -0.1038 -0.0988  1.7447
  170SAPE     P19190   6.347   4.499   6.374 -0.1576 -0.0833  0.0794
  170SAPE   O1319191   6.226   4.416   6.392 -0.4930 -0.4513  0.3019
  170SAPE   O1419192   6.465   4.423   6.325  0.0230  0.1201 -1.0550
  170SAPE   O1219193   6.315   4.618   6.286  0.9977  0.0625  0.5407
  170SAPE   O1119194   6.387   4.565   6.517  0.3463 -0.5105 -0.5389
  170SAPE    C119195   6.491   4.514   6.597 -0.9836 -0.1159 -0.1301
  170SAPE    HA19196   6.569   4.473   6.529 -2.5472  0.4500 -2.3912
  170SAPE    HB19197   6.524   4.597   6.663  2.6605  0.3879 -2.3034
  170SAPE    C219198   6.455   4.394   6.698  0.8338 -0.4634 -0.0035
  170SAPE    HS19199   6.408   4.313   6.638  0.1694 -0.8627  1.0451
  170SAPE   O2119200   6.363   4.444   6.803 -0.1585 -0.3603 -0.2154
  170SAPE   C2119201   6.238   4.411   6.782  0.0501  0.6998 -0.3253
  170SAPE   O2219202   6.199   4.331   6.702 -0.2670  0.3713 -0.1105
  170SAPE   C2219203   6.144   4.483   6.886 -0.7972  0.4229  0.3996
  170SAPE   H2R19204   6.074   4.401   6.913  0.0810 -1.5599 -2.7957
  170SAPE   H2S19205   6.207   4.519   6.970 -1.1546  0.6485  0.5763
  170SAPE    C319206   6.587   4.344   6.770 -0.1606 -0.5402 -0.1299
  170SAPE    HX19207   6.646   4.283   6.698  2.0052 -1.3896  2.2592
  170SAPE    HY19208   6.567   4.285   6.862  0.5966  0.2014  0.5183
  170SAPE   O3119209   6.668   4.464   6.792  0.0089  0.1466 -0.0793
  170SAPE   C3119210   6.688   4.502   6.917 -0.4854  0.1977  1.0918
  170SAPE   O3219211   6.626   4.452   7.013 -0.1355  0.4789  0.0025
  170SAPE   C3219212   6.787   4.621   6.926 -0.8130 -0.0406  0.0057
  170SAPE   H2X19213   6.741   4.705   6.868 -2.1704  0.8872  2.2764
  170SAPE   H2Y19214   6.876   4.588   6.869 -0.1860  0.9879  0.3615
  170SAPE   C2319215   6.070   4.612   6.849  0.7878  0.1819  0.0084
  170SAPE   H3R19216   6.014   4.602   6.754  4.6349  0.1781 -2.4431
  170SAPE   H3S19217   6.138   4.698   6.833 -2.4473  2.8854 -0.3775
  170SAPE   C2419218   5.981   4.670   6.963  0.2071 -0.3666 -0.4137
  170SAPE   H4R19219   5.952   4.775   6.940  0.8961  0.5393  2.3914
  170SAPE   H4S19220   6.040   4.680   7.057  2.4958 -1.3481 -1.6625
  170SAPE   C2519221   5.861   4.581   6.976 -0.0433  0.0138 -0.3819
  170SAPE   H5R19222   5.821   4.557   6.876 -0.6736 -1.7930  0.2543
  170SAPE   C2619223   5.795   4.560   7.090  0.4197  0.5451  0.8189
  170SAPE   H6R19224   5.710   4.492   7.084  1.5340 -0.8239 -0.1391
  170SAPE   C2719225   5.831   4.612   7.230 -0.5837 -0.0100  0.1487
  170SAPE   H7R19226   5.882   4.708   7.212  0.1558 -0.2095  1.0606
  170SAPE   H7S19227   5.913   4.559   7.283  0.8211  1.2982 -0.6587
  170SAPE   C2819228   5.700   4.617   7.311 -0.1703  0.1423  0.1848
  170SAPE   H8R19229   5.628   4.540   7.277  1.2824 -0.0105 -2.9124
  170SAPE   C2919230   5.666   4.701   7.408  0.0682  0.1241  1.3294
  170SAPE   H9R19231   5.569   4.695   7.458 -0.8610 -0.4465 -0.4734
  170SAPE  C21019232   5.752   4.812   7.457 -0.3294  0.7632  0.3598
  170SAPE  H10R19233   5.788   4.862   7.364  0.2853 -2.0365 -1.0394
  170SAPE  H10S19234   5.844   4.779   7.511 -1.8321  0.1946  2.6964
  170SAPE  C21119235   5.692   4.903   7.555 -0.3079 -0.0845  0.0779
  170SAPE  H11R19236   5.651   4.995   7.510 -0.9129 -0.5449 -0.3361
  170SAPE  C21219237   5.660   4.870   7.679 -0.2797 -0.4046 -0.1921
  170SAPE  H12R19238   5.588   4.927   7.741 -0.2187 -1.1932  0.6289
  170SAPE  C21319239   5.691   4.740   7.745 -0.0951  0.4870 -0.3559
  170SAPE  H13R19240   5.801   4.730   7.761 -0.5224 -2.0384  1.6352
  170SAPE  H13S19241   5.664   4.656   7.678  0.9440  1.3549 -1.9528
  170SAPE  C21419242   5.620   4.718   7.880 -0.4137 -0.1607 -0.3236
  170SAPE  H14R19243   5.517   4.681   7.870  0.4201 -2.2294 -2.0097
  170SAPE  C21519244   5.676   4.720   8.003 -0.3809 -0.0573  1.3366
  170SAPE  H15R19245   5.613   4.714   8.093 -0.2366  0.8759  1.5121
  170SAPE  C21619246   5.821   4.759   8.021  0.8928 -0.0183  0.2948
  170SAPE  H16R19247   5.833   4.816   8.115 -1.0676  0.7558  0.1314
  170SAPE  H16S19248   5.863   4.817   7.936 -2.5699  1.6670 -0.4611
  170SAPE  C21719249   5.901   4.623   8.015 -0.3674 -0.3393 -0.7078
  170SAPE  H17R19250   6.005   4.645   8.049 -2.1795  3.4923  3.4460
  170SAPE  H17S19251   5.909   4.584   7.912  1.4531  0.2604 -0.8326
  170SAPE  C21819252   5.849   4.507   8.104  0.2067 -0.2420  0.3300
  170SAPE  H18R19253   5.915   4.417   8.112 -2.1393 -2.2016 -0.9349
  170SAPE  H18S19254   5.755   4.467   8.060  0.0317 -0.1333  0.6019
  170SAPE  C21919255   5.815   4.545   8.248 -0.2163  0.7477 -0.1664
  170SAPE  H19R19256   5.768   4.457   8.297  0.3873 -0.1866 -1.2273
  170SAPE  H19S19257   5.748   4.634   8.242  0.4246  1.4171  2.0211
  170SAPE  C22019258   5.924   4.579   8.344 -0.8103 -0.1066  0.1893
  170SAPE  H20R19259   5.967   4.678   8.316 -1.5442  0.1693  0.0387
  170SAPE  H20S19260   6.000   4.497   8.345 -1.6143 -0.9423 -1.8615
  170SAPE  H20T19261   5.885   4.596   8.447 -0.0872 -1.3833  0.7016
  170SAPE   C3319262   6.808   4.664   7.072 -0.5087  0.4474  0.3244
  170SAPE   H3X19263   6.830   4.572   7.130 -0.3077 -0.3652 -0.9975
  170SAPE   H3Y19264   6.715   4.706   7.115  0.6007  2.3214  0.9958
  170SAPE   C3419265   6.929   4.767   7.090 -0.3142 -0.1223 -0.1921
  170SAPE   H4X19266   6.888   4.869   7.078 -1.5157 -0.6737 -1.0185
  170SAPE   H4Y19267   7.009   4.748   7.016  0.9106 -0.0888  1.0840
  170SAPE   C3519268   7.003   4.753   7.224  0.2396 -0.3051 -0.0813
  170SAPE   H5X19269   7.071   4.839   7.239  0.5134 -0.5825  0.2624
  170SAPE   H5Y19270   7.047   4.652   7.224  2.0264  0.4193  1.4717
  170SAPE   C3619271   6.905   4.761   7.345  0.2136  0.7635 -0.3203
  170SAPE   H6X19272   6.829   4.680   7.336 -0.1177  1.0014  0.3217
  170SAPE   H6Y19273   6.847   4.855   7.341  2.2462  2.2811  2.4179
  170SAPE   C3719274   6.977   4.752   7.480 -0.1815 -0.1269 -0.0876
  170SAPE   H7X19275   7.029   4.849   7.496 -0.0507 -0.2423  0.1958
  170SAPE   H7Y19276   7.050   4.669   7.485  2.7548  2.2326 -1.1135
  170SAPE   C3819277   6.873   4.738   7.597  0.6292  0.1331 -0.0272
  170SAPE   H8X19278   6.819   4.643   7.577 -0.5934  0.7209  0.4067
  170SAPE   H8Y19279   6.809   4.828   7.582  0.5139 -0.0867 -0.9240
  170SAPE   C3919280   6.942   4.725   7.727 -0.9220 -0.6846 -0.4038
  170SAPE   H9X19281   7.016   4.805   7.745 -1.6737 -0.2338  0.8581
  170SAPE   H9Y19282   6.990   4.625   7.726  0.2283 -0.1674  0.7004
  170SAPE  C31019283   6.849   4.732   7.849 -0.2540  0.4618  0.4589
  170SAPE  H10X19284   6.790   4.638   7.843  1.3306 -0.5740  0.2497
  170SAPE  H10Y19285   6.776   4.814   7.842  1.1671  1.7199 -0.1993
  170SAPE  C31119286   6.926   4.736   7.977 -0.7164 -0.1563 -0.5403
  170SAPE  H11X19287   7.004   4.815   7.984  0.8690 -1.7106 -0.0848
  170SAPE  H11Y19288   6.976   4.638   7.990 -0.7346 -0.0496  0.3628
  170SAPE  C31219289   6.832   4.757   8.090  0.1353 -0.2862 -0.5531
  170SAPE  H12X19290   6.744   4.693   8.069  0.1025 -0.5240  0.2967
  170SAPE  H12Y19291   6.788   4.859   8.091 -0.9708 -0.7337  1.4726
  170SAPE  C31319292   6.886   4.729   8.228  0.7492 -0.3028 -1.0000
  170SAPE  H13X19293   6.968   4.802   8.239  0.8393 -0.5753  0.2769
  170SAPE  H13Y19294   6.930   4.628   8.239  1.2797 -0.0539 -0.8104
  170SAPE  C31419295   6.790   4.766   8.340  0.0460 -0.0685  0.3809
  170SAPE  H14X19296   6.708   4.692   8.341 -1.2072  1.2848  0.7684
  170SAPE  H14Y19297   6.735   4.861   8.323 -2.2170 -1.4989 -0.6642
  170SAPE  C31519298   6.867   4.776   8.477 -0.6437  0.3180 -0.3007
  170SAPE  H15X19299   6.940   4.859   8.473 -1.5589  1.2143  0.7790
  170SAPE  H15Y19300   6.930   4.686   8.491 -0.0359  0.1531 -3.3709
  170SAPE  C31619301   6.766   4.791   8.590 -0.5028  0.6051  0.0732
  170SAPE  H16X19302   6.825   4.743   8.671  1.3385  0.8500 -1.0640
  170SAPE  H16Y19303   6.678   4.725   8.578 -0.2385  0.2944 -0.1681
  170SAPE  C31719304   6.720   4.937   8.626 -0.9495 -0.4631  0.2886
  170SAPE  H17X19305   6.680   4.985   8.533 -2.3632  0.0877  1.1457
  170SAPE  H17Y19306   6.812   4.993   8.653 -0.8839  0.4621 -1.6687
  170SAPE  C31819307   6.616   4.941   8.732 -0.1336  0.1928 -0.5476
  170SAPE  H18X19308   6.540   4.870   8.694 -0.9842  0.9521 -0.2914
  170SAPE  H18Y19309   6.574   5.044   8.739  2.9522  1.7718 -2.4515
  170SAPE  H18Z19310   6.650   4.905   8.831 -0.2768 -1.4012 -1.0480
  171SAPE     N19311   2.809   5.444   6.683 -0.4133  0.7587 -0.2527
  171SAPE   HN119312   2.892   5.411   6.629 -1.4502  0.7990 -1.9095
  171SAPE   HN219313   2.804   5.547   6.673  0.7769  0.8531 -0.0204
  171SAPE   HN319314   2.826   5.422   6.784 -1.8829  0.7032  0.0070
  171SAPE   C1219315   2.701   5.363   6.615  0.4946  0.6524 -0.4420
  171SAPE  H12A19316   2.699   5.267   6.672  0.4426  1.2384  0.5562
  171SAPE  H12B19317   2.730   5.349   6.508  1.2927  0.1451 -0.1746
  171SAPE   C1119318   2.561   5.422   6.615 -0.0288 -0.1098 -0.8218
  171SAPE  H11A19319   2.514   5.431   6.715  0.6046 -0.1588 -0.5146
  171SAPE  H11B19320   2.495   5.350   6.563  0.6006 -0.1768 -1.5503
  171SAPE     P19321   2.428   5.608   6.488 -0.3942 -0.0170 -0.2374
  171SAPE   O1319322   2.445   5.753   6.460 -0.6209 -0.1108  0.8703
  171SAPE   O1419323   2.369   5.514   6.386  0.3086  0.4695 -0.2259
  171SAPE   O1219324   2.564   5.546   6.546  0.2022 -0.7215  0.3540
  171SAPE   O1119325   2.331   5.602   6.608 -0.1799 -0.3238  1.1648
  171SAPE    C119326   2.355   5.684   6.724  0.2681 -0.0308  0.6572
  171SAPE    HA19327   2.465   5.696   6.736  0.4690 -0.1671 -0.8754
  171SAPE    HB19328   2.312   5.785   6.709  0.1773  0.2258  2.3668
  171SAPE    C219329   2.312   5.628   6.862  0.3409 -0.1134 -0.4297
  171SAPE    HS19330   2.369   5.544   6.906 -1.2943 -2.1160 -1.9233
  171SAPE   O2119331   2.169   5.594   6.853  0.3621  0.0012  0.2219
  171SAPE   C2119332   2.121   5.497   6.933 -0.4857  0.1459 -0.8141
  171SAPE   O2219333   2.190   5.428   7.007 -0.0207 -0.0091 -0.4204
  171SAPE   C2219334   1.974   5.480   6.895 -0.3075  0.3652 -0.4370
  171SAPE   H2R19335   1.931   5.581   6.879  1.9843  1.5074  0.2174
  171SAPE   H2S19336   1.959   5.432   6.796  1.6476 -0.2068 -0.5051
  171SAPE    C319337   2.324   5.748   6.962 -0.5875 -0.1163  0.2070
  171SAPE    HX19338   2.254   5.817   6.910 -2.0802  0.0472  2.2715
  171SAPE    HY19339   2.426   5.791   6.965 -0.5177 -0.1060 -1.6213
  171SAPE   O3119340   2.275   5.710   7.095  1.2207  0.3147  0.0057
  171SAPE   C3119341   2.356   5.628   7.155 -0.2600  0.0051 -0.3922
  171SAPE   O3219342   2.470   5.596   7.124 -0.3100 -0.1629 -0.6797
  171SAPE   C3219343   2.285   5.579   7.281 -0.3039 -0.0417  0.2449
  171SAPE   H2X19344   2.229   5.486   7.258  1.2351 -0.7974 -0.6011
  171SAPE   H2Y19345   2.224   5.663   7.322  0.8501  1.0160 -0.1369
  171SAPE   C2319346   1.894   5.404   7.005 -0.1477  0.1428 -0.0108
  171SAPE   H3R19347   1.941   5.305   7.018 -1.2697 -0.2964  0.9007
  171SAPE   H3S19348   1.796   5.380   6.958  1.0832  0.4397 -2.9348
  171SAPE   C2419349   1.881   5.475   7.140  0.7826 -0.3935 -0.5678
  171SAPE   H4R19350   1.856   5.581   7.117 -0.8522 -0.8638 -1.0918
  171SAPE   H4S19351   1.985   5.474   7.179  0.0364  0.7114  1.5964
  171SAPE   C2519352   1.783   5.433   7.246 -0.9214 -0.1325  0.2536
  171SAPE   H5R19353   1.679   5.455   7.217 -0.7514  1.0622  0.5074
  171SAPE   C2619354   1.815   5.370   7.358  0.6339 -0.4145 -0.1845
  171SAPE   H6R19355   1.743   5.355   7.440  0.5331  1.1315  0.0371
  171SAPE   C2719356   1.961   5.324   7.402  0.3489  0.5220  0.2683
  171SAPE   H7R19357   2.022   5.304   7.311 -1.0130  0.0288 -0.5693
  171SAPE   H7S19358   1.951   5.222   7.446  0.8405  0.3616  0.0167
  171SAPE   C2819359   2.048   5.396   7.497  0.4361  0.3433 -0.1195
  171SAPE   H8R19360   2.126   5.455   7.447  0.7111 -0.9693 -1.3330
  171SAPE   C2919361   2.032   5.400   7.631 -0.5765 -0.1895  0.8021
  171SAPE   H9R19362   2.106   5.446   7.699  2.1589 -1.0999 -1.3503
  171SAPE  C21019363   1.921   5.329   7.701 -0.1611  0.0007  0.5460
  171SAPE  H10R19364   1.938   5.220   7.716 -2.5197 -0.5854 -0.4841
  171SAPE  H10S19365   1.828   5.341   7.642 -0.4767 -1.2778  0.7432
  171SAPE  C21119366   1.890   5.380   7.843  0.0494  0.5000  0.3568
  171SAPE  H11R19367   1.806   5.451   7.848 -1.6218 -1.4625  2.3775
  171SAPE  C21219368   1.959   5.350   7.956 -0.1024  0.5331 -0.0677
  171SAPE  H12R19369   1.921   5.391   8.051 -2.2753 -1.8090  0.1656
  171SAPE  C21319370   2.073   5.257   7.978 -0.8094 -0.1478  0.1508
  171SAPE  H13R19371   2.139   5.298   8.058 -0.6631 -0.3527  0.1367
  171SAPE  H13S19372   2.141   5.258   7.891 -3.3607  2.5918 -2.0178
  171SAPE  C21419373   2.042   5.112   8.011  0.1940  0.7968  0.4391
  171SAPE  H14R19374   2.029   5.038   7.931 -1.9768 -0.4585  1.8375
  171SAPE  C21519375   2.028   5.067   8.139  0.5920 -0.6952  0.1777
  171SAPE  H15R19376   2.006   4.959   8.147  0.7804 -0.7420  0.0749
  171SAPE  C21619377   2.022   5.148   8.268  0.0267  0.1344  0.0478
  171SAPE  H16R19378   1.965   5.097   8.349  0.0543  0.7651  0.4710
  171SAPE  H16S19379   1.970   5.244   8.249 -2.0060 -1.0366 -0.6624
  171SAPE  C21719380   2.158   5.162   8.322 -0.7274 -0.3239 -0.0837
  171SAPE  H17R19381   2.223   5.235   8.269 -2.1885  0.7407 -0.4905
  171SAPE  H17S19382   2.207   5.063   8.319  0.3841  0.2191 -1.9210
  171SAPE  C21819383   2.151   5.209   8.464 -0.6391 -0.7908 -0.4254
  171SAPE  H18R19384   2.129   5.119   8.525  2.0076 -1.3839 -0.2216
  171SAPE  H18S19385   2.067   5.281   8.474  1.8576  2.4715 -1.2565
  171SAPE  C21919386   2.286   5.265   8.518 -0.4564 -0.1642 -0.1755
  171SAPE  H19R19387   2.278   5.274   8.628 -2.5189 -2.1572 -0.0659
  171SAPE  H19S19388   2.307   5.360   8.465 -1.6475  0.1654 -0.0920
  171SAPE  C22019389   2.397   5.168   8.475 -0.4770  0.0392 -0.0613
  171SAPE  H20R19390   2.479   5.190   8.547 -2.9804 -1.0091  3.3762
  171SAPE  H20S19391   2.438   5.194   8.376  0.7095 -1.9854 -0.1580
  171SAPE  H20T19392   2.363   5.062   8.484  0.5311 -0.4465 -1.6738
  171SAPE   C3319393   2.398   5.549   7.386  0.1517 -0.3020 -1.1316
  171SAPE   H3X19394   2.476   5.478   7.349 -0.7416 -1.2406 -1.2529
  171SAPE   H3Y19395   2.350   5.484   7.462 -0.0802  0.3207 -0.7384
  171SAPE   C3419396   2.470   5.667   7.443 -0.3268  0.0818  0.2960
  171SAPE   H4X19397   2.511   5.727   7.358 -0.7734  2.0358  1.4226
  171SAPE   H4Y19398   2.558   5.648   7.509 -0.3947 -1.1720  0.0495
  171SAPE   C3519399   2.374   5.763   7.524 -0.0754 -1.1340 -0.2622
  171SAPE   H5X19400   2.283   5.798   7.472 -0.0409  0.8280  0.8841
  171SAPE   H5Y19401   2.444   5.848   7.541  0.4036 -1.8123  1.3868
  171SAPE   C3619402   2.335   5.698   7.666  0.0499  0.7860 -0.4447
  171SAPE   H6X19403   2.422   5.672   7.730 -0.9083 -0.3320  0.4348
  171SAPE   H6Y19404   2.280   5.603   7.651  1.6242 -0.2451  0.0618
  171SAPE   C3719405   2.240   5.797   7.737 -0.3685  0.3830 -0.1901
  171SAPE   H7X19406   2.149   5.821   7.677 -1.6802  0.1054  1.6052
  171SAPE   H7Y19407   2.288   5.896   7.752  0.3015  0.2742 -1.4370
  171SAPE   C3819408   2.174   5.738   7.859  0.1058  0.3661  0.2982
  171SAPE   H8X19409   2.115   5.645   7.839 -0.9454  1.0311  0.1926
  171SAPE   H8Y19410   2.090   5.808   7.881  2.5025  3.1771  0.9923
  171SAPE   C3919411   2.249   5.735   7.989 -0.2729  0.1980 -0.3138
  171SAPE   H9X19412   2.299   5.832   8.008 -0.0863  0.0834 -0.2179
  171SAPE   H9Y19413   2.339   5.670   7.981 -0.5461 -0.1754 -0.3723
  171SAPE  C31019414   2.167   5.712   8.106  0.7730  0.1627 -0.2910
  171SAPE  H10X19415   2.098   5.628   8.087  2.5795 -1.4338 -0.1323
  171SAPE  H10Y19416   2.109   5.806   8.115  1.8712  0.9637 -1.2509
  171SAPE  C31119417   2.244   5.701   8.243 -0.0337  1.2505 -0.9686
  171SAPE  H11X19418   2.291   5.797   8.273  1.1333 -0.3047  2.7553
  171SAPE  H11Y19419   2.319   5.621   8.225 -2.8887 -2.0985  0.9103
  171SAPE  C31219420   2.167   5.663   8.369  0.4003 -0.4810  0.1815
  171SAPE  H12X19421   2.240   5.656   8.453 -1.0785 -1.7140  1.4384
  171SAPE  H12Y19422   2.142   5.555   8.363 -0.9752 -0.4390  3.1559
  171SAPE  C31319423   2.050   5.755   8.422 -0.8134  0.3029  0.8894
  171SAPE  H13X19424   1.983   5.697   8.489  1.1397 -0.6901  2.0801
  171SAPE  H13Y19425   2.003   5.801   8.333 -0.2325  1.9243  1.3851
  171SAPE  C31419426   2.122   5.872   8.499  0.0687 -0.5267  0.2040
  171SAPE  H14X19427   2.185   5.922   8.423 -0.2245 -0.2517  0.1413
  171SAPE  H14Y19428   2.200   5.825   8.563  1.5721  1.6186  0.0273
  171SAPE  C31519429   2.026   5.963   8.579  0.8643  0.4659 -0.1318
  171SAPE  H15X19430   1.983   5.894   8.654 -0.5718  1.1666 -0.2796
  171SAPE  H15Y19431   1.944   6.005   8.517 -0.5915  0.6556  1.8280
  171SAPE  C31619432   2.106   6.064   8.662  0.3084  0.0104 -0.0992
  171SAPE  H16X19433   2.167   6.126   8.593  1.4703 -1.9160 -0.8675
  171SAPE  H16Y19434   2.181   6.010   8.723 -0.5434 -1.2571 -0.1298
  171SAPE  C31719435   2.008   6.161   8.737 -0.8271 -0.0652 -0.0603
  171SAPE  H17X19436   1.945   6.202   8.655 -0.4817 -1.0407 -0.8310
  171SAPE  H17Y19437   2.078   6.227   8.793 -0.9337  0.0510 -0.0640
  171SAPE  C31819438   1.912   6.096   8.835 -0.5989  0.0230 -0.1935
  171SAPE  H18X19439   1.869   6.173   8.904  1.5262 -1.0518  2.5337
  171SAPE  H18Y19440   1.960   6.022   8.902 -1.6399  1.5597  2.4091
  171SAPE  H18Z19441   1.839   6.038   8.775  1.2514 -2.9627  0.2461
  172SAPE     N19442   0.101   4.686   6.126  0.0128  0.5093 -0.0018
  172SAPE   HN119443   0.085   4.625   6.209 -1.5920  0.5616 -0.2509
  172SAPE   HN219444   0.080   4.784   6.154 -2.7655  0.2558 -0.8686
  172SAPE   HN319445   0.026   4.660   6.058 -0.8859 -0.6045  1.3500
  172SAPE   C1219446   0.238   4.662   6.080 -0.9039  0.6004  0.0539
  172SAPE  H12A19447   0.265   4.749   6.016  0.9204  0.0132 -0.0347
  172SAPE  H12B19448   0.252   4.575   6.013  0.8807  2.0794 -1.6131
  172SAPE   C1119449   0.340   4.663   6.192 -0.5300 -0.4967  0.0436
  172SAPE  H11A19450   0.442   4.640   6.154 -0.8023 -0.7092 -0.5844
  172SAPE  H11B19451   0.319   4.576   6.257  0.1245 -0.4106  0.3815
  172SAPE     P19452   0.448   4.846   6.348 -0.1949 -0.5447 -0.3136
  172SAPE   O1319453   0.571   4.858   6.267 -0.0810 -0.3633  0.5406
  172SAPE   O1419454   0.394   4.969   6.416  0.3570 -0.4553 -0.4761
  172SAPE   O1219455   0.327   4.787   6.266  0.2052  0.2959  0.8065
  172SAPE   O1119456   0.468   4.742   6.461 -0.3783 -0.0728  0.7490
  172SAPE    C119457   0.363   4.693   6.542 -0.9145  0.4835  0.1750
  172SAPE    HA19458   0.274   4.758   6.547 -0.9734  0.3045  2.1550
  172SAPE    HB19459   0.317   4.600   6.502 -0.9147  0.4982  0.1414
  172SAPE    C219460   0.398   4.669   6.693  0.0338  0.0166 -0.5021
  172SAPE    HS19461   0.301   4.661   6.746  1.1340 -1.3295  1.4125
  172SAPE   O2119462   0.486   4.773   6.742  0.1521  0.5260  0.1101
  172SAPE   C2119463   0.415   4.888   6.763 -0.3805  0.0261  0.1490
  172SAPE   O2219464   0.293   4.899   6.763  0.1356  0.6688 -0.1210
  172SAPE   C2219465   0.514   4.992   6.805 -0.4997 -0.0933  0.9335
  172SAPE   H2R19466   0.588   4.958   6.881  2.3281  0.4593 -1.4355
  172SAPE   H2S19467   0.579   5.002   6.716 -0.2355  0.7481  1.2176
  172SAPE    C319468   0.468   4.532   6.701  0.1063 -0.1740 -0.2026
  172SAPE    HX19469   0.575   4.537   6.671  0.1298 -0.8788 -0.2409
  172SAPE    HY19470   0.413   4.469   6.628 -0.5164 -0.3568  0.4233
  172SAPE   O3119471   0.445   4.476   6.835 -0.1005  0.3335  0.2566
  172SAPE   C3119472   0.537   4.489   6.922 -1.0736 -0.7829  0.3488
  172SAPE   O3219473   0.642   4.552   6.899 -0.2301 -0.3061 -0.1568
  172SAPE   C3219474   0.502   4.430   7.055  0.4516 -0.1489 -0.2398
  172SAPE   H2X19475   0.512   4.320   7.069  0.7643 -0.1486 -0.4417
  172SAPE   H2Y19476   0.399   4.463   7.077  1.1599  1.3532  1.0756
  172SAPE   C2319477   0.462   5.133   6.840  0.8545 -0.5880  0.0048
  172SAPE   H3R19478   0.386   5.162   6.765 -0.4151 -1.1719  1.0215
  172SAPE   H3S19479   0.547   5.204   6.834  1.8795 -1.8422 -0.9649
  172SAPE   C2419480   0.396   5.143   6.981  0.2002  0.3846 -0.2962
  172SAPE   H4R19481   0.477   5.137   7.058 -0.9458  1.9063  1.0778
  172SAPE   H4S19482   0.330   5.054   6.993  3.4028 -1.8305  3.8552
  172SAPE   C2519483   0.313   5.264   7.005  0.6499  0.2745  0.3536
  172SAPE   H5R19484   0.298   5.326   6.915  2.4587 -0.3632 -0.4226
  172SAPE   C2619485   0.254   5.303   7.122  0.0143 -0.0457 -0.0272
  172SAPE   H6R19486   0.198   5.397   7.112  0.8790  0.5576  0.6070
  172SAPE   C2719487   0.248   5.237   7.258 -0.1697 -0.2531  0.2180
  172SAPE   H7R19488   0.298   5.298   7.337 -1.8672 -1.2900  2.1827
  172SAPE   H7S19489   0.313   5.147   7.251  0.9060  0.6332 -2.6502
  172SAPE   C2819490   0.110   5.197   7.300  0.1692 -0.0553 -0.3220
  172SAPE   H8R19491   0.049   5.156   7.219 -0.1393  0.5234 -0.3871
  172SAPE   C2919492   0.063   5.194   7.427 -0.3444 -0.5123  0.4974
  172SAPE   H9R19493  -0.038   5.153   7.443 -0.4031 -0.4643  0.2578
  172SAPE  C21019494   0.136   5.238   7.552 -0.1431 -0.7014  0.6164
  172SAPE  H10R19495   0.082   5.301   7.625 -1.1940 -0.4664 -0.3443
  172SAPE  H10S19496   0.218   5.307   7.523 -1.7152  0.2000 -1.9566
  172SAPE  C21119497   0.205   5.121   7.617  0.7969 -0.3793 -0.3288
  172SAPE  H11R19498   0.299   5.089   7.571  1.0950 -0.4902  0.3458
  172SAPE  C21219499   0.183   5.080   7.747 -1.3000  0.4345  0.2706
  172SAPE  H12R19500   0.248   5.004   7.792 -3.0378  0.7706  3.6001
  172SAPE  C21319501   0.068   5.119   7.836  0.2942 -0.1536 -0.2524
  172SAPE  H13R19502   0.034   5.036   7.900  4.2455 -1.0572  0.9518
  172SAPE  H13S19503  -0.013   5.149   7.766  1.6047  0.4855 -1.5589
  172SAPE  C21419504   0.122   5.233   7.919 -0.2482  0.2235  0.5527
  172SAPE  H14R19505   0.156   5.317   7.858 -3.1460  1.2498  0.1657
  172SAPE  C21519506   0.123   5.238   8.058  0.6632 -0.0381  1.0618
  172SAPE  H15R19507   0.148   5.331   8.112  2.8301 -1.5207  2.7486
  172SAPE  C21619508   0.064   5.133   8.153 -0.3420 -0.7346 -0.9238
  172SAPE  H16R19509   0.120   5.039   8.175 -1.2532 -0.6776  2.0166
  172SAPE  H16S19510  -0.035   5.091   8.124 -1.1207  2.2157 -2.9596
  172SAPE  C21719511   0.057   5.190   8.297  0.8268  0.2148 -0.1058
  172SAPE  H17R19512   0.149   5.230   8.347 -0.4334  3.0397  0.1553
  172SAPE  H17S19513   0.021   5.096   8.343 -3.7976  1.4686 -0.6662
  172SAPE  C21819514  -0.040   5.312   8.305 -0.4129 -0.2887  0.2597
  172SAPE  H18R19515  -0.146   5.295   8.274 -0.7314  1.0141  0.5876
  172SAPE  H18S19516  -0.004   5.373   8.220  3.7911  0.1014  2.1004
  172SAPE  C21919517  -0.032   5.388   8.438 -0.0782 -0.0406 -0.4590
  172SAPE  H19R19518  -0.074   5.321   8.516  0.1392  0.6474  0.2673
  172SAPE  H19S19519  -0.104   5.471   8.419 -0.1396 -0.3129 -1.4731
  172SAPE  C22019520   0.104   5.447   8.482 -0.0543 -0.0324 -0.1077
  172SAPE  H20R19521   0.177   5.372   8.519 -1.0461 -1.2067 -0.4661
  172SAPE  H20S19522   0.098   5.530   8.556 -0.3786  1.4295 -1.7380
  172SAPE  H20T19523   0.153   5.500   8.398 -0.3415  1.0643  0.3926
  172SAPE   C3319524   0.583   4.499   7.169 -0.2767  0.4980 -0.4796
  172SAPE   H3X19525   0.548   4.604   7.173 -1.7112  0.0041  0.8047
  172SAPE   H3Y19526   0.694   4.502   7.158 -0.2701  0.4677 -0.4190
  172SAPE   C3419527   0.557   4.451   7.315 -0.1022 -0.0310  0.0553
  172SAPE   H4X19528   0.588   4.346   7.331  0.1650  0.1545  0.7740
  172SAPE   H4Y19529   0.448   4.439   7.329 -0.2330  2.7726  2.2987
  172SAPE   C3519530   0.586   4.550   7.427 -0.1268  0.0901 -0.3707
  172SAPE   H5X19531   0.536   4.649   7.419 -1.1777 -0.4797 -1.1676
  172SAPE   H5Y19532   0.694   4.574   7.426 -0.4128  1.4464  0.2188
  172SAPE   C3619533   0.555   4.494   7.569  0.1746  0.0435 -0.5216
  172SAPE   H6X19534   0.618   4.405   7.588 -0.3928 -0.0006  1.2829
  172SAPE   H6Y19535   0.448   4.465   7.574  0.4262 -0.8788 -0.3576
  172SAPE   C3719536   0.582   4.598   7.679 -0.1115  0.2207 -0.5303
  172SAPE   H7X19537   0.512   4.683   7.669  1.0862  1.0674 -2.2536
  172SAPE   H7Y19538   0.677   4.653   7.661  0.0922  0.5034  1.3053
  172SAPE   C3819539   0.569   4.537   7.819  0.3034 -0.9902 -0.1744
  172SAPE   H8X19540   0.624   4.441   7.819  1.7565 -0.2575  2.3419
  172SAPE   H8Y19541   0.463   4.503   7.828 -0.6084  1.2739 -1.3572
  172SAPE   C3919542   0.617   4.622   7.930 -0.0576  0.2656 -0.4359
  172SAPE   H9X19543   0.564   4.719   7.940  1.4640  1.1079 -0.2596
  172SAPE   H9Y19544   0.723   4.642   7.903  0.1202 -1.5372 -1.1795
  172SAPE  C31019545   0.615   4.553   8.061 -1.0360  0.3283 -0.3592
  172SAPE  H10X19546   0.664   4.454   8.050 -1.0839  0.2871 -0.2108
  172SAPE  H10Y19547   0.512   4.530   8.097 -0.4411 -0.5390  0.8407
  172SAPE  C31119548   0.679   4.629   8.172  0.0763 -0.2305  0.5248
  172SAPE  H11X19549   0.649   4.736   8.179  0.3290 -0.1142 -0.1227
  172SAPE  H11Y19550   0.789   4.631   8.162  0.0372  0.0241  0.1023
  172SAPE  C31219551   0.639   4.572   8.311 -0.1812  0.4517 -0.4856
  172SAPE  H12X19552   0.685   4.471   8.317  1.1824  0.9780 -1.4703
  172SAPE  H12Y19553   0.529   4.557   8.315  0.0266 -1.2451 -0.4131
  172SAPE  C31319554   0.700   4.664   8.427 -0.1627  0.4474  0.1316
  172SAPE  H13X19555   0.651   4.763   8.417  0.2255  0.6526  0.2069
  172SAPE  H13Y19556   0.808   4.688   8.410 -0.1342  0.9015  0.8776
  172SAPE  C31419557   0.686   4.604   8.572  0.9079 -0.4839  0.3262
  172SAPE  H14X19558   0.734   4.504   8.576  0.0215 -1.0060 -1.2564
  172SAPE  H14Y19559   0.578   4.580   8.586  0.2917  2.0498  0.3376
  172SAPE  C31519560   0.721   4.695   8.685  0.0478 -0.0206  0.2489
  172SAPE  H15X19561   0.689   4.799   8.661 -2.6839 -0.6592  0.7615
  172SAPE  H15Y19562   0.830   4.703   8.705 -0.0675 -1.6300  1.8015
  172SAPE  C31619563   0.656   4.653   8.819  0.7224 -0.8124  0.3099
  172SAPE  H16X19564   0.723   4.599   8.889  2.2547 -0.3171 -0.7198
  172SAPE  H16Y19565   0.562   4.598   8.803  1.0786 -0.5928 -3.2764
  172SAPE  C31719566   0.612   4.781   8.893 -0.5078  0.5614  0.9369
  172SAPE  H17X19567   0.694   4.857   8.896 -0.9756  1.1160  0.0696
  172SAPE  H17Y19568   0.594   4.746   8.997  0.0130  1.5826  1.3949
  172SAPE  C31819569   0.486   4.851   8.858  0.1077 -0.0889 -0.2642
  172SAPE  H18X19570   0.404   4.777   8.853  0.9255 -0.9911 -0.7061
  172SAPE  H18Y19571   0.488   4.914   8.766  1.8831 -0.2817 -0.3957
  172SAPE  H18Z19572   0.463   4.926   8.937  1.1754  0.0317 -0.0531
  173SOPE     N19573   1.843   1.382  11.266  0.3396  0.1266  0.3693
  173SOPE   HN119574   1.888   1.397  11.174 -1.8512 -1.7365 -1.1425
  173SOPE   HN219575   1.770   1.455  11.260 -1.1625 -1.4266 -3.0706
  173SOPE   HN319576   1.922   1.393  11.332  0.7044 -0.6321  0.0738
  173SOPE   C1219577   1.782   1.241  11.262 -0.1902  0.0280 -0.0852
  173SOPE  H12A19578   1.844   1.180  11.331 -0.4662 -0.0009  0.1382
  173SOPE  H12B19579   1.803   1.203  11.160  3.0591 -0.4493  0.6549
  173SOPE   C1119580   1.636   1.232  11.309 -0.3061 -0.0240 -0.2386
  173SOPE  H11A19581   1.624   1.252  11.417  1.0303  2.1558 -0.4276
  173SOPE  H11B19582   1.613   1.124  11.296  1.5761 -0.8785  2.6071
  173SOPE     P19583   1.464   1.277  11.108  0.1100  0.7048  0.2104
  173SOPE   O1319584   1.343   1.365  11.093  0.4206  0.0406  0.1163
  173SOPE   O1419585   1.440   1.127  11.112  0.1172  0.3453  0.3196
  173SOPE   O1219586   1.547   1.321  11.240  0.1637 -0.2409 -0.8127
  173SOPE   O1119587   1.580   1.316  11.004  0.5204  0.1189 -0.1926
  173SOPE    C119588   1.609   1.454  10.986  0.5081 -0.6324  0.4761
  173SOPE    HA19589   1.714   1.467  11.018  0.1539  1.5461  0.9470
  173SOPE    HB19590   1.550   1.531  11.040 -1.4461 -0.9497 -1.0910
  173SOPE    C219591   1.591   1.487  10.838 -1.5882 -0.0555  0.6559
  173SOPE    HS19592   1.628   1.591  10.819  0.0783 -0.3332  2.1254
  173SOPE   O2119593   1.452   1.464  10.794 -0.3038 -0.1433  0.0115
  173SOPE   C2119594   1.365   1.552  10.829 -0.1558 -0.5596 -0.1457
  173SOPE   O2219595   1.386   1.657  10.889 -0.1445 -0.1366 -0.0569
  173SOPE   C2219596   1.223   1.506  10.783  0.3497 -0.3784  0.4968
  173SOPE   H2R19597   1.164   1.509  10.877 -0.8972 -0.9548 -0.2454
  173SOPE   H2S19598   1.225   1.398  10.754  0.4130 -0.5472  1.1041
  173SOPE    C319599   1.676   1.389  10.755  0.1451  0.3805  0.3656
  173SOPE    HX19600   1.620   1.293  10.758  1.2006 -0.4312 -2.6430
  173SOPE    HY19601   1.776   1.373  10.801  1.4001 -0.3602 -2.4542
  173SOPE   O3119602   1.696   1.411  10.615 -0.5902 -0.6985 -0.2284
  173SOPE   C3119603   1.805   1.484  10.585  0.4947  0.2987  0.4933
  173SOPE   O3219604   1.883   1.535  10.660 -0.0911 -0.4962 -0.2544
  173SOPE   C3219605   1.823   1.490  10.431  0.1394  0.1881 -0.2980
  173SOPE   H2X19606   1.885   1.581  10.415  0.5308  0.6289  3.0502
  173SOPE   H2Y19607   1.721   1.503  10.388 -0.0922  0.3728  0.2962
  173SOPE   C2319608   1.164   1.601  10.673 -0.0046 -0.1861  0.6569
  173SOPE   H3R19609   1.169   1.705  10.712  3.3316  0.2080 -0.5089
  173SOPE   H3S19610   1.060   1.569  10.652 -0.3465  1.5404 -0.3874
  173SOPE   C2419611   1.247   1.580  10.538 -0.0517  0.1515 -0.1676
  173SOPE   H4R19612   1.353   1.598  10.569 -0.0704  1.0096 -0.5528
  173SOPE   H4S19613   1.222   1.479  10.500 -0.9084 -0.2398  1.3556
  173SOPE   C2519614   1.217   1.675  10.418  0.2369  0.6365 -0.9260
  173SOPE   H5R19615   1.108   1.666  10.398  0.1994  0.1134 -0.5238
  173SOPE   H5S19616   1.234   1.780  10.449  3.3135 -0.0518  0.0620
  173SOPE   C2619617   1.297   1.639  10.291  0.0443 -0.3536 -0.6844
  173SOPE   H6R19618   1.405   1.651  10.314 -0.4861  1.2429  1.2100
  173SOPE   H6S19619   1.282   1.532  10.265  0.3947 -0.5134 -0.2406
  173SOPE   C2719620   1.265   1.738  10.173  0.4270  0.1012 -0.0840
  173SOPE   H7R19621   1.157   1.741  10.148  0.1716  1.0129  1.0364
  173SOPE   H7S19622   1.274   1.847  10.197 -3.0627  0.1703  1.4043
  173SOPE   C2819623   1.345   1.709  10.040  1.3214 -0.4956  0.3157
  173SOPE   H8R19624   1.325   1.602  10.018  0.9495 -0.4923  0.6126
  173SOPE   H8S19625   1.307   1.772   9.957  0.2474 -1.3209  0.1472
  173SOPE   C2919626   1.487   1.738  10.056 -0.3829 -1.0470  0.4197
  173SOPE   H9119627   1.511   1.795  10.147  2.1405  0.7305 -1.2168
  173SOPE  C21019628   1.590   1.703   9.974  0.2637 -0.6376  0.4135
  173SOPE  H10119629   1.692   1.727  10.006  0.5440 -3.5046  2.0128
  173SOPE  C21119630   1.562   1.609   9.851  0.1479  0.0367 -0.2886
  173SOPE  H11R19631   1.486   1.533   9.877 -0.5928  0.8189 -0.1096
  173SOPE  H11S19632   1.649   1.558   9.806 -1.3760 -1.2446 -1.9057
  173SOPE  C21219633   1.506   1.692   9.731  0.2635 -0.4341 -0.2035
  173SOPE  H12R19634   1.413   1.742   9.764  0.0461  0.7058 -2.3326
  173SOPE  H12S19635   1.480   1.623   9.648 -1.7031  1.2002 -1.0357
  173SOPE  C21319636   1.609   1.772   9.645 -0.0562 -0.0585 -0.0840
  173SOPE  H13R19637   1.698   1.710   9.621  0.2947 -0.0728  1.2059
  173SOPE  H13S19638   1.638   1.865   9.699 -1.6370  0.9633 -0.9284
  173SOPE  C21419639   1.536   1.810   9.513 -0.1397 -0.2611 -1.0449
  173SOPE  H14R19640   1.438   1.857   9.535  1.7119  3.8010 -0.5619
  173SOPE  H14S19641   1.531   1.714   9.456 -2.0398 -1.2776  0.7041
  173SOPE  C21519642   1.617   1.911   9.443  0.1360 -0.6251  0.5007
  173SOPE  H15R19643   1.713   1.869   9.406  0.9176  0.3889  1.2995
  173SOPE  H15S19644   1.639   1.998   9.509 -2.2520  0.6945 -0.3125
  173SOPE  C21619645   1.542   1.948   9.314  0.1552 -0.1609 -0.4518
  173SOPE  H16R19646   1.451   2.007   9.336  0.8178  0.2036  1.5855
  173SOPE  H16S19647   1.515   1.859   9.254  0.3759 -1.6127  1.4959
  173SOPE  C21719648   1.612   2.045   9.220  0.3182 -0.2369 -0.8008
  173SOPE  H17R19649   1.563   2.082   9.128  1.3502  2.1680 -0.4544
  173SOPE  H17S19650   1.712   2.006   9.189 -0.1735 -0.3679 -2.3299
  173SOPE  C21819651   1.649   2.182   9.289 -0.2137 -0.1185 -0.1013
  173SOPE  H18R19652   1.567   2.250   9.323  0.7093 -0.5524  3.2717
  173SOPE  H18S19653   1.714   2.235   9.216  0.0892 -0.9135 -0.4103
  173SOPE  H18T19654   1.714   2.170   9.378 -1.6632  0.8475  1.1587
  173SOPE   C3319655   1.897   1.359  10.386  0.8144  0.8155 -0.0701
  173SOPE   H3X19656   1.839   1.275  10.428  0.8451  1.6115  1.6270
  173SOPE   H3Y19657   2.000   1.350  10.427 -0.2949 -0.0062  2.7163
  173SOPE   C3419658   1.895   1.338  10.235  0.8052  0.0880 -0.6270
  173SOPE   H4X19659   1.788   1.325  10.208 -0.4861  1.8731  2.9919
  173SOPE   H4Y19660   1.947   1.242  10.218  0.8406  0.0171 -0.1360
  173SOPE   C3519661   1.955   1.450  10.150 -0.2091 -0.3989 -0.0304
  173SOPE   H5X19662   2.057   1.479  10.181 -0.5178 -1.4866  2.2219
  173SOPE   H5Y19663   1.888   1.538  10.160 -1.0003 -1.0781  0.8261
  173SOPE   C3619664   1.957   1.398   9.999 -0.0838 -0.3024  0.1911
  173SOPE   H6X19665   1.852   1.387   9.966  0.3053  1.0077 -1.6060
  173SOPE   H6Y19666   2.003   1.298   9.985 -1.1663 -0.6540 -0.9860
  173SOPE   C3719667   2.016   1.496   9.894 -0.1870  0.1344  0.1748
  173SOPE   H7X19668   2.117   1.527   9.928 -0.0009  0.1547 -0.3963
  173SOPE   H7Y19669   1.952   1.587   9.894  0.3252  0.5923 -2.6882
  173SOPE   C3819670   2.012   1.435   9.750  0.1225  0.0615 -0.0508
  173SOPE   H8X19671   1.909   1.402   9.727  0.7137 -2.2113  0.2999
  173SOPE   H8Y19672   2.060   1.335   9.758  0.4715 -0.1860 -3.6536
  173SOPE   C3919673   2.077   1.521   9.643  0.5764  0.1177  0.3367
  173SOPE   H9X19674   2.180   1.549   9.672  1.1136 -1.2696 -0.1529
  173SOPE   H9Y19675   2.014   1.611   9.626 -0.8503 -1.0938 -1.1571
  173SOPE  C31019676   2.099   1.454   9.503  0.4804  0.8230  0.4501
  173SOPE  H10X19677   2.160   1.362   9.520 -1.7067 -0.4759  1.8135
  173SOPE  H10Y19678   2.156   1.524   9.438  0.2540  0.6662  0.0796
  173SOPE  C31119679   1.966   1.414   9.428 -0.6943 -0.1351 -0.1357
  173SOPE  H11X19680   1.924   1.514   9.403 -3.1333 -0.2396  2.9109
  173SOPE  H11Y19681   1.901   1.356   9.496 -0.0240  0.5116  1.0932
  173SOPE  C31219682   1.970   1.329   9.297  0.1900 -0.0730 -0.6169
  173SOPE  H12X19683   1.874   1.282   9.267 -0.5096  2.0861 -2.0500
  173SOPE  H12Y19684   2.027   1.239   9.329 -1.5185 -1.3746 -1.1065
  173SOPE  C31319685   2.030   1.391   9.171  0.5603 -0.4117 -0.4421
  173SOPE  H13X19686   2.132   1.414   9.209  1.1197 -0.8122 -1.6589
  173SOPE  H13Y19687   1.968   1.484   9.167  0.8876 -0.1247  0.6332
  173SOPE  C31419688   2.043   1.315   9.046  0.2270  0.4893 -0.2125
  173SOPE  H14X19689   1.943   1.275   9.018  0.5976  0.8876 -2.2897
  173SOPE  H14Y19690   2.118   1.233   9.047 -0.7862 -0.4832  1.2516
  173SOPE  C31519691   2.080   1.413   8.931  0.0860  0.1428  0.1353
  173SOPE  H15X19692   2.184   1.452   8.928  0.0855  0.0927 -0.5468
  173SOPE  H15Y19693   2.015   1.502   8.943 -1.1548 -0.6354 -0.6654
  173SOPE  C31619694   2.047   1.339   8.795  0.3214 -0.3481 -0.1323
  173SOPE  H16X19695   1.941   1.310   8.778  0.9455 -2.6843 -0.3149
  173SOPE  H16Y19696   2.104   1.244   8.800 -0.1525 -0.6248  0.1539
  173SOPE  C31719697   2.091   1.420   8.676  0.6213 -0.8768  0.1302
  173SOPE  H17X19698   2.202   1.410   8.682  0.6432 -0.8764 -0.2489
  173SOPE  H17Y19699   2.065   1.527   8.695  0.8502 -0.8449  0.2712
  173SOPE  C31819700   2.029   1.379   8.545  0.0143 -0.4186  0.0989
  173SOPE  H18X19701   2.047   1.271   8.524  1.0447 -0.2428  0.0160
  173SOPE  H18Y19702   2.073   1.444   8.466  2.0140 -1.4917  0.2477
  173SOPE  H18Z19703   1.919   1.391   8.542  0.0723  0.3868  0.8369
  174SOPE     N19704   1.558   0.849  11.106 -0.3570 -0.1415 -0.0217
  174SOPE   HN119705   1.654   0.888  11.104 -0.4427  0.0326 -0.8037
  174SOPE   HN219706   1.538   0.774  11.036 -3.9564  1.7384 -1.2843
  174SOPE   HN319707   1.512   0.940  11.089  0.5644  0.2523 -0.4211
  174SOPE   C1219708   1.521   0.801  11.242  0.1451  0.1818  0.0982
  174SOPE  H12A19709   1.541   0.879  11.319 -0.2913  0.7793 -0.3836
  174SOPE  H12B19710   1.579   0.709  11.261 -1.7241 -1.0333  0.1545
  174SOPE   C1119711   1.381   0.766  11.254 -0.0070 -0.1390  1.0469
  174SOPE  H11A19712   1.319   0.848  11.211  2.6146  1.3121 -0.1573
  174SOPE  H11B19713   1.354   0.760  11.362  1.8582 -1.3560  1.4934
  174SOPE     P19714   1.227   0.567  11.182  0.2208 -0.0214  0.2045
  174SOPE   O1319715   1.132   0.633  11.089 -0.5960  0.3316  0.4878
  174SOPE   O1419716   1.191   0.555  11.321 -0.0429 -0.0575 -0.4887
  174SOPE   O1219717   1.358   0.649  11.178  0.4424  0.6172  0.1411
  174SOPE   O1119718   1.283   0.424  11.135  0.3440  0.1714 -0.1416
  174SOPE    C119719   1.414   0.372  11.155 -0.5070 -0.1272 -0.3112
  174SOPE    HA19720   1.415   0.261  11.153  2.5243 -0.1977  0.5676
  174SOPE    HB19721   1.437   0.407  11.258 -1.3761  1.2303 -0.5543
  174SOPE    C219722   1.530   0.430  11.061 -0.0440 -0.2411 -0.1135
  174SOPE    HS19723   1.548   0.531  11.104 -0.8552  0.1930 -0.7707
  174SOPE   O2119724   1.483   0.426  10.922 -0.3003 -0.9880 -0.0052
  174SOPE   C2119725   1.527   0.530  10.852  0.0629  0.0749 -0.2325
  174SOPE   O2219726   1.583   0.624  10.902 -0.3243 -0.2097  0.0938
  174SOPE   C2219727   1.510   0.502  10.701  0.2302  0.5031 -0.3111
  174SOPE   H2R19728   1.401   0.515  10.682 -0.0116  1.5285  1.5889
  174SOPE   H2S19729   1.556   0.401  10.688 -0.5285  0.2413 -1.0424
  174SOPE    C319730   1.658   0.350  11.088 -0.0256  0.0671  0.3196
  174SOPE    HX19731   1.631   0.249  11.053  0.2113 -0.0664  0.5158
  174SOPE    HY19732   1.682   0.349  11.197 -3.5021  0.2111  1.2071
  174SOPE   O3119733   1.774   0.386  11.008  0.3536  0.3149  0.6212
  174SOPE   C3119734   1.833   0.497  11.044 -0.3022  0.6377  0.4538
  174SOPE   O3219735   1.803   0.576  11.133 -0.3650  0.2213  0.4887
  174SOPE   C3219736   1.951   0.521  10.952  0.6717  0.7719 -0.1375
  174SOPE   H2X19737   2.007   0.425  10.955 -0.1507  0.2282  4.4617
  174SOPE   H2Y19738   2.004   0.601  11.008 -0.2846 -0.8365  3.3017
  174SOPE   C2319739   1.570   0.609  10.603  0.5599  0.2672  0.1745
  174SOPE   H3R19740   1.680   0.619  10.613  0.2783  2.6865  1.7810
  174SOPE   H3S19741   1.524   0.710  10.610  3.0173  1.4534  0.1942
  174SOPE   C2419742   1.542   0.565  10.457 -0.3912 -0.0360  0.0488
  174SOPE   H4R19743   1.544   0.454  10.449 -1.6533 -0.1201  0.7564
  174SOPE   H4S19744   1.439   0.593  10.426  0.0076  1.2681 -0.1270
  174SOPE   C2519745   1.653   0.615  10.356 -0.2198 -0.2493  0.0919
  174SOPE   H5R19746   1.663   0.724  10.371 -2.7570  0.2733 -1.5173
  174SOPE   H5S19747   1.747   0.565  10.388 -0.4115 -0.1229  0.8944
  174SOPE   C2619748   1.616   0.592  10.211  0.0491 -0.5515 -0.1205
  174SOPE   H6R19749   1.628   0.486  10.179  0.0323 -0.2603 -1.1112
  174SOPE   H6S19750   1.510   0.622  10.197 -0.5729 -2.2246  0.6849
  174SOPE   C2719751   1.707   0.666  10.112  0.3451 -0.2270 -0.0261
  174SOPE   H7R19752   1.696   0.776  10.121 -0.8411 -0.3031 -0.3276
  174SOPE   H7S19753   1.810   0.628  10.130 -0.1177 -0.1403  3.6264
  174SOPE   C2819754   1.662   0.633   9.967  1.0141 -0.5718 -0.4100
  174SOPE   H8R19755   1.756   0.625   9.908  1.4838  1.2710  0.0391
  174SOPE   H8S19756   1.624   0.529   9.964 -0.3604 -0.1291  0.5234
  174SOPE   C2919757   1.554   0.722   9.913  0.2175 -0.0590  0.1204
  174SOPE   H9119758   1.504   0.777   9.994 -1.1624  0.0016 -0.7537
  174SOPE  C21019759   1.515   0.719   9.786  0.1871 -0.5724 -0.2614
  174SOPE  H10119760   1.436   0.794   9.769  1.2214  1.1929  2.2448
  174SOPE  C21119761   1.571   0.633   9.676 -0.1350  0.1513 -0.7736
  174SOPE  H11R19762   1.493   0.613   9.599 -1.2544 -1.2320  0.6552
  174SOPE  H11S19763   1.620   0.540   9.713 -1.0790 -1.1197 -2.5756
  174SOPE  C21219764   1.677   0.700   9.588 -0.0052 -1.2219  0.2486
  174SOPE  H12R19765   1.764   0.736   9.646 -2.1000  3.3772  1.0011
  174SOPE  H12S19766   1.637   0.794   9.544  0.8516 -0.8955  0.1601
  174SOPE  C21319767   1.732   0.596   9.487 -0.1512  0.1465  0.6851
  174SOPE  H13R19768   1.653   0.579   9.410  0.2408 -1.2212  0.5475
  174SOPE  H13S19769   1.720   0.498   9.538 -0.7054 -0.8392 -1.2312
  174SOPE  C21419770   1.864   0.632   9.421  0.3567 -0.0090 -0.1045
  174SOPE  H14R19771   1.934   0.675   9.495 -0.9537  0.6067  0.8171
  174SOPE  H14S19772   1.845   0.705   9.339 -2.1044 -0.5165 -0.0809
  174SOPE  C21519773   1.927   0.513   9.348  0.0166 -0.3308  0.1741
  174SOPE  H15R19774   1.868   0.472   9.264  0.7013 -1.2783  0.1320
  174SOPE  H15S19775   1.951   0.433   9.422  2.2494  0.8200  0.7974
  174SOPE  C21619776   2.059   0.557   9.281  0.1602 -0.6344  0.2095
  174SOPE  H16R19777   2.109   0.629   9.348  0.0216  1.6437 -1.9568
  174SOPE  H16S19778   2.032   0.599   9.182 -1.2062 -2.9037 -0.4694
  174SOPE  C21719779   2.147   0.435   9.254  0.4515 -0.0804 -0.0290
  174SOPE  H17R19780   2.108   0.367   9.175  1.8161 -0.4878 -0.3876
  174SOPE  H17S19781   2.147   0.384   9.353 -0.8839 -1.2414 -0.5771
  174SOPE  C21819782   2.297   0.465   9.223  0.5798  0.5629  0.8016
  174SOPE  H18R19783   2.371   0.387   9.195  3.7999  3.3311  0.8323
  174SOPE  H18S19784   2.344   0.507   9.315 -0.4731 -1.3236  2.2623
  174SOPE  H18T19785   2.306   0.541   9.142  2.9530 -0.5663 -0.0947
  174SOPE   C3319786   1.919   0.567  10.809  0.2476 -0.8854 -0.7893
  174SOPE   H3X19787   1.862   0.662  10.815  0.4575 -0.6466 -2.1849
  174SOPE   H3Y19788   1.844   0.493  10.773  0.7296 -1.9969  0.4283
  174SOPE   C3419789   2.039   0.590  10.725 -0.1844  1.2409 -0.5718
  174SOPE   H4X19790   2.094   0.498  10.697 -1.5021  0.7679 -1.7921
  174SOPE   H4Y19791   2.110   0.661  10.771  1.2812 -1.0819  0.9505
  174SOPE   C3519792   1.998   0.652  10.590  0.3378 -0.4280  0.3998
  174SOPE   H5X19793   1.898   0.698  10.584  1.5225  2.2653 -0.5022
  174SOPE   H5Y19794   2.001   0.572  10.512 -0.1774  1.4627 -1.6797
  174SOPE   C3619795   2.103   0.753  10.535 -1.0430  0.3796 -0.1614
  174SOPE   H6X19796   2.205   0.710  10.545 -1.0574  0.0195 -1.4230
  174SOPE   H6Y19797   2.104   0.841  10.603  0.5541 -0.3185  0.7817
  174SOPE   C3719798   2.084   0.801  10.392 -0.3597  0.1484  0.3578
  174SOPE   H7X19799   2.092   0.720  10.315 -0.8136  1.2090 -0.8431
  174SOPE   H7Y19800   2.163   0.879  10.387  3.0683 -3.0236  0.4512
  174SOPE   C3819801   1.952   0.878  10.360  0.0753  0.1879 -0.0706
  174SOPE   H8X19802   1.939   0.944  10.448 -0.4744  0.5112 -0.3899
  174SOPE   H8Y19803   1.858   0.819  10.364 -0.0353  0.4205  1.1081
  174SOPE   C3919804   1.960   0.970  10.238  0.4397  0.5608 -0.6192
  174SOPE   H9X19805   2.041   1.044  10.257  0.9003 -0.5028  1.9444
  174SOPE   H9Y19806   1.865   1.026  10.223  0.5232 -0.0596 -4.4511
  174SOPE  C31019807   1.994   0.891  10.112 -0.6444  0.0217  0.8607
  174SOPE  H10X19808   1.911   0.820  10.089  0.0094 -0.5273  0.1634
  174SOPE  H10Y19809   2.083   0.828  10.133 -0.1108  0.0836 -1.0471
  174SOPE  C31119810   2.027   0.984   9.986  0.3566  0.1153 -0.5366
  174SOPE  H11X19811   2.107   1.061   9.998 -0.4980  0.8580  0.6217
  174SOPE  H11Y19812   1.933   1.034   9.958 -1.5456 -1.6071  2.2216
  174SOPE  C31219813   2.070   0.904   9.860 -0.1892 -0.2017 -0.2590
  174SOPE  H12X19814   1.993   0.825   9.861  1.1571 -1.5676  1.1648
  174SOPE  H12Y19815   2.171   0.861   9.882 -0.6959 -2.5833 -2.2232
  174SOPE  C31319816   2.073   0.979   9.727  0.3078  0.0822  0.2974
  174SOPE  H13X19817   2.135   1.071   9.728 -0.0663  0.3333  0.7657
  174SOPE  H13Y19818   1.968   1.010   9.707  0.6039  0.4999 -0.6830
  174SOPE  C31419819   2.098   0.887   9.610  1.0169 -0.3965  0.6256
  174SOPE  H14X19820   2.051   0.788   9.630  0.3327 -0.2969 -0.3801
  174SOPE  H14Y19821   2.206   0.871   9.594  1.0350  0.9047 -0.8479
  174SOPE  C31519822   2.051   0.966   9.479  0.1142  0.0019 -0.4005
  174SOPE  H15X19823   2.070   1.073   9.501  0.0882 -0.3285  1.3727
  174SOPE  H15Y19824   1.943   0.945   9.464  0.6082 -1.0661 -3.1150
  174SOPE  C31619825   2.125   0.933   9.350 -0.7914  0.6738 -0.5980
  174SOPE  H16X19826   2.086   0.976   9.255  0.8132 -0.6620 -1.9253
  174SOPE  H16Y19827   2.131   0.823   9.348 -0.1551  0.5873  2.2991
  174SOPE  C31719828   2.271   0.992   9.351  0.1987  0.4077 -0.7898
  174SOPE  H17X19829   2.326   0.945   9.435 -1.8166 -0.2355  0.2425
  174SOPE  H17Y19830   2.264   1.101   9.371 -2.4872  0.1288  0.3093
  174SOPE  C31819831   2.344   0.973   9.216  0.0393 -0.4032 -0.1482
  174SOPE  H18X19832   2.284   1.041   9.151 -0.2553  0.8641  1.3964
  174SOPE  H18Y19833   2.346   0.870   9.176 -0.6697  0.1153 -1.6359
  174SOPE  H18Z19834   2.442   1.025   9.227  0.8552 -2.1567  1.3010
  175SOPE     N19835   4.786   2.746  10.988 -0.2954  0.1749 -0.3449
  175SOPE   HN119836   4.804   2.790  11.080 -1.7247 -0.3629  0.2115
  175SOPE   HN219837   4.687   2.716  10.986 -0.3990  0.1084  2.3235
  175SOPE   HN319838   4.845   2.662  10.970 -1.9728 -1.2261  0.4344
  175SOPE   C1219839   4.797   2.851  10.879  0.2700 -0.0452  0.1795
  175SOPE  H12A19840   4.745   2.801  10.794 -2.7484  0.9971  1.2806
  175SOPE  H12B19841   4.905   2.873  10.866  0.3096  1.7499  2.8796
  175SOPE   C1119842   4.727   2.976  10.920  0.4519 -0.2386 -0.6743
  175SOPE  H11A19843   4.731   3.035  10.826  0.9814 -2.0239 -1.8256
  175SOPE  H11B19844   4.777   3.035  11.000  2.2974 -0.9840 -1.2503
  175SOPE     P19845   4.488   3.051  10.970  0.3454 -0.1336  0.3215
  175SOPE   O1319846   4.552   3.176  11.030  0.3649  0.2904  0.2686
  175SOPE   O1419847   4.359   3.009  11.035 -0.7648 -0.4274 -0.2045
  175SOPE   O1219848   4.598   2.936  10.966  0.2619  1.0404 -0.1892
  175SOPE   O1119849   4.461   3.085  10.822 -0.0281  0.4525  0.5884
  175SOPE    C119850   4.413   2.995  10.728 -0.0000 -0.7092  0.4580
  175SOPE    HA19851   4.311   2.954  10.740 -0.6424  0.7198  0.0669
  175SOPE    HB19852   4.479   2.906  10.716  1.2411  0.3113 -0.5496
  175SOPE    C219853   4.410   3.060  10.580  0.1786 -0.0491 -0.9183
  175SOPE    HS19854   4.356   3.156  10.564  0.2259  0.0403 -0.5433
  175SOPE   O2119855   4.362   2.954  10.494  0.2612  0.7239 -0.7113
  175SOPE   C2119856   4.277   2.985  10.397 -0.7086 -0.3844 -0.4473
  175SOPE   O2219857   4.252   3.103  10.365  0.4517 -0.0147 -0.5744
  175SOPE   C2219858   4.241   2.865  10.313 -0.2001 -0.3421  0.3909
  175SOPE   H2R19859   4.152   2.817  10.357  1.1459 -0.6965  2.9209
  175SOPE   H2S19860   4.316   2.784  10.328  0.4288  0.4358  1.6461
  175SOPE    C319861   4.553   3.099  10.544  0.2977  0.0271 -0.1228
  175SOPE    HX19862   4.609   3.004  10.543  1.1214  0.4285  2.0324
  175SOPE    HY19863   4.597   3.170  10.618  0.2463 -0.5757  0.4920
  175SOPE   O3119864   4.571   3.149  10.414  0.3727 -0.1761  0.0312
  175SOPE   C3119865   4.662   3.242  10.388 -0.0869 -0.3839  0.2979
  175SOPE   O3219866   4.723   3.302  10.475 -0.4251  0.1446  0.6451
  175SOPE   C3219867   4.679   3.266  10.237  0.7249 -0.1708  0.0535
  175SOPE   H2X19868   4.716   3.173  10.190  0.4443  0.9923 -2.6433
  175SOPE   H2Y19869   4.759   3.341  10.226  0.2914 -0.0167 -2.6508
  175SOPE   C2319870   4.226   2.898  10.158 -0.2575  0.3987 -0.5580
  175SOPE   H3R19871   4.184   3.000  10.143  0.2446  0.5985 -0.6014
  175SOPE   H3S19872   4.149   2.830  10.115 -1.8258  2.0144 -0.4403
  175SOPE   C2419873   4.359   2.863  10.085  1.2276  0.2558  0.1173
  175SOPE   H4R19874   4.423   2.952  10.100  1.1269  0.6414 -1.5360
  175SOPE   H4S19875   4.412   2.781  10.138 -1.1472 -1.2154  0.4127
  175SOPE   C2519876   4.347   2.812   9.941 -0.6620  0.9727  0.3083
  175SOPE   H5R19877   4.455   2.801   9.917 -0.9993 -0.5140 -0.6191
  175SOPE   H5S19878   4.306   2.710   9.932 -0.9921  1.1251  0.0603
  175SOPE   C2619879   4.284   2.915   9.842  0.3442 -0.0265 -0.2479
  175SOPE   H6R19880   4.174   2.906   9.832  0.3577  0.4243 -0.8859
  175SOPE   H6S19881   4.287   3.011   9.897  0.3296 -0.8854  1.2992
  175SOPE   C2719882   4.359   2.919   9.709 -0.3610  0.0226 -0.3078
  175SOPE   H7R19883   4.471   2.916   9.708 -0.3754 -0.4192 -0.6653
  175SOPE   H7S19884   4.336   2.821   9.662  1.0470  0.0608 -1.1484
  175SOPE   C2819885   4.319   3.031   9.611 -0.4449  0.0854 -0.6459
  175SOPE   H8R19886   4.208   3.037   9.605 -0.3065  2.1277 -4.8758
  175SOPE   H8S19887   4.357   3.127   9.652  1.9798 -0.5476 -1.2466
  175SOPE   C2919888   4.356   3.012   9.469  0.0718 -0.5293  0.5628
  175SOPE   H9119889   4.376   2.911   9.431 -1.3060 -0.9138  0.8171
  175SOPE  C21019890   4.348   3.116   9.376  0.1156 -0.3380  0.1300
  175SOPE  H10119891   4.383   3.102   9.273 -0.7233 -0.8554 -0.0959
  175SOPE  C21119892   4.307   3.256   9.416 -0.1369  0.8110 -0.4308
  175SOPE  H11R19893   4.377   3.289   9.496 -0.1926 -0.1043  0.0013
  175SOPE  H11S19894   4.203   3.236   9.448  0.1980 -0.1075  0.1127
  175SOPE  C21219895   4.304   3.365   9.306  0.5709 -0.0971 -0.2120
  175SOPE  H12R19896   4.266   3.321   9.211 -0.5335 -0.0151  0.1822
  175SOPE  H12S19897   4.408   3.395   9.280  0.1651  2.8387  1.1326
  175SOPE  C21319898   4.236   3.492   9.346 -0.1008  0.0029 -1.5072
  175SOPE  H13R19899   4.278   3.533   9.441 -0.9999 -0.5529 -0.8553
  175SOPE  H13S19900   4.130   3.471   9.372  0.2070  1.7111  1.7166
  175SOPE  C21419901   4.235   3.597   9.237 -0.4849  0.3276 -0.1076
  175SOPE  H14R19902   4.207   3.551   9.140 -1.2701  0.5543  0.0020
  175SOPE  H14S19903   4.337   3.637   9.226  2.0327 -4.1837  3.1422
  175SOPE  C21519904   4.140   3.711   9.271  0.0458 -0.6403 -0.1381
  175SOPE  H15R19905   4.033   3.685   9.286 -0.6395  1.3269 -1.3156
  175SOPE  H15S19906   4.137   3.779   9.184  1.0693 -0.4831 -0.0634
  175SOPE  C21619907   4.189   3.803   9.388  0.7421 -0.5395  0.0230
  175SOPE  H16R19908   4.286   3.849   9.361  0.4778  0.6507  1.0083
  175SOPE  H16S19909   4.202   3.746   9.482 -1.5752 -1.7797 -0.3307
  175SOPE  C21719910   4.085   3.917   9.405  0.1525 -0.5100 -0.7972
  175SOPE  H17R19911   4.113   3.942   9.510  2.6918 -0.7813 -1.3540
  175SOPE  H17S19912   3.989   3.865   9.384 -0.6247  0.2731  0.6256
  175SOPE  C21819913   4.103   4.035   9.311 -0.2681 -0.0740 -0.1391
  175SOPE  H18R19914   4.025   4.112   9.329  0.4794  1.2583 -2.1678
  175SOPE  H18S19915   4.103   3.994   9.208  0.3301 -2.9893  0.9254
  175SOPE  H18T19916   4.202   4.085   9.323 -0.9036  0.8732  1.4347
  175SOPE   C3319917   4.541   3.305  10.173 -0.3893  0.4959  0.2483
  175SOPE   H3X19918   4.518   3.411  10.197 -1.0842 -0.0166  1.9902
  175SOPE   H3Y19919   4.464   3.239  10.218 -0.4554 -0.6770 -1.4824
  175SOPE   C3419920   4.533   3.262  10.023  0.8877 -0.0618  0.9217
  175SOPE   H4X19921   4.426   3.277   9.999  0.5006 -1.1886  1.8815
  175SOPE   H4Y19922   4.550   3.153  10.019  3.0037  0.2546 -2.1800
  175SOPE   C3519923   4.613   3.338   9.922 -0.7614 -0.2556  0.4551
  175SOPE   H5X19924   4.719   3.355   9.949 -0.7402  0.0225  0.2053
  175SOPE   H5Y19925   4.563   3.436   9.907  1.0880  0.7515  0.6966
  175SOPE   C3619926   4.611   3.246   9.799  0.0973  0.7050 -0.6574
  175SOPE   H6X19927   4.506   3.242   9.762 -0.4883 -1.6323  0.9991
  175SOPE   H6Y19928   4.650   3.145   9.825 -0.3806  0.3042 -1.4599
  175SOPE   C3719929   4.698   3.292   9.686  0.2896  0.3775 -0.3240
  175SOPE   H7X19930   4.802   3.274   9.720 -0.5627 -0.9128  1.7642
  175SOPE   H7Y19931   4.679   3.401   9.678 -0.0791  0.4865  1.6887
  175SOPE   C3819932   4.673   3.226   9.547  0.0129  1.0864  0.6363
  175SOPE   H8X19933   4.564   3.224   9.529 -0.0787  0.9495  1.1921
  175SOPE   H8Y19934   4.695   3.118   9.564 -0.7651  0.7939 -0.2048
  175SOPE   C3919935   4.742   3.275   9.420 -0.3118  0.2752  0.0339
  175SOPE   H9X19936   4.853   3.274   9.429 -0.2616  0.9395 -0.4101
  175SOPE   H9Y19937   4.711   3.381   9.408  0.4944  0.7459  1.7236
  175SOPE  C31019938   4.683   3.207   9.292 -0.0144  0.0625 -0.3301
  175SOPE  H10X19939   4.574   3.223   9.305  0.2734  0.1872  2.9439
  175SOPE  H10Y19940   4.706   3.099   9.302  0.9194  0.1820 -0.9841
  175SOPE  C31119941   4.745   3.263   9.167 -0.5889 -0.0467 -0.0898
  175SOPE  H11X19942   4.855   3.255   9.165 -0.4562  1.6143 -1.3624
  175SOPE  H11Y19943   4.716   3.370   9.155 -1.1247 -0.0718  0.8751
  175SOPE  C31219944   4.684   3.196   9.040  0.1784 -0.2342  0.3053
  175SOPE  H12X19945   4.703   3.087   9.050  3.6051  0.4281  3.2844
  175SOPE  H12Y19946   4.746   3.218   8.950  0.6386  1.0420  0.8987
  175SOPE  C31319947   4.540   3.247   9.015 -0.1051 -0.0684 -0.6426
  175SOPE  H13X19948   4.538   3.358   9.009  0.7244 -0.0485 -0.7551
  175SOPE  H13Y19949   4.470   3.214   9.094 -0.2994  0.4226 -0.6094
  175SOPE  C31419950   4.497   3.191   8.880 -0.1487 -0.1491  0.5982
  175SOPE  H14X19951   4.578   3.141   8.823  0.3752 -2.9118  3.4713
  175SOPE  H14Y19952   4.435   3.264   8.824 -1.1457 -0.9315  0.6580
  175SOPE  C31519953   4.419   3.064   8.873  0.4240  0.3500  0.1464
  175SOPE  H15X19954   4.465   2.994   8.947 -1.0182 -0.9435 -0.1314
  175SOPE  H15Y19955   4.437   3.015   8.775 -0.1769  0.7976 -0.1914
  175SOPE  C31619956   4.267   3.090   8.918 -0.8286  0.3295  0.4838
  175SOPE  H16X19957   4.223   3.163   8.846  1.2428  0.3042 -0.8848
  175SOPE  H16Y19958   4.259   3.139   9.018  2.2331 -1.1009  1.5313
  175SOPE  C31719959   4.187   2.958   8.911 -0.5996  0.4941  0.4405
  175SOPE  H17X19960   4.261   2.891   8.960  1.6955  2.4136 -0.1946
  175SOPE  H17Y19961   4.182   2.929   8.804  3.2978  0.9690 -0.0075
  175SOPE  C31819962   4.058   2.955   8.994  0.0580 -0.1333  0.3138
  175SOPE  H18X19963   4.078   2.970   9.102  0.1533 -1.1257  0.4370
  175SOPE  H18Y19964   4.020   2.854   8.968 -0.2615  0.3063 -1.0402
  175SOPE  H18Z19965   3.990   3.033   8.953  0.0368 -0.1075  0.3985
  176SOPE     N19966   2.844   1.711  11.163  0.0848 -0.7305 -0.3912
  176SOPE   HN119967   2.805   1.620  11.193 -0.9823  0.9032  3.8911
  176SOPE   HN219968   2.948   1.710  11.161  0.1234  0.6520 -0.2927
  176SOPE   HN319969   2.810   1.768  11.243  0.6280  1.7311 -1.7942
  176SOPE   C1219970   2.780   1.760  11.034  0.0904 -0.0162  0.1722
  176SOPE  H12A19971   2.671   1.768  11.052 -0.0194 -3.1385  1.5121
  176SOPE  H12B19972   2.798   1.683  10.956 -2.4790 -0.3564 -0.1855
  176SOPE   C1119973   2.831   1.888  10.996 -0.0038 -0.0396  0.2397
  176SOPE  H11A19974   2.790   1.902  10.894 -1.8663 -1.8726  0.6751
  176SOPE  H11B19975   2.940   1.870  10.989 -0.3131 -1.3513 -2.5168
  176SOPE     P19976   2.882   2.097  11.141 -0.0145 -0.2638 -0.3425
  176SOPE   O1319977   3.002   2.024  11.189  0.3388  0.3086  0.1294
  176SOPE   O1419978   2.807   2.188  11.230  0.1803 -0.3207 -0.5228
  176SOPE   O1219979   2.784   1.983  11.090 -0.9117  0.3887  0.0841
  176SOPE   O1119980   2.921   2.171  11.007  0.4402  0.7310  0.0635
  176SOPE    C119981   2.838   2.260  10.936 -0.0653 -0.5348 -0.4847
  176SOPE    HA19982   2.891   2.357  10.940  0.1252 -0.6692  0.3960
  176SOPE    HB19983   2.751   2.301  10.992 -1.6792 -3.6036 -0.5063
  176SOPE    C219984   2.801   2.232  10.788 -0.4767  0.0979 -0.7542
  176SOPE    HS19985   2.793   2.328  10.732 -0.4224 -0.1813 -1.2375
  176SOPE   O2119986   2.679   2.173  10.788  0.5389  0.1128  0.0647
  176SOPE   C2119987   2.571   2.243  10.830 -0.5584  0.7529  0.0198
  176SOPE   O2219988   2.565   2.365  10.844 -0.0408  0.2699  0.1791
  176SOPE   C2219989   2.455   2.149  10.864  0.1111  0.6333  0.9220
  176SOPE   H2R19990   2.384   2.217  10.916 -1.7221 -1.0767  0.7831
  176SOPE   H2S19991   2.491   2.074  10.938 -1.1171  0.2113  1.1234
  176SOPE    C319992   2.901   2.149  10.714 -0.1504 -0.6256  0.1603
  176SOPE    HX19993   2.915   2.050  10.763  0.5458 -0.8488 -0.4678
  176SOPE    HY19994   3.002   2.194  10.723 -0.1040 -0.6819 -0.0808
  176SOPE   O3119995   2.863   2.142  10.572 -0.5740 -0.2479  0.3319
  176SOPE   C3119996   2.824   2.023  10.545 -0.0806  0.3099 -0.4295
  176SOPE   O3219997   2.796   1.930  10.620 -0.1492 -0.0618  0.1511
  176SOPE   C3219998   2.795   2.024  10.402 -0.0525 -0.3916  0.6261
  176SOPE   H2X19999   2.881   2.041  10.333 -0.6204 -1.8281 -0.4800
  176SOPE   H2Y20000   2.719   2.104  10.392  2.1722  1.8048  0.2583
  176SOPE   C2320001   2.393   2.075  10.744  1.1791  0.3347 -0.2414
  176SOPE   H3R20002   2.472   2.020  10.688  1.3114 -0.1153  0.3773
  176SOPE   H3S20003   2.349   2.153  10.678 -0.5741 -0.9366 -0.6536
  176SOPE   C2420004   2.269   1.986  10.779  0.2294  0.0321 -0.1438
  176SOPE   H4R20005   2.300   1.907  10.851 -0.8699  0.5297  0.8927
  176SOPE   H4S20006   2.195   2.051  10.829  0.7583 -0.4507  1.3301
  176SOPE   C2520007   2.189   1.941  10.659  0.6841 -0.8669 -0.2148
  176SOPE   H5R20008   2.085   1.938  10.698  0.6299 -0.4581 -0.3256
  176SOPE   H5S20009   2.196   2.005  10.568 -0.6677 -1.2205 -0.5954
  176SOPE   C2620010   2.208   1.792  10.623  0.3872  0.1897  0.0759
  176SOPE   H6R20011   2.214   1.728  10.713 -0.4520  1.5765  1.1693
  176SOPE   H6S20012   2.113   1.755  10.578 -0.0958  0.8964  0.4835
  176SOPE   C2720013   2.343   1.775  10.548 -0.0986  0.4102  0.6315
  176SOPE   H7R20014   2.373   1.866  10.492 -2.5439  0.3643 -0.9127
  176SOPE   H7S20015   2.418   1.755  10.627 -0.4045 -3.3573  0.1719
  176SOPE   C2820016   2.330   1.648  10.452  0.2750 -0.0107  0.0058
  176SOPE   H8R20017   2.268   1.582  10.516 -0.7295  1.3253  0.4548
  176SOPE   H8S20018   2.272   1.694  10.370  0.7110 -1.4934 -1.1762
  176SOPE   C2920019   2.461   1.588  10.394 -0.3536  0.0095 -0.1488
  176SOPE   H9120020   2.530   1.546  10.469  0.0420  0.9508  0.0168
  176SOPE  C21020021   2.489   1.566  10.259 -0.3940 -0.2112  0.7479
  176SOPE  H10120022   2.590   1.536  10.227 -0.0956  2.1512 -0.7138
  176SOPE  C21120023   2.403   1.607  10.139 -0.2019 -0.9480  0.3265
  176SOPE  H11R20024   2.374   1.713  10.155  0.7005 -0.3823 -1.4551
  176SOPE  H11S20025   2.311   1.546  10.134 -0.9424 -0.1523  3.0364
  176SOPE  C21220026   2.488   1.606  10.011 -0.4570  0.3919  0.1887
  176SOPE  H12R20027   2.546   1.511  10.007  1.9556  1.7433  0.9909
  176SOPE  H12S20028   2.551   1.697  10.020 -1.5905  1.2286 -0.1527
  176SOPE  C21320029   2.403   1.619   9.880  0.9391 -0.4114 -0.1633
  176SOPE  H13R20030   2.344   1.714   9.879  0.9658 -0.3787  0.7216
  176SOPE  H13S20031   2.321   1.544   9.885 -0.2684  0.8155 -0.7382
  176SOPE  C21420032   2.474   1.591   9.749 -0.0772  0.1364  0.3095
  176SOPE  H14R20033   2.403   1.568   9.667  0.4533  0.0388 -0.1268
  176SOPE  H14S20034   2.518   1.490   9.765 -0.4551 -0.0019  0.4760
  176SOPE  C21520035   2.574   1.694   9.707 -0.2243  0.1622  0.4373
  176SOPE  H15R20036   2.644   1.662   9.626  2.7539  0.7758  2.6119
  176SOPE  H15S20037   2.637   1.723   9.793 -1.1203 -1.7301  1.7959
  176SOPE  C21620038   2.504   1.823   9.652  0.2947 -0.3346 -0.2162
  176SOPE  H16R20039   2.560   1.912   9.687 -0.7781 -0.2502  1.3516
  176SOPE  H16S20040   2.415   1.840   9.715  1.4122  2.1803  0.8181
  176SOPE  C21720041   2.474   1.821   9.505  0.1617  0.6666  0.4911
  176SOPE  H17R20042   2.367   1.846   9.487  0.7992  1.8943 -2.0265
  176SOPE  H17S20043   2.472   1.712   9.482 -0.7935  0.8977 -0.6038
  176SOPE  C21820044   2.566   1.894   9.413 -0.2229  0.3921  0.0170
  176SOPE  H18R20045   2.670   1.893   9.452  0.7810 -1.0050 -2.4468
  176SOPE  H18S20046   2.536   2.001   9.404 -2.6854 -0.0423  1.8463
  176SOPE  H18T20047   2.562   1.843   9.315 -0.6431  0.4787 -0.0156
  176SOPE   C3320048   2.735   1.888  10.355 -0.2645 -0.1656 -0.2388
  176SOPE   H3X20049   2.652   1.851  10.419 -0.6990 -1.1217 -1.3109
  176SOPE   H3Y20050   2.814   1.809  10.351 -0.3764 -0.4832  2.2888
  176SOPE   C3420051   2.677   1.917  10.212  0.2110 -0.5355  0.0946
  176SOPE   H4X20052   2.653   1.816  10.172 -1.4906  0.0938 -0.5805
  176SOPE   H4Y20053   2.745   1.981  10.151 -0.3880  1.3084  1.2705
  176SOPE   C3520054   2.537   1.986  10.196  0.3493 -0.0032  0.5443
  176SOPE   H5X20055   2.532   2.089  10.236 -1.1246  0.5990 -1.0502
  176SOPE   H5Y20056   2.471   1.920  10.257  1.2698 -1.7505 -0.2702
  176SOPE   C3620057   2.472   1.997  10.058 -0.5726 -0.1474  0.2118
  176SOPE   H6X20058   2.475   1.896  10.012  1.3176 -0.9005  1.8322
  176SOPE   H6Y20059   2.535   2.068  10.001  3.1331 -1.3082  2.5255
  176SOPE   C3720060   2.318   2.021  10.067  0.5305 -0.7140  0.5045
  176SOPE   H7X20061   2.317   2.108  10.136  0.6029 -0.6247  0.3961
  176SOPE   H7Y20062   2.272   1.938  10.124 -0.7160  0.1112  0.7381
  176SOPE   C3820063   2.237   2.061   9.942 -0.1932  0.0956  0.7765
  176SOPE   H8X20064   2.146   2.118   9.973 -1.7897 -0.7265 -2.0878
  176SOPE   H8Y20065   2.206   1.966   9.893 -0.2487  0.8033 -0.6058
  176SOPE   C3920066   2.311   2.134   9.828  0.2041  0.1334 -0.0323
  176SOPE   H9X20067   2.409   2.081   9.819 -0.3977 -0.9131 -0.7218
  176SOPE   H9Y20068   2.331   2.240   9.851  2.1949 -0.2472  0.2210
  176SOPE  C31020069   2.240   2.127   9.689 -0.0296  0.1097 -0.7253
  176SOPE  H10X20070   2.132   2.153   9.696 -0.1801 -0.8632  0.8897
  176SOPE  H10Y20071   2.257   2.019   9.672 -0.4151 -0.1150  0.3011
  176SOPE  C31120072   2.292   2.224   9.577  0.6039  0.5575 -0.0550
  176SOPE  H11X20073   2.402   2.218   9.586  0.5634 -0.2856 -0.0021
  176SOPE  H11Y20074   2.246   2.322   9.598  1.0286  0.7161  0.1401
  176SOPE  C31220075   2.249   2.174   9.432  1.0825 -0.2400 -0.2541
  176SOPE  H12X20076   2.307   2.080   9.418 -0.8365 -1.5018  0.0228
  176SOPE  H12Y20077   2.269   2.247   9.350 -2.4152 -0.0352 -1.0646
  176SOPE  C31320078   2.097   2.154   9.421  0.5302 -0.6232 -0.4323
  176SOPE  H13X20079   2.049   2.252   9.442 -0.1283 -1.4071  2.0761
  176SOPE  H13Y20080   2.054   2.085   9.497 -0.6694  0.4710 -0.0921
  176SOPE  C31420081   2.057   2.105   9.282 -0.2428  0.5980  0.5170
  176SOPE  H14X20082   2.111   2.163   9.204 -1.5550  0.5194 -0.4723
  176SOPE  H14Y20083   1.948   2.097   9.265 -0.1504  1.0109 -0.2778
  176SOPE  C31520084   2.110   1.955   9.273  0.2758  0.0907  0.5382
  176SOPE  H15X20085   2.074   1.905   9.366  0.1674  0.6279  0.7933
  176SOPE  H15Y20086   2.221   1.952   9.271  0.2826  0.1146 -2.4317
  176SOPE  C31620087   2.066   1.867   9.150 -0.1977  0.1846 -0.5743
  176SOPE  H16X20088   1.958   1.844   9.167 -0.5225  2.0985  0.2391
  176SOPE  H16Y20089   2.126   1.774   9.154  2.2628  1.6516 -0.9807
  176SOPE  C31720090   2.069   1.934   9.018  0.0441 -0.5551 -0.5339
  176SOPE  H17X20091   2.169   1.982   9.018  1.5640 -3.3457  2.2748
  176SOPE  H17Y20092   1.991   2.013   9.021  0.7521  0.1417  2.2142
  176SOPE  C31820093   2.054   1.842   8.894  0.4020  0.2011 -0.1681
  176SOPE  H18X20094   2.123   1.756   8.879 -2.2567 -1.7112 -2.4889
  176SOPE  H18Y20095   2.038   1.897   8.799 -0.7850 -0.0476 -0.1235
  176SOPE  H18Z20096   1.955   1.793   8.906  1.0219 -0.9128  0.5880
  177SOPE     N20097   2.082   5.932  11.710  0.2251  0.3060  0.4837
  177SOPE   HN120098   2.084   5.848  11.650 -0.1997 -0.0079  0.8983
  177SOPE   HN220099   2.148   5.916  11.789  0.7246 -2.8292 -0.4269
  177SOPE   HN320100   1.988   5.927  11.755  0.1080  0.0634  0.2091
  177SOPE   C1220101   2.100   6.058  11.632 -0.3530  0.2039  0.2331
  177SOPE  H12A20102   2.196   6.045  11.577  0.0550 -0.3530  1.0456
  177SOPE  H12B20103   2.105   6.149  11.695  1.7180  1.5575 -1.7255
  177SOPE   C1120104   1.984   6.068  11.531 -0.7544  0.4233  0.2207
  177SOPE  H11A20105   2.000   6.162  11.474 -1.3683  0.7888  0.6348
  177SOPE  H11B20106   1.889   6.103  11.577 -0.6296 -1.5028  2.0725
  177SOPE     P20107   1.872   5.971  11.324  0.0429  0.0361  0.1591
  177SOPE   O1320108   1.908   6.095  11.251  0.2052 -0.4361  0.1609
  177SOPE   O1420109   1.730   5.958  11.370  0.3449  0.0049 -0.3269
  177SOPE   O1220110   1.961   5.950  11.454 -0.3170  0.3356  1.1021
  177SOPE   O1120111   1.906   5.848  11.225  0.0230  0.1170 -0.0275
  177SOPE    C120112   2.043   5.839  11.190  0.1550  0.8145 -0.4576
  177SOPE    HA20113   2.060   5.730  11.173  1.0078  1.1049 -1.6095
  177SOPE    HB20114   2.116   5.876  11.265  2.8989 -1.2055 -1.9515
  177SOPE    C220115   2.073   5.902  11.052 -0.0354  0.4500 -0.6646
  177SOPE    HS20116   2.081   6.011  11.069  1.1667  0.1991  0.5459
  177SOPE   O2120117   1.952   5.881  10.977 -0.3432 -0.7188  1.2103
  177SOPE   C2120118   1.950   5.950  10.862 -0.1100  0.1664 -0.0023
  177SOPE   O2220119   2.037   6.023  10.815  0.0792 -0.3304  0.1377
  177SOPE   C2220120   1.815   5.910  10.789 -0.7228 -0.8591  0.7121
  177SOPE   H2R20121   1.757   6.004  10.785  2.6829  1.4365  1.4630
  177SOPE   H2S20122   1.749   5.843  10.849 -0.4022 -0.8345  1.0947
  177SOPE    C320123   2.203   5.853  10.998  0.0701  0.2184  0.7235
  177SOPE    HX20124   2.286   5.872  11.070  0.4610 -3.8520  1.5661
  177SOPE    HY20125   2.232   5.916  10.911 -0.8091 -0.8248 -0.3482
  177SOPE   O3120126   2.205   5.720  10.966 -0.1881  0.6917 -0.1014
  177SOPE   C3120127   2.307   5.676  10.882  0.1786 -0.1032 -0.0291
  177SOPE   O3220128   2.402   5.742  10.846  0.6296 -0.9194  0.4838
  177SOPE   C3220129   2.279   5.535  10.841 -0.7737  0.2823  0.5918
  177SOPE   H2X20130   2.171   5.508  10.834 -0.7463 -0.1456  1.5451
  177SOPE   H2Y20131   2.329   5.464  10.910 -3.0982 -2.6352 -0.4841
  177SOPE   C2320132   1.835   5.868  10.642 -0.0604  0.1427 -0.6543
  177SOPE   H3R20133   1.926   5.804  10.645 -0.4109 -0.3144  1.5626
  177SOPE   H3S20134   1.862   5.956  10.580  2.2855  0.0900  0.1743
  177SOPE   C2420135   1.702   5.790  10.592  0.0903 -0.4659 -0.6741
  177SOPE   H4R20136   1.665   5.717  10.667 -0.9959 -1.8440 -2.4586
  177SOPE   H4S20137   1.620   5.861  10.565  1.0765  0.4318 -1.3835
  177SOPE   C2520138   1.725   5.704  10.469  0.0303  0.3416  0.0229
  177SOPE   H5R20139   1.817   5.651  10.501  0.8999  0.7456 -1.6761
  177SOPE   H5S20140   1.644   5.630  10.458  0.6989 -0.6570  1.5795
  177SOPE   C2620141   1.764   5.771  10.338 -1.3061 -0.3594  0.7178
  177SOPE   H6R20142   1.692   5.855  10.320 -1.6108 -0.7921 -0.1209
  177SOPE   H6S20143   1.858   5.820  10.371 -1.7493 -1.3248  3.7299
  177SOPE   C2720144   1.790   5.669  10.227  0.2814  0.3883  0.1464
  177SOPE   H7R20145   1.854   5.589  10.269  0.3237  0.3808  0.0678
  177SOPE   H7S20146   1.694   5.618  10.202  1.3613 -0.2870 -3.0382
  177SOPE   C2820147   1.833   5.727  10.089 -0.1628 -1.3409  0.0905
  177SOPE   H8R20148   1.937   5.764  10.101  0.6659 -2.6824 -2.3176
  177SOPE   H8S20149   1.862   5.641  10.024  0.7463  0.3700 -1.8851
  177SOPE   C2920150   1.734   5.825  10.015  0.0216 -0.0601  0.6017
  177SOPE   H9120151   1.681   5.895  10.081  2.8780  6.6929 -3.2325
  177SOPE  C21020152   1.738   5.841   9.878 -0.5023 -0.9497  0.0130
  177SOPE  H10120153   1.674   5.914   9.826 -2.2255 -2.6339 -0.3310
  177SOPE  C21120154   1.831   5.773   9.785 -0.7828  0.0476  0.1927
  177SOPE  H11R20155   1.792   5.672   9.763 -0.6484 -0.1106  0.6740
  177SOPE  H11S20156   1.933   5.764   9.828  0.7997  2.3491 -2.7340
  177SOPE  C21220157   1.865   5.852   9.654 -0.2177 -0.0792 -0.0823
  177SOPE  H12R20158   1.939   5.795   9.594 -1.0568 -2.0725  0.6945
  177SOPE  H12S20159   1.907   5.952   9.679  2.6726 -1.1415 -0.3116
  177SOPE  C21320160   1.732   5.877   9.566 -0.6232  0.1957 -0.0691
  177SOPE  H13R20161   1.689   5.975   9.595  1.3035  0.8869  0.6100
  177SOPE  H13S20162   1.663   5.795   9.596  0.0691  0.0279  1.1151
  177SOPE  C21420163   1.734   5.861   9.414 -0.6498 -0.4110  0.0142
  177SOPE  H14R20164   1.626   5.859   9.388 -0.6905 -1.4952  0.2149
  177SOPE  H14S20165   1.770   5.758   9.395 -2.1471 -0.5089 -2.7953
  177SOPE  C21520166   1.828   5.957   9.332 -0.2601  0.7301  0.3396
  177SOPE  H15R20167   1.934   5.952   9.363  0.7625 -0.3246 -2.9331
  177SOPE  H15S20168   1.786   6.058   9.354 -2.6939  0.7485 -3.3916
  177SOPE  C21620169   1.817   5.921   9.179 -0.2065  0.0990 -0.2995
  177SOPE  H16R20170   1.866   5.998   9.116  0.2579 -0.0800 -0.1669
  177SOPE  H16S20171   1.706   5.925   9.168 -0.2883  1.9450  0.8667
  177SOPE  C21720172   1.871   5.786   9.137  0.6717  0.1680  0.1926
  177SOPE  H17R20173   1.833   5.711   9.211 -1.5277  0.8421 -0.1641
  177SOPE  H17S20174   1.980   5.775   9.152  0.6896 -0.1935 -0.1958
  177SOPE  C21820175   1.841   5.743   8.997 -0.3525  0.2872 -0.1897
  177SOPE  H18R20176   1.849   5.825   8.923 -1.1263 -0.1366 -0.7575
  177SOPE  H18S20177   1.746   5.686   8.985 -0.0432 -0.6528  1.4842
  177SOPE  H18T20178   1.914   5.662   8.977  1.3071  1.6112  0.2930
  177SOPE   C3320179   2.343   5.498  10.705 -0.0679  0.2089  0.9156
  177SOPE   H3X20180   2.362   5.390  10.685 -0.1755  0.7909 -3.4556
  177SOPE   H3Y20181   2.451   5.527  10.706  0.4533 -1.5366  0.2858
  177SOPE   C3420182   2.273   5.564  10.585  0.5086 -0.4815  0.0167
  177SOPE   H4X20183   2.298   5.672  10.596 -2.8808  0.5170 -0.8670
  177SOPE   H4Y20184   2.163   5.555  10.600  0.4658  1.5527  1.3437
  177SOPE   C3520185   2.324   5.504  10.459  0.3706  0.4554  0.4805
  177SOPE   H5X20186   2.302   5.395  10.449  0.6309  0.5642 -1.6240
  177SOPE   H5Y20187   2.432   5.522  10.443  0.6216 -1.8805 -0.9366
  177SOPE   C3620188   2.251   5.575  10.342 -0.0253 -0.1354  0.1174
  177SOPE   H6X20189   2.252   5.686  10.346 -2.3095 -0.0635 -0.0848
  177SOPE   H6Y20190   2.142   5.555  10.342  0.2496 -1.7511  0.3999
  177SOPE   C3720191   2.310   5.543  10.202 -0.3693 -0.5625 -0.4292
  177SOPE   H7X20192   2.317   5.435  10.177 -1.9346 -0.5410 -1.0681
  177SOPE   H7Y20193   2.415   5.579  10.208 -0.7774  0.4636  1.6392
  177SOPE   C3820194   2.225   5.604  10.093  0.4869 -0.6601  0.0197
  177SOPE   H8X20195   2.208   5.712  10.109 -0.7968 -0.7076 -0.7972
  177SOPE   H8Y20196   2.125   5.555  10.098 -0.1705  0.2390 -2.7545
  177SOPE   C3920197   2.281   5.569   9.956  0.2924 -0.1090  0.7091
  177SOPE   H9X20198   2.299   5.460   9.940 -0.9056 -0.5702  2.1965
  177SOPE   H9Y20199   2.372   5.632   9.945 -0.5876  1.2940  1.2079
  177SOPE  C31020200   2.191   5.621   9.843  0.4080 -0.3208  0.1161
  177SOPE  H10X20201   2.178   5.731   9.853 -0.1733 -0.3455 -0.2899
  177SOPE  H10Y20202   2.088   5.580   9.849  1.0267 -1.7799  1.3392
  177SOPE  C31120203   2.259   5.587   9.711 -0.2338 -0.2768 -0.5932
  177SOPE  H11X20204   2.280   5.478   9.706 -0.7312 -0.5148  1.6074
  177SOPE  H11Y20205   2.359   5.637   9.703 -1.4902  2.8947  1.3993
  177SOPE  C31220206   2.182   5.632   9.587  1.2894 -0.4846  0.9224
  177SOPE  H12X20207   2.183   5.743   9.598  0.2058 -0.5718  2.1486
  177SOPE  H12Y20208   2.076   5.600   9.589  0.0532  2.9010 -1.2294
  177SOPE  C31320209   2.245   5.570   9.459  0.8296 -0.2751 -0.2802
  177SOPE  H13X20210   2.234   5.460   9.465 -0.8747 -0.0900  0.3621
  177SOPE  H13Y20211   2.351   5.604   9.465  1.1217 -0.8735 -1.7880
  177SOPE  C31420212   2.193   5.624   9.332 -0.7376  0.3867  0.3598
  177SOPE  H14X20213   2.201   5.734   9.325 -1.0986  0.3392 -1.2164
  177SOPE  H14Y20214   2.085   5.599   9.327 -0.6282 -0.4960  1.9291
  177SOPE  C31520215   2.263   5.567   9.210 -0.3459 -0.0550 -0.5837
  177SOPE  H15X20216   2.245   5.458   9.198 -1.6634  0.4313 -4.3563
  177SOPE  H15Y20217   2.369   5.594   9.230 -1.2239  3.4095  0.1280
  177SOPE  C31620218   2.233   5.645   9.085  0.0433 -0.9577  0.0170
  177SOPE  H16X20219   2.232   5.756   9.093  1.1348 -0.8518 -0.9879
  177SOPE  H16Y20220   2.136   5.622   9.037 -0.1766 -0.2305  0.1053
  177SOPE  C31720221   2.341   5.630   8.978 -0.3856 -0.0942  0.4796
  177SOPE  H17X20222   2.338   5.525   8.941  2.1292 -0.3865  0.9755
  177SOPE  H17Y20223   2.435   5.637   9.036 -0.6287  0.0007  0.8712
  177SOPE  C31820224   2.325   5.728   8.864 -0.5726 -0.2708 -0.8834
  177SOPE  H18X20225   2.410   5.720   8.794 -0.1138  1.3176 -0.5273
  177SOPE  H18Y20226   2.324   5.832   8.903 -2.1249 -0.8218  0.6789
  177SOPE  H18Z20227   2.231   5.716   8.805 -1.6576 -0.2749  0.7679
  178SOPE     N20228   6.051   3.896  10.918 -0.2372 -0.0804  0.0952
  178SOPE   HN120229   6.026   3.800  10.950 -1.1188  0.6584  1.7545
  178SOPE   HN220230   6.002   3.967  10.976 -0.0072 -1.0728  1.5399
  178SOPE   HN320231   6.015   3.907  10.820  0.1262  0.1104 -0.0181
  178SOPE   C1220232   6.196   3.917  10.911  0.1808  0.2387  0.2283
  178SOPE  H12A20233   6.245   3.925  11.011  2.7691  2.7234 -1.0891
  178SOPE  H12B20234   6.197   4.020  10.870 -1.6023  1.1188  2.1834
  178SOPE   C1120235   6.256   3.800  10.827 -0.1700 -0.2634 -0.0789
  178SOPE  H11A20236   6.365   3.824  10.820 -0.3146 -0.0100 -2.0502
  178SOPE  H11B20237   6.222   3.808  10.722 -0.4990  1.5435  0.1268
  178SOPE     P20238   6.334   3.602  10.970  0.2129 -0.4613  0.2500
  178SOPE   O1320239   6.271   3.478  11.027 -0.2770  0.8661  0.3579
  178SOPE   O1420240   6.382   3.695  11.072  0.0086  0.2440  0.1780
  178SOPE   O1220241   6.221   3.667  10.882 -0.3090  0.2773 -0.4241
  178SOPE   O1120242   6.447   3.564  10.860 -0.0595  0.0672  0.7563
  178SOPE    C120243   6.393   3.509  10.738 -0.2840  0.3347 -0.3423
  178SOPE    HA20244   6.365   3.601  10.683  1.9651  0.1354 -1.9391
  178SOPE    HB20245   6.308   3.442  10.762  2.2299 -2.3187  1.9269
  178SOPE    C220246   6.499   3.435  10.658 -0.2237 -0.7377 -0.0046
  178SOPE    HS20247   6.458   3.366  10.582  1.0502  0.2402 -1.6633
  178SOPE   O2120248   6.586   3.370  10.750  0.0383  0.0687 -0.1576
  178SOPE   C2120249   6.528   3.261  10.808 -0.0187 -0.0811  0.0776
  178SOPE   O2220250   6.412   3.234  10.818  0.7480 -0.6427  0.2438
  178SOPE   C2220251   6.642   3.179  10.867 -0.5940  0.5695  0.7600
  178SOPE   H2R20252   6.627   3.207  10.974 -0.1897  3.0474  0.2292
  178SOPE   H2S20253   6.740   3.224  10.839  0.2626 -1.1752  0.7885
  178SOPE    C320254   6.588   3.539  10.580 -0.0964  0.5071 -0.0735
  178SOPE    HX20255   6.627   3.596  10.667 -0.0687 -0.5992  0.6597
  178SOPE    HY20256   6.512   3.607  10.535  1.2561  2.7652  0.9195
  178SOPE   O3120257   6.683   3.507  10.476  0.1736  0.1767  0.0892
  178SOPE   C3120258   6.616   3.456  10.368  0.6015  0.6896  0.2138
  178SOPE   O3220259   6.498   3.467  10.345 -0.0981 -0.1086 -0.2148
  178SOPE   C3220260   6.713   3.392  10.272  0.5967 -0.0804  0.7456
  178SOPE   H2X20261   6.645   3.370  10.187  0.0125 -0.4896  1.3049
  178SOPE   H2Y20262   6.744   3.293  10.311 -0.1032 -0.1614  1.1116
  178SOPE   C2320263   6.646   3.025  10.842  0.5936 -0.1524  0.3170
  178SOPE   H3R20264   6.541   2.991  10.827 -0.0738  2.2944 -1.0543
  178SOPE   H3S20265   6.674   2.974  10.936 -3.1818  2.0381  2.9068
  178SOPE   C2420266   6.734   2.992  10.714  0.3327 -0.2128 -0.8876
  178SOPE   H4R20267   6.805   3.074  10.690  2.1684 -0.3381  3.3776
  178SOPE   H4S20268   6.789   2.898  10.731  1.0661  0.0961 -1.5007
  178SOPE   C2520269   6.653   2.975  10.591  0.5513 -0.5293 -0.1302
  178SOPE   H5R20270   6.584   2.889  10.600 -0.5239  0.0854 -1.9682
  178SOPE   H5S20271   6.589   3.063  10.566  0.3175 -0.2598  1.3345
  178SOPE   C2620272   6.745   2.946  10.474  0.0626  0.5028  0.1836
  178SOPE   H6R20273   6.819   3.029  10.467  0.3602  0.0730 -3.2758
  178SOPE   H6S20274   6.808   2.857  10.496  2.0812  0.6664 -4.0130
  178SOPE   C2720275   6.676   2.914  10.332 -0.6956 -0.2416 -0.0338
  178SOPE   H7R20276   6.604   2.833  10.352  1.0113 -1.4177  1.6544
  178SOPE   H7S20277   6.627   3.008  10.299 -0.4784  0.1093  0.6284
  178SOPE   C2820278   6.778   2.877  10.229 -0.3238 -0.8077 -0.2741
  178SOPE   H8R20279   6.835   2.787  10.261  3.0453  1.6849  1.3216
  178SOPE   H8S20280   6.730   2.842  10.135  0.0633 -0.8384 -0.4597
  178SOPE   C2920281   6.875   2.993  10.197  0.6640  0.7674 -0.4313
  178SOPE   H9120282   6.947   3.023  10.274  0.0373  1.1785  0.0133
  178SOPE  C21020283   6.883   3.054  10.076 -0.3484 -0.8279  0.3652
  178SOPE  H10120284   6.951   3.139  10.065 -0.5322 -0.4559  1.8119
  178SOPE  C21120285   6.807   3.034   9.944  0.2820  0.3745 -0.4994
  178SOPE  H11R20286   6.745   3.125   9.928  0.3601  0.6998  0.8697
  178SOPE  H11S20287   6.748   2.941   9.935 -1.1888  1.4556 -3.0561
  178SOPE  C21220288   6.907   3.035   9.827  0.1995 -0.5528 -0.3904
  178SOPE  H12R20289   6.956   2.936   9.821 -0.3955 -1.2263  3.5240
  178SOPE  H12S20290   6.978   3.120   9.841 -1.9964  1.1760  1.0327
  178SOPE  C21320291   6.835   3.069   9.693  0.3735 -0.1797  0.2265
  178SOPE  H13R20292   6.843   3.179   9.684  0.8824 -0.2856 -0.6235
  178SOPE  H13S20293   6.728   3.039   9.689  0.6201 -1.0101 -0.2421
  178SOPE  C21420294   6.911   3.007   9.576  0.6492 -0.7831  0.2490
  178SOPE  H14R20295   6.905   2.896   9.574 -0.0114 -0.7437 -0.3247
  178SOPE  H14S20296   7.014   3.049   9.575  0.1985  0.3574 -1.0959
  178SOPE  C21520297   6.840   3.067   9.448 -0.2713 -0.3585 -0.0191
  178SOPE  H15R20298   6.861   3.175   9.440 -1.5497 -0.1059 -0.1204
  178SOPE  H15S20299   6.731   3.054   9.469 -0.1020 -0.5157  0.8133
  178SOPE  C21620300   6.884   2.985   9.329 -0.1626 -0.3033 -0.0238
  178SOPE  H16R20301   6.827   3.001   9.235  0.2156  0.9223 -0.0563
  178SOPE  H16S20302   6.869   2.878   9.356  0.5654 -0.5363 -0.5195
  178SOPE  C21720303   7.039   2.998   9.294 -0.0949  0.0282  0.6962
  178SOPE  H17R20304   7.102   2.980   9.384 -1.1589  0.8944  1.6521
  178SOPE  H17S20305   7.054   3.103   9.262  0.2657 -0.8080 -2.0911
  178SOPE  C21820306   7.065   2.903   9.178 -0.1353  0.1115  0.5010
  178SOPE  H18R20307   7.053   2.795   9.199 -1.3883  0.2535  0.6384
  178SOPE  H18S20308   7.171   2.916   9.150 -0.1763 -1.0406 -0.2354
  178SOPE  H18T20309   7.006   2.936   9.090  0.1592 -1.4641 -0.3124
  178SOPE   C3320310   6.832   3.479  10.198  0.4855 -0.5228 -0.2591
  178SOPE   H3X20311   6.908   3.399  10.184  0.8599 -0.2535  0.2014
  178SOPE   H3Y20312   6.880   3.545  10.273 -1.2851 -0.4130  0.8299
  178SOPE   C3420313   6.792   3.558  10.074  0.8160  0.3572 -0.8408
  178SOPE   H4X20314   6.725   3.637  10.113  1.0333 -0.6790  1.8187
  178SOPE   H4Y20315   6.733   3.497  10.003 -0.2323  0.6494 -0.2307
  178SOPE   C3520316   6.911   3.632  10.008  0.1696 -0.5010  0.1209
  178SOPE   H5X20317   6.950   3.709  10.077 -2.1418 -1.6974  2.9839
  178SOPE   H5Y20318   6.886   3.673   9.908 -0.2111 -1.0252 -0.0046
  178SOPE   C3620319   7.027   3.541   9.966  0.3179 -0.1579  0.2310
  178SOPE   H6X20320   7.062   3.477  10.049 -1.1904 -0.7391  0.4456
  178SOPE   H6Y20321   7.115   3.608   9.954  1.2016 -1.1944  0.7331
  178SOPE   C3720322   7.008   3.455   9.837  0.0397 -0.1894  0.2119
  178SOPE   H7X20323   6.919   3.393   9.857  0.7280 -1.6802 -1.1802
  178SOPE   H7Y20324   7.096   3.387   9.832 -0.4559 -0.8812  0.7897
  178SOPE   C3820325   6.997   3.522   9.699  0.0011 -0.1894 -0.4129
  178SOPE   H8X20326   7.069   3.606   9.702 -0.7131  0.4880 -1.5315
  178SOPE   H8Y20327   6.898   3.572   9.691  1.6583  3.2180 -1.2133
  178SOPE   C3920328   7.032   3.420   9.583  0.0290 -0.3497 -0.7080
  178SOPE   H9X20329   6.981   3.322   9.590  0.4623 -0.5389 -0.1231
  178SOPE   H9Y20330   7.142   3.406   9.582  0.3511  1.8740 -0.6761
  178SOPE  C31020331   6.994   3.484   9.451  0.3666 -0.1569  0.0939
  178SOPE  H10X20332   7.034   3.588   9.450 -2.9716  1.2942  2.4371
  178SOPE  H10Y20333   6.884   3.488   9.438  0.1442 -3.4825 -0.0597
  178SOPE  C31120334   7.062   3.411   9.332  0.5176 -0.0342 -0.4913
  178SOPE  H11X20335   7.009   3.315   9.312 -1.1516  0.7333  0.0888
  178SOPE  H11Y20336   7.170   3.388   9.346  0.6797 -0.0934 -1.7151
  178SOPE  C31220337   7.057   3.482   9.191 -0.5949 -0.4193  0.0661
  178SOPE  H12X20338   7.115   3.577   9.192 -0.0185 -0.7684  0.5543
  178SOPE  H12Y20339   6.949   3.502   9.173 -1.0057 -1.3895  1.2581
  178SOPE  C31320340   7.088   3.392   9.069  0.4674  0.3228 -0.1446
  178SOPE  H13X20341   7.040   3.291   9.069  1.8457 -0.3666 -1.0554
  178SOPE  H13Y20342   7.194   3.361   9.067  0.7085  0.9133  1.6970
  178SOPE  C31420343   7.071   3.464   8.932  0.2083  1.0162  0.5618
  178SOPE  H14X20344   7.116   3.564   8.949  0.8742  0.7277  0.5304
  178SOPE  H14Y20345   6.961   3.469   8.915  0.1846  4.6704  0.9263
  178SOPE  C31520346   7.146   3.411   8.813 -0.2184  0.4759 -0.5396
  178SOPE  H15X20347   7.094   3.319   8.778  0.1579  0.9026 -2.3601
  178SOPE  H15Y20348   7.254   3.394   8.832 -0.0951  3.3341  1.9754
  178SOPE  C31620349   7.126   3.508   8.696 -0.6258 -0.3871 -0.2536
  178SOPE  H16X20350   7.178   3.605   8.708 -3.0038  0.8428  0.8122
  178SOPE  H16Y20351   7.019   3.540   8.693 -0.5447 -0.1060 -0.1680
  178SOPE  C31720352   7.164   3.450   8.556  0.3136  0.6339 -0.1475
  178SOPE  H17X20353   7.265   3.405   8.565 -0.1463 -0.3254  0.4336
  178SOPE  H17Y20354   7.180   3.536   8.488  1.6285  1.6538  1.3943
  178SOPE  C31820355   7.073   3.337   8.505  0.8536 -0.5651  0.4419
  178SOPE  H18X20356   7.081   3.244   8.566  1.1405  0.6225  2.3018
  178SOPE  H18Y20357   7.100   3.316   8.400  0.0490 -0.4490  0.2008
  178SOPE  H18Z20358   6.967   3.370   8.514  1.2150  1.0616 -0.9434
  179SOPE     N20359   4.769   1.083   6.768  0.4366  0.3393 -0.4014
  179SOPE   HN120360   4.857   1.091   6.823  0.8733 -1.9700 -0.6608
  179SOPE   HN220361   4.771   1.165   6.705 -0.8382  0.9576  0.3197
  179SOPE   HN320362   4.686   1.103   6.828  1.5784  0.0066  1.3870
  179SOPE   C1220363   4.752   0.949   6.701  0.9025 -0.7150  0.6538
  179SOPE  H12A20364   4.817   0.873   6.751  3.0823  0.8644  0.3792
  179SOPE  H12B20365   4.803   0.975   6.606  0.7105 -1.7219  0.2576
  179SOPE   C1120366   4.613   0.895   6.709  0.5341 -0.0761 -0.3347
  179SOPE  H11A20367   4.595   0.795   6.665 -0.9654 -0.6878  1.5550
  179SOPE  H11B20368   4.553   0.977   6.664  1.6672  0.3249 -1.1768
  179SOPE     P20369   4.543   0.772   6.927 -0.0840  0.3255 -0.2373
  179SOPE   O1320370   4.662   0.685   6.913 -0.0052  0.1996 -0.4516
  179SOPE   O1420371   4.414   0.707   6.901  0.6238 -0.2310 -0.1901
  179SOPE   O1220372   4.571   0.902   6.850  0.5877  0.0956  0.1033
  179SOPE   O1120373   4.547   0.827   7.070 -0.1830 -0.1301 -0.2326
  179SOPE    C120374   4.627   0.944   7.106  0.2473  0.3554 -0.0233
  179SOPE    HA20375   4.570   1.034   7.076 -0.3953 -0.4645 -1.4163
  179SOPE    HB20376   4.722   0.947   7.049  0.5789 -0.7882  0.4416
  179SOPE    C220377   4.668   0.943   7.256  0.2051  0.6182 -0.4976
  179SOPE    HS20378   4.679   1.050   7.283 -0.7599  0.1759  1.9362
  179SOPE   O2120379   4.790   0.864   7.267  0.3506 -0.4181  0.1094
  179SOPE   C2120380   4.870   0.916   7.361 -0.2354 -0.5978  0.4040
  179SOPE   O2220381   4.857   1.025   7.412 -0.1620 -0.4261  0.0888
  179SOPE   C2220382   4.991   0.816   7.393 -0.9683  0.7833 -0.3575
  179SOPE   H2R20383   5.041   0.843   7.489 -2.4368 -4.0654  2.1263
  179SOPE   H2S20384   5.060   0.817   7.306  1.5720  2.2707  1.5297
  179SOPE    C320385   4.574   0.871   7.357 -0.5063 -0.3468 -0.1014
  179SOPE    HX20386   4.602   0.763   7.359 -0.0762 -0.2291  0.3704
  179SOPE    HY20387   4.468   0.875   7.324 -0.1929 -1.3961 -1.3483
  179SOPE   O3120388   4.588   0.905   7.492 -0.2048  0.5285 -0.1965
  179SOPE   C3120389   4.566   1.030   7.524  0.2299  0.1093  0.0705
  179SOPE   O3220390   4.546   1.120   7.444 -0.1988  0.0503 -0.0295
  179SOPE   C3220391   4.560   1.047   7.676  0.3158 -0.3004 -0.4913
  179SOPE   H2X20392   4.551   0.950   7.729  1.3560 -0.6494 -0.9395
  179SOPE   H2Y20393   4.466   1.103   7.699  1.1337  1.0327 -0.2878
  179SOPE   C2320394   4.932   0.673   7.427 -0.0787 -0.6694 -0.8463
  179SOPE   H3R20395   5.015   0.604   7.449  0.5450  0.7410  1.5434
  179SOPE   H3S20396   4.871   0.640   7.340 -0.6248 -0.5711 -0.5072
  179SOPE   C2420397   4.841   0.670   7.554 -0.8898  0.4796  0.3560
  179SOPE   H4R20398   4.806   0.775   7.570  0.3396  1.4313 -2.4631
  179SOPE   H4S20399   4.757   0.604   7.525  0.1956 -0.9536  0.3727
  179SOPE   C2520400   4.909   0.605   7.673  0.5591 -0.2139  0.9393
  179SOPE   H5R20401   4.912   0.495   7.665  0.6836 -0.1363 -0.3526
  179SOPE   H5S20402   5.011   0.647   7.686  0.5403  0.4586 -0.7278
  179SOPE   C2620403   4.839   0.632   7.811  1.1097  0.3913 -0.0160
  179SOPE   H6R20404   4.826   0.741   7.829 -0.7722  0.0602  0.8184
  179SOPE   H6S20405   4.736   0.592   7.802  0.4589  2.2473 -1.3692
  179SOPE   C2720406   4.904   0.567   7.933  0.3421 -0.1498  0.1284
  179SOPE   H7R20407   4.898   0.457   7.920  0.6543 -0.2261  0.6056
  179SOPE   H7S20408   5.005   0.605   7.958 -0.4340  0.9393  1.8159
  179SOPE   C2820409   4.819   0.596   8.065 -0.3403 -0.1910  0.1892
  179SOPE   H8R20410   4.798   0.703   8.086 -2.0785 -0.6830  1.2020
  179SOPE   H8S20411   4.719   0.547   8.055 -0.6950  0.1429  1.8755
  179SOPE   C2920412   4.885   0.545   8.187  0.4722 -0.4606 -0.4851
  179SOPE   H9120413   4.971   0.478   8.179  1.3585  0.5037  0.6192
  179SOPE  C21020414   4.845   0.583   8.310  0.3661 -0.2919 -0.1739
  179SOPE  H10120415   4.892   0.540   8.400 -0.0369  1.3270  0.8452
  179SOPE  C21120416   4.733   0.682   8.332  0.6404  0.7140  0.3002
  179SOPE  H11R20417   4.643   0.640   8.281  1.5697  0.5525 -1.2810
  179SOPE  H11S20418   4.753   0.779   8.280  0.8047  0.6492  0.2453
  179SOPE  C21220419   4.677   0.710   8.470  0.1931 -1.1448  0.0257
  179SOPE  H12R20420   4.591   0.779   8.461  0.3007 -0.8473  1.1026
  179SOPE  H12S20421   4.758   0.759   8.529 -1.2582  2.1558 -0.5020
  179SOPE  C21320422   4.654   0.587   8.550  0.9971 -0.1109 -0.1021
  179SOPE  H13R20423   4.741   0.533   8.592  2.0680  1.0715 -0.7519
  179SOPE  H13S20424   4.593   0.514   8.493 -0.8749  1.7878 -0.6694
  179SOPE  C21420425   4.557   0.621   8.670 -0.1549 -0.0538  0.5761
  179SOPE  H14R20426   4.473   0.676   8.622  0.4761  1.6896  1.3870
  179SOPE  H14S20427   4.623   0.671   8.744  0.7885  0.5952 -0.6596
  179SOPE  C21520428   4.495   0.499   8.739 -0.4041 -0.7814 -0.5958
  179SOPE  H15R20429   4.578   0.434   8.776  1.4953  0.5461 -2.3012
  179SOPE  H15S20430   4.447   0.432   8.664 -1.2567 -0.7087 -0.1204
  179SOPE  C21620431   4.407   0.541   8.862  0.8155 -0.3088  0.3570
  179SOPE  H16R20432   4.356   0.448   8.895 -0.9435  1.2436  2.2835
  179SOPE  H16S20433   4.317   0.604   8.848 -1.0271 -2.9304 -0.4349
  179SOPE  C21720434   4.481   0.589   8.980 -0.2771 -0.4049 -0.8548
  179SOPE  H17R20435   4.510   0.695   8.960 -2.3226 -0.0344 -2.1649
  179SOPE  H17S20436   4.569   0.521   8.985 -0.7550 -0.9258  1.8769
  179SOPE  C21820437   4.403   0.577   9.109 -0.9248  0.3590  0.2975
  179SOPE  H18R20438   4.467   0.586   9.199 -1.3340 -1.0307  0.7498
  179SOPE  H18S20439   4.348   0.482   9.117 -0.5257  0.1933  1.1463
  179SOPE  H18T20440   4.337   0.666   9.112  0.4245  1.5164 -1.5650
  179SOPE   C3320441   4.687   1.104   7.727  0.6696  0.0466  0.3672
  179SOPE   H3X20442   4.720   1.199   7.679  2.5535  0.1683  1.7806
  179SOPE   H3Y20443   4.761   1.026   7.701 -1.9324 -2.3207 -0.4006
  179SOPE   C3420444   4.684   1.130   7.881  0.3832  0.2169  0.0455
  179SOPE   H4X20445   4.589   1.176   7.917 -0.3596  1.1439 -2.8397
  179SOPE   H4Y20446   4.756   1.212   7.900  1.6771 -1.1538  1.3751
  179SOPE   C3520447   4.723   1.007   7.959  0.3832 -0.0645 -1.4138
  179SOPE   H5X20448   4.825   0.973   7.930  1.0024 -0.0420  0.6179
  179SOPE   H5Y20449   4.669   0.918   7.921  3.1685 -0.6870 -4.3601
  179SOPE   C3620450   4.714   1.031   8.107 -0.6065 -0.1998 -0.6545
  179SOPE   H6X20451   4.748   0.935   8.150 -2.4703  0.4390  2.5810
  179SOPE   H6Y20452   4.612   1.051   8.146 -0.2432 -0.5862  0.5458
  179SOPE   C3720453   4.803   1.144   8.155  0.0030 -0.4900 -0.6460
  179SOPE   H7X20454   4.746   1.238   8.137 -1.9465 -1.5362 -0.2162
  179SOPE   H7Y20455   4.902   1.146   8.106  0.2794 -0.3373 -0.0865
  179SOPE   C3820456   4.838   1.130   8.299  0.4074 -0.1662 -0.9087
  179SOPE   H8X20457   4.880   1.029   8.321 -0.5893 -0.3963  0.0329
  179SOPE   H8Y20458   4.744   1.112   8.355  1.5868 -0.9627  0.9146
  179SOPE   C3920459   4.905   1.250   8.352  0.7377  0.1206 -0.5503
  179SOPE   H9X20460   4.856   1.342   8.314  1.9837  1.9507  1.9702
  179SOPE   H9Y20461   5.006   1.262   8.307  0.6508  2.6505 -0.2156
  179SOPE  C31020462   4.910   1.240   8.509 -0.0823  0.5140 -0.1509
  179SOPE  H10X20463   4.978   1.159   8.544  1.8124  2.7289  1.6920
  179SOPE  H10Y20464   4.805   1.215   8.535 -0.1553 -0.1693 -1.0402
  179SOPE  C31120465   4.953   1.371   8.572 -0.0749  0.2130 -0.5602
  179SOPE  H11X20466   4.904   1.461   8.531  0.8936  1.9334  1.7929
  179SOPE  H11Y20467   5.060   1.400   8.560  0.4331  0.7434  3.6484
  179SOPE  C31220468   4.928   1.358   8.722 -0.2834 -0.2416 -0.5045
  179SOPE  H12X20469   4.972   1.263   8.760  0.4853  0.3245  0.0498
  179SOPE  H12Y20470   4.819   1.357   8.745  0.0831 -1.9536  1.3919
  179SOPE  C31320471   4.990   1.473   8.809  0.3142 -0.0982 -0.4134
  179SOPE  H13X20472   4.976   1.568   8.754 -0.8200 -1.6548 -2.9565
  179SOPE  H13Y20473   5.101   1.469   8.822  0.2879  0.0111 -0.1557
  179SOPE  C31420474   4.915   1.491   8.943  0.5267  0.1137 -0.4377
  179SOPE  H14X20475   4.926   1.397   9.002  0.3135  0.1079 -0.4056
  179SOPE  H14Y20476   4.807   1.515   8.931  0.0310 -0.1116  2.6806
  179SOPE  C31520477   4.968   1.608   9.028  1.0670 -0.0581 -0.0048
  179SOPE  H15X20478   4.965   1.698   8.963 -1.0133  0.7354  1.1141
  179SOPE  H15Y20479   5.076   1.584   9.041  0.6985 -1.7133  0.3025
  179SOPE  C31620480   4.897   1.627   9.161  0.2712 -0.0815  0.3636
  179SOPE  H16X20481   4.922   1.536   9.219  0.4958 -0.3432 -0.1386
  179SOPE  H16Y20482   4.787   1.628   9.141  0.2232 -1.0142  0.5851
  179SOPE  C31720483   4.945   1.749   9.244 -0.2584 -0.2892 -0.3058
  179SOPE  H17X20484   4.942   1.840   9.180  0.2773  1.2975  1.8270
  179SOPE  H17Y20485   5.051   1.751   9.278 -0.0873 -0.7488 -0.7909
  179SOPE  C31820486   4.855   1.790   9.360  0.0296 -0.9819  0.1991
  179SOPE  H18X20487   4.894   1.880   9.412 -2.5618 -0.1386  0.8776
  179SOPE  H18Y20488   4.847   1.705   9.431 -0.8296 -1.0599  0.0177
  179SOPE  H18Z20489   4.755   1.820   9.322 -0.8531 -0.2936  2.8568
  180SOPE     N20490   3.780   0.148   5.965  0.6473  0.2431  0.3156
  180SOPE   HN120491   3.849   0.072   5.951  1.2449  0.6838  0.8525
  180SOPE   HN220492   3.714   0.149   5.884 -0.5553  0.0462  1.2673
  180SOPE   HN320493   3.840   0.231   5.983  2.0350 -0.9525  1.4249
  180SOPE   C1220494   3.710   0.123   6.095  0.2457  0.0671  0.0379
  180SOPE  H12A20495   3.789   0.101   6.170 -0.6728 -0.0246  0.9852
  180SOPE  H12B20496   3.640   0.038   6.087  0.9225 -0.4798 -0.1015
  180SOPE   C1120497   3.632   0.250   6.139 -0.0230 -0.5514 -0.0068
  180SOPE  H11A20498   3.571   0.298   6.060 -0.2775 -3.9474 -2.1139
  180SOPE  H11B20499   3.716   0.316   6.167 -0.2269 -0.0839 -0.4714
  180SOPE     P20500   3.536   0.322   6.369 -0.0348 -0.0404 -0.2342
  180SOPE   O1320501   3.409   0.281   6.432  0.1370  0.1051 -0.0855
  180SOPE   O1420502   3.548   0.456   6.313  0.0519 -0.4340  0.0952
  180SOPE   O1220503   3.556   0.218   6.254  0.1646 -0.0955  0.3252
  180SOPE   O1120504   3.660   0.302   6.467 -0.2196  0.1384  0.4695
  180SOPE    C120505   3.666   0.183   6.551  0.1145 -0.2345  0.4398
  180SOPE    HA20506   3.766   0.138   6.538 -0.2212 -2.2092  3.7050
  180SOPE    HB20507   3.591   0.105   6.528  0.0875 -0.9146  2.5674
  180SOPE    C220508   3.659   0.218   6.700  0.4367  0.5431  0.6540
  180SOPE    HS20509   3.690   0.133   6.763 -0.4715  2.1909  3.4981
  180SOPE   O2120510   3.523   0.266   6.739 -0.9507 -0.5154 -0.1585
  180SOPE   C2120511   3.449   0.168   6.781  1.1014  0.5678 -0.0062
  180SOPE   O2220512   3.462   0.050   6.754 -0.0324 -0.5019  0.1335
  180SOPE   C2220513   3.341   0.217   6.874  0.2284 -0.3870 -0.2544
  180SOPE   H2R20514   3.245   0.162   6.860 -0.1720  0.2459 -0.0188
  180SOPE   H2S20515   3.328   0.325   6.857 -0.2820 -0.6533 -1.6448
  180SOPE    C320516   3.753   0.330   6.738  0.7293  0.7337 -0.1618
  180SOPE    HX20517   3.729   0.410   6.664 -0.7325 -1.2955 -1.9947
  180SOPE    HY20518   3.860   0.306   6.721  0.8146 -0.8574  2.1775
  180SOPE   O3120519   3.746   0.387   6.870  0.5182 -0.3433  0.5749
  180SOPE   C3120520   3.788   0.325   6.975  0.3111 -0.4248  0.6299
  180SOPE   O3220521   3.828   0.209   6.976  0.0883 -0.4356 -0.3067
  180SOPE   C3220522   3.777   0.412   7.100  0.0131 -0.3182  0.4255
  180SOPE   H2X20523   3.677   0.461   7.101  0.3812  0.6411 -1.9775
  180SOPE   H2Y20524   3.840   0.502   7.089  1.1352 -1.0939  0.3332
  180SOPE   C2320525   3.390   0.192   7.027  0.1218 -0.9403  0.2746
  180SOPE   H3R20526   3.475   0.261   7.048 -0.7755  0.3407 -0.1501
  180SOPE   H3S20527   3.425   0.088   7.043  1.1776 -0.4328  1.3568
  180SOPE   C2420528   3.275   0.226   7.130  0.4889 -0.1052  0.2401
  180SOPE   H4R20529   3.259   0.333   7.106  3.3602 -0.0401 -2.0003
  180SOPE   H4S20530   3.189   0.156   7.125  1.1283 -0.8754 -0.1405
  180SOPE   C2520531   3.343   0.238   7.271  0.1661 -0.2803 -0.2536
  180SOPE   H5R20532   3.382   0.141   7.309  0.0799  0.6919  2.5694
  180SOPE   H5S20533   3.428   0.309   7.264 -2.0159  2.7649  1.4618
  180SOPE   C2620534   3.251   0.302   7.374 -0.1032  0.1949 -0.1418
  180SOPE   H6R20535   3.177   0.368   7.324 -0.0401 -1.5427 -2.7217
  180SOPE   H6S20536   3.188   0.223   7.420  0.8666  0.5217  1.8808
  180SOPE   C2720537   3.341   0.388   7.473 -0.1227  0.2091 -0.5415
  180SOPE   H7R20538   3.423   0.442   7.422  0.7653  0.7216  1.3379
  180SOPE   H7S20539   3.281   0.464   7.527 -1.0965  0.7606 -2.3102
  180SOPE   C2820540   3.412   0.306   7.586  0.6758  0.0878  0.2257
  180SOPE   H8R20541   3.484   0.234   7.540  1.0482  0.6550 -0.0989
  180SOPE   H8S20542   3.480   0.358   7.656  1.9639 -0.8059 -0.3071
  180SOPE   C2920543   3.310   0.223   7.670 -0.0723  0.4751  0.1515
  180SOPE   H9120544   3.256   0.147   7.612  2.4390  0.3085 -2.1601
  180SOPE  C21020545   3.303   0.210   7.809 -0.5010 -0.9038  0.0236
  180SOPE  H10120546   3.220   0.150   7.848 -0.5814 -2.1778 -1.9555
  180SOPE  C21120547   3.385   0.284   7.906 -0.0984 -0.2568  0.6403
  180SOPE  H11R20548   3.477   0.319   7.854 -1.1643 -0.8329 -1.7315
  180SOPE  H11S20549   3.424   0.217   7.986  0.4861 -0.5980  0.0848
  180SOPE  C21220550   3.302   0.401   7.954  0.4128  0.3574  0.0118
  180SOPE  H12R20551   3.222   0.346   8.008  1.5081 -2.0997 -0.7109
  180SOPE  H12S20552   3.253   0.458   7.873 -0.3843  1.0291  0.9351
  180SOPE  C21320553   3.369   0.481   8.067 -0.0734 -0.6252  0.3255
  180SOPE  H13R20554   3.441   0.559   8.033 -0.3324 -0.6287 -0.2503
  180SOPE  H13S20555   3.431   0.403   8.114  0.8760 -1.5594 -2.2967
  180SOPE  C21420556   3.260   0.539   8.171 -0.2221 -0.6654  0.6125
  180SOPE  H14R20557   3.175   0.467   8.165 -0.1960 -0.5812 -1.8098
  180SOPE  H14S20558   3.219   0.630   8.122 -1.5303 -1.7124 -0.3187
  180SOPE  C21520559   3.311   0.568   8.310  0.5505  0.1119 -0.1787
  180SOPE  H15R20560   3.385   0.650   8.300 -1.2618  1.6754 -1.4673
  180SOPE  H15S20561   3.363   0.479   8.353  0.4105 -0.0633 -0.3686
  180SOPE  C21620562   3.189   0.600   8.400 -0.5546 -0.7480 -0.0183
  180SOPE  H16R20563   3.109   0.524   8.401 -1.7582  0.4838  0.3520
  180SOPE  H16S20564   3.131   0.671   8.337 -0.2187  0.3275  0.8509
  180SOPE  C21720565   3.216   0.646   8.536 -0.3788 -0.2498 -0.6588
  180SOPE  H17R20566   3.132   0.695   8.589 -3.1578 -3.3345 -1.8442
  180SOPE  H17S20567   3.308   0.708   8.533  1.5143 -2.7245  1.1727
  180SOPE  C21820568   3.236   0.528   8.637  0.0508  0.1087  0.7184
  180SOPE  H18R20569   3.136   0.479   8.639  0.6288 -1.1146  0.9062
  180SOPE  H18S20570   3.278   0.564   8.733 -0.3176 -0.0106  0.9258
  180SOPE  H18T20571   3.305   0.452   8.594  0.5725  0.3941  1.0449
  180SOPE   C3320572   3.805   0.333   7.226  0.4440 -0.5302  0.2591
  180SOPE   H3X20573   3.915   0.319   7.230  0.4403 -1.1136 -1.1956
  180SOPE   H3Y20574   3.759   0.232   7.230  1.5953 -1.0633  0.3607
  180SOPE   C3420575   3.780   0.408   7.357 -0.3416 -0.2774  0.4239
  180SOPE   H4X20576   3.671   0.423   7.369 -0.3702 -1.3173  1.5995
  180SOPE   H4Y20577   3.836   0.504   7.348 -0.4294 -0.4082 -3.0109
  180SOPE   C3520578   3.831   0.328   7.477  0.3682 -0.7247 -0.2496
  180SOPE   H5X20579   3.934   0.291   7.455  0.0105 -1.6246 -0.4848
  180SOPE   H5Y20580   3.783   0.228   7.480  0.1536 -0.6330 -0.5338
  180SOPE   C3620581   3.819   0.405   7.608 -0.1128 -0.1383  0.0213
  180SOPE   H6X20582   3.716   0.440   7.630  0.0590  0.8329 -0.6530
  180SOPE   H6Y20583   3.884   0.495   7.606 -0.1840  0.0510  2.7342
  180SOPE   C3720584   3.860   0.321   7.737  0.4047  0.1004  0.0403
  180SOPE   H7X20585   3.969   0.307   7.725  0.7111  0.6099  1.8870
  180SOPE   H7Y20586   3.796   0.230   7.731 -1.3023  1.3155 -1.5436
  180SOPE   C3820587   3.835   0.391   7.874  0.7007  0.8987 -0.4061
  180SOPE   H8X20588   3.741   0.450   7.862  1.6261  2.0971 -2.2642
  180SOPE   H8Y20589   3.923   0.456   7.891  0.5857  0.9601 -0.0424
  180SOPE   C3920590   3.823   0.290   7.993  0.0728 -0.2133 -0.1038
  180SOPE   H9X20591   3.730   0.231   7.976  1.0259 -1.7233 -0.2076
  180SOPE   H9Y20592   3.818   0.330   8.096  2.8808 -0.0941  0.0666
  180SOPE  C31020593   3.935   0.183   8.000 -0.1044 -0.2570  0.6421
  180SOPE  H10X20594   3.945   0.121   7.909  0.3413 -1.0151  1.1936
  180SOPE  H10Y20595   3.909   0.106   8.076  0.0124  0.3675  1.3310
  180SOPE  C31120596   4.075   0.249   8.022  0.5149  0.1423  0.7366
  180SOPE  H11X20597   4.045   0.346   8.065 -1.5781 -0.2068  0.1858
  180SOPE  H11Y20598   4.117   0.276   7.922 -1.9182 -2.3184 -1.1245
  180SOPE  C31220599   4.165   0.165   8.107  0.2460  0.1961 -0.0499
  180SOPE  H12X20600   4.265   0.212   8.098 -0.3554  1.9263  1.7003
  180SOPE  H12Y20601   4.175   0.064   8.061  1.2897 -0.3049  1.2090
  180SOPE  C31320602   4.116   0.148   8.254 -0.2035 -0.5316 -0.6694
  180SOPE  H13X20603   4.181   0.066   8.293  0.5101 -0.9325 -2.5954
  180SOPE  H13Y20604   4.007   0.126   8.262 -0.4950  0.9493 -0.3679
  180SOPE  C31420605   4.157   0.274   8.335  0.3711 -0.9508 -0.2263
  180SOPE  H14X20606   4.103   0.357   8.286  0.5607 -0.1779  0.8386
  180SOPE  H14Y20607   4.262   0.296   8.308  0.8391 -1.3611  1.1773
  180SOPE  C31520608   4.155   0.249   8.487 -0.2033 -0.2893 -0.0826
  180SOPE  H15X20609   4.226   0.165   8.507  0.6035  0.0253 -1.4863
  180SOPE  H15Y20610   4.061   0.197   8.514 -1.0861  0.7127 -1.1422
  180SOPE  C31620611   4.182   0.367   8.577  0.0459  0.3547 -0.5036
  180SOPE  H16X20612   4.269   0.424   8.539  0.5830 -0.8817 -1.1813
  180SOPE  H16Y20613   4.193   0.321   8.678  0.3565  0.4660 -0.4869
  180SOPE  C31720614   4.064   0.461   8.601  0.9897  0.6298 -0.4617
  180SOPE  H17X20615   3.970   0.411   8.632  1.9552  0.3299  2.2402
  180SOPE  H17Y20616   4.038   0.504   8.503 -2.4377  0.1935  0.1411
  180SOPE  C31820617   4.098   0.573   8.704 -0.1895 -0.6598  0.1332
  180SOPE  H18X20618   4.110   0.544   8.811 -0.3274 -0.7722  0.1180
  180SOPE  H18Y20619   4.017   0.649   8.700  0.7685  0.3659 -0.3219
  180SOPE  H18Z20620   4.188   0.631   8.675  0.1423 -0.4372  1.5472
  181SOPE     N20621   3.871   5.040   6.010 -0.5346 -0.6880  0.0598
  181SOPE   HN120622   3.805   4.964   6.037 -2.9554  1.5320  0.7696
  181SOPE   HN220623   3.844   5.068   5.913  2.9242  1.1777 -0.5596
  181SOPE   HN320624   3.967   5.002   5.995 -0.4419  0.2357 -2.1547
  181SOPE   C1220625   3.853   5.149   6.112 -0.7556 -0.0770  0.0849
  181SOPE  H12A20626   3.936   5.214   6.077  2.0628 -3.1866  0.4999
  181SOPE  H12B20627   3.884   5.106   6.210  0.3828 -2.4665 -1.2614
  181SOPE   C1120628   3.713   5.220   6.099 -0.0899 -0.2873  0.3733
  181SOPE  H11A20629   3.697   5.207   5.990  1.9493 -0.9862  0.1050
  181SOPE  H11B20630   3.715   5.328   6.124  0.7398 -0.4227  0.9322
  181SOPE     P20631   3.591   5.208   6.328 -0.2117 -0.2114 -0.3299
  181SOPE   O1320632   3.470   5.142   6.388  0.2056 -0.5488 -0.2094
  181SOPE   O1420633   3.603   5.351   6.333  0.0631 -0.0382  0.3589
  181SOPE   O1220634   3.619   5.157   6.186  0.3412 -0.0989 -0.1862
  181SOPE   O1120635   3.728   5.162   6.401  0.0304 -0.0622  0.5467
  181SOPE    C120636   3.725   5.033   6.458 -0.1430 -0.2398  0.2666
  181SOPE    HA20637   3.829   4.993   6.464  0.2645  0.7322 -0.0933
  181SOPE    HB20638   3.679   4.953   6.396  3.1744 -1.8362 -0.3643
  181SOPE    C220639   3.668   5.027   6.606  0.2131  0.1031  0.7117
  181SOPE    HS20640   3.564   5.067   6.593  0.3310  0.7034  1.5381
  181SOPE   O2120641   3.750   5.115   6.686 -0.3555 -0.8010 -0.5760
  181SOPE   C2120642   3.679   5.179   6.782  0.2114  0.1478 -0.2087
  181SOPE   O2220643   3.559   5.185   6.793  0.0849  0.1726 -0.7388
  181SOPE   C2220644   3.772   5.261   6.869  0.1185 -0.3732  0.3339
  181SOPE   H2R20645   3.787   5.355   6.811 -0.2080  0.3447  1.3994
  181SOPE   H2S20646   3.875   5.218   6.878  0.9410  1.2018 -1.0113
  181SOPE    C320647   3.662   4.876   6.661 -0.7116 -0.3367 -0.4536
  181SOPE    HX20648   3.764   4.832   6.648  0.0201  0.7689  1.1536
  181SOPE    HY20649   3.584   4.817   6.608 -1.0269  0.5768 -1.0235
  181SOPE   O3120650   3.647   4.870   6.811  0.2835  0.4178 -0.7852
  181SOPE   C3120651   3.535   4.818   6.857  0.4630  0.5079 -0.0322
  181SOPE   O3220652   3.440   4.775   6.792 -0.7514 -0.7232  0.1945
  181SOPE   C3220653   3.556   4.803   7.004  0.4444  0.3617 -0.3210
  181SOPE   H2X20654   3.639   4.871   7.034  0.9017 -0.8614  1.3623
  181SOPE   H2Y20655   3.576   4.696   7.024  0.4431  0.4817  0.3478
  181SOPE   C2320656   3.712   5.294   7.011  0.0653 -0.9054 -0.4083
  181SOPE   H3R20657   3.623   5.347   6.971  1.9173  1.0767 -2.0659
  181SOPE   H3S20658   3.784   5.353   7.070 -0.2269 -0.7232 -0.2301
  181SOPE   C2420659   3.673   5.170   7.097  0.2615 -0.0881  0.4462
  181SOPE   H4R20660   3.603   5.101   7.044 -0.9403 -0.1578  2.0587
  181SOPE   H4S20661   3.764   5.108   7.108  0.0018 -0.5738 -0.0561
  181SOPE   C2520662   3.611   5.210   7.227  0.0907 -0.0498  0.3086
  181SOPE   H5R20663   3.600   5.321   7.232  0.0236 -0.1037  2.2011
  181SOPE   H5S20664   3.508   5.170   7.229 -1.0028  2.5046 -0.9471
  181SOPE   C2620665   3.684   5.170   7.355 -0.3049  0.0707 -0.2571
  181SOPE   H6R20666   3.760   5.089   7.345  0.7374  0.2527  4.0692
  181SOPE   H6S20667   3.740   5.254   7.401  1.3767 -0.7852 -0.6660
  181SOPE   C2720668   3.578   5.113   7.451 -0.6665 -0.3532 -0.0604
  181SOPE   H7R20669   3.510   5.194   7.485  1.3424  2.4029 -2.1918
  181SOPE   H7S20670   3.513   5.035   7.405  0.5525 -1.6586  0.3748
  181SOPE   C2820671   3.636   5.038   7.576 -0.4190 -0.0901  0.1169
  181SOPE   H8R20672   3.687   4.947   7.538  0.8544  0.9286 -0.7243
  181SOPE   H8S20673   3.716   5.100   7.622  0.3904  0.3661 -1.8136
  181SOPE   C2920674   3.534   5.009   7.680 -0.0117 -0.6098  0.0661
  181SOPE   H9120675   3.430   5.017   7.646  0.4172 -0.1459 -1.2357
  181SOPE  C21020676   3.552   4.958   7.804  0.4728  0.2689 -0.1171
  181SOPE  H10120677   3.468   4.945   7.873  1.6390  0.8597  1.4877
  181SOPE  C21120678   3.692   4.923   7.861 -0.0772  0.2414  0.0762
  181SOPE  H11R20679   3.771   4.955   7.790 -0.4083 -1.2355 -1.0241
  181SOPE  H11S20680   3.717   4.815   7.864  3.5568  0.9611 -0.3958
  181SOPE  C21220681   3.720   4.996   7.991  0.1665 -0.7820 -0.1055
  181SOPE  H12R20682   3.681   5.100   7.983  0.5415 -0.3955  2.2333
  181SOPE  H12S20683   3.825   4.998   8.026  0.4735  0.2197 -1.0404
  181SOPE  C21320684   3.637   4.929   8.107  0.7958  0.7524  0.0985
  181SOPE  H13R20685   3.648   4.818   8.107 -0.9549  0.5601 -0.1138
  181SOPE  H13S20686   3.530   4.949   8.086  0.5846 -0.3203  0.0881
  181SOPE  C21420687   3.669   4.979   8.243  0.0089  0.7233 -0.8874
  181SOPE  H14R20688   3.671   5.090   8.236 -1.2762  0.6761 -2.6242
  181SOPE  H14S20689   3.771   4.945   8.272  0.0850  1.5941 -0.0877
  181SOPE  C21520690   3.562   4.943   8.345  0.3249 -0.5430 -0.4030
  181SOPE  H15R20691   3.552   4.832   8.345  0.8727 -0.5974 -0.8134
  181SOPE  H15S20692   3.463   4.976   8.309 -0.8186 -2.2116  1.0631
  181SOPE  C21620693   3.596   4.985   8.488 -0.7204  0.2647  0.2809
  181SOPE  H16R20694   3.513   4.968   8.559 -1.0073  1.6365  0.2983
  181SOPE  H16S20695   3.612   5.095   8.488 -0.7576  0.2949 -1.2306
  181SOPE  C21720696   3.703   4.895   8.556 -0.5976 -0.1470 -0.4404
  181SOPE  H17R20697   3.801   4.899   8.502 -1.0959  0.3919 -1.3320
  181SOPE  H17S20698   3.666   4.791   8.550  0.6432 -0.6418  0.0022
  181SOPE  C21820699   3.733   4.927   8.712  0.1836 -0.1893  0.5083
  181SOPE  H18R20700   3.634   4.921   8.762  0.7985 -0.5906  1.7137
  181SOPE  H18S20701   3.776   5.029   8.723  1.5012 -0.2944 -2.4793
  181SOPE  H18T20702   3.790   4.848   8.764 -3.0919 -1.0389  3.1559
  181SOPE   C3320703   3.438   4.827   7.099 -0.9260 -0.0387  0.2596
  181SOPE   H3X20704   3.353   4.763   7.066 -0.2442 -1.0982  0.5158
  181SOPE   H3Y20705   3.425   4.938   7.101 -0.3035  0.1185  4.7391
  181SOPE   C3420706   3.482   4.791   7.244  0.4707  0.3518 -0.4491
  181SOPE   H4X20707   3.562   4.862   7.272 -1.7483  4.5222 -3.5492
  181SOPE   H4Y20708   3.514   4.685   7.255  0.8965  0.6082  0.9233
  181SOPE   C3520709   3.370   4.813   7.357 -0.0421 -0.1127 -0.6065
  181SOPE   H5X20710   3.271   4.790   7.312 -1.0746  1.5085  0.7031
  181SOPE   H5Y20711   3.355   4.922   7.373  0.7056 -0.2246  1.0962
  181SOPE   C3620712   3.404   4.740   7.482 -0.1872  0.0372  0.0783
  181SOPE   H6X20713   3.479   4.793   7.544  2.2315 -2.1316 -0.7875
  181SOPE   H6Y20714   3.452   4.643   7.456 -0.9628 -0.1334 -0.7845
  181SOPE   C3720715   3.280   4.729   7.575 -0.0878  0.6305 -0.3249
  181SOPE   H7X20716   3.207   4.680   7.507 -1.3585  2.9125 -0.7233
  181SOPE   H7Y20717   3.236   4.826   7.607  0.6417  0.8152  0.1414
  181SOPE   C3820718   3.323   4.648   7.698  0.6072  0.3316  0.6704
  181SOPE   H8X20719   3.419   4.686   7.741  0.5621  0.1676  0.9223
  181SOPE   H8Y20720   3.335   4.547   7.654 -0.3888  1.0135 -1.2645
  181SOPE   C3920721   3.216   4.645   7.810  0.1058  0.5358 -0.0579
  181SOPE   H9X20722   3.130   4.607   7.752  0.7521 -0.6068 -0.2990
  181SOPE   H9Y20723   3.189   4.752   7.824 -2.8798  0.0062 -1.1888
  181SOPE  C31020724   3.263   4.577   7.940  0.4154  0.0301 -0.0708
  181SOPE  H10X20725   3.274   4.468   7.926  0.6514  0.0217  0.1695
  181SOPE  H10Y20726   3.186   4.579   8.020  0.5542  1.2718  0.0624
  181SOPE  C31120727   3.390   4.638   7.997 -0.5507  0.2186  0.4669
  181SOPE  H11X20728   3.400   4.742   7.959 -0.3704 -0.3907 -1.2281
  181SOPE  H11Y20729   3.478   4.582   7.961 -0.6823 -2.0005  3.2619
  181SOPE  C31220730   3.392   4.642   8.154  0.2467 -0.8932 -0.1315
  181SOPE  H12X20731   3.307   4.704   8.190 -0.9339 -2.9335  0.7118
  181SOPE  H12Y20732   3.489   4.690   8.181 -0.8675  0.3095  2.0345
  181SOPE  C31320733   3.383   4.500   8.216 -0.3820  0.6224 -0.0498
  181SOPE  H13X20734   3.460   4.441   8.161 -2.0316  0.8212 -2.7509
  181SOPE  H13Y20735   3.283   4.456   8.203  0.6053 -1.6794 -0.2614
  181SOPE  C31420736   3.427   4.498   8.365  0.2487 -0.5274  0.1191
  181SOPE  H14X20737   3.347   4.554   8.418  1.6710  1.2578  0.4574
  181SOPE  H14Y20738   3.519   4.556   8.384  0.5600 -0.7427 -0.6984
  181SOPE  C31520739   3.437   4.358   8.419 -0.8077  0.8251 -0.0672
  181SOPE  H15X20740   3.352   4.295   8.385 -0.1161 -0.5690  0.6690
  181SOPE  H15Y20741   3.426   4.377   8.527 -1.6373 -0.0923  0.0202
  181SOPE  C31620742   3.567   4.285   8.375  0.0730 -0.3111  0.2214
  181SOPE  H16X20743   3.648   4.361   8.382  1.0673 -1.3011 -0.3627
  181SOPE  H16Y20744   3.555   4.270   8.266 -1.0114  0.6850  0.1781
  181SOPE  C31720745   3.598   4.154   8.444  0.1352 -0.1785  0.2271
  181SOPE  H17X20746   3.518   4.080   8.424  1.5621 -1.6336 -0.2623
  181SOPE  H17Y20747   3.606   4.157   8.555 -1.1635 -1.1805  0.3716
  181SOPE  C31820748   3.729   4.084   8.391  0.1115  0.9107 -0.2866
  181SOPE  H18X20749   3.769   4.001   8.454  2.1810 -0.7018 -3.4138
  181SOPE  H18Y20750   3.807   4.160   8.368 -0.7281  1.5472 -1.1372
  181SOPE  H18Z20751   3.712   4.040   8.290  2.3867 -0.3717 -0.1864
  182SOPE     N20752   3.462   1.220   6.742 -0.4412 -0.2665  0.0684
  182SOPE   HN120753   3.475   1.293   6.669  2.8504 -2.6956 -2.0651
  182SOPE   HN220754   3.405   1.266   6.815  1.7591  1.0396  1.0516
  182SOPE   HN320755   3.557   1.201   6.780  1.4453  1.5432 -3.2197
  182SOPE   C1220756   3.416   1.102   6.660 -0.0865  0.0148  0.4561
  182SOPE  H12A20757   3.322   1.142   6.618  1.2528 -0.1891 -3.0171
  182SOPE  H12B20758   3.387   1.019   6.728 -1.3728 -0.1653 -0.2852
  182SOPE   C1120759   3.522   1.073   6.551  0.0154 -0.5907 -1.1481
  182SOPE  H11A20760   3.598   1.013   6.605 -1.3031  0.8504  2.6656
  182SOPE  H11B20761   3.567   1.162   6.502  1.6640 -1.9663 -2.2639
  182SOPE     P20762   3.423   0.839   6.454 -0.1950 -0.1941 -0.1319
  182SOPE   O1320763   3.416   0.803   6.311  0.3580 -0.0127 -0.3100
  182SOPE   O1420764   3.306   0.803   6.538  0.8267 -0.0620 -0.1546
  182SOPE   O1220765   3.450   0.997   6.460 -0.2344 -0.1946  0.0566
  182SOPE   O1120766   3.549   0.780   6.520 -0.2894 -0.0215  0.1077
  182SOPE    C120767   3.534   0.672   6.614 -0.4851 -0.7567  0.0082
  182SOPE    HA20768   3.631   0.618   6.625 -0.0132  0.2106  0.8487
  182SOPE    HB20769   3.452   0.605   6.583 -1.0497 -0.3568  0.6061
  182SOPE    C220770   3.493   0.721   6.765 -0.1458  0.9020 -0.8182
  182SOPE    HS20771   3.400   0.780   6.751 -0.7851 -0.4576 -2.8335
  182SOPE   O2120772   3.604   0.802   6.814  0.0132 -0.4831 -0.1687
  182SOPE   C2120773   3.583   0.872   6.927  0.0965  0.3168 -0.8177
  182SOPE   O2220774   3.477   0.907   6.964  0.4039  0.3374  0.0806
  182SOPE   C2220775   3.725   0.883   6.992 -0.2558  0.0291  0.0655
  182SOPE   H2R20776   3.791   0.948   6.930  0.9224 -0.8969  0.3175
  182SOPE   H2S20777   3.770   0.784   6.970 -1.3137  0.0005 -2.2588
  182SOPE    C320778   3.474   0.598   6.857 -0.8141 -0.0172 -0.0731
  182SOPE    HX20779   3.568   0.539   6.850 -0.0717  0.8352  1.9758
  182SOPE    HY20780   3.389   0.541   6.813 -1.5254  0.3498  0.7718
  182SOPE   O3120781   3.436   0.624   6.993 -0.6507  0.5729  0.0648
  182SOPE   C3120782   3.306   0.645   7.022  0.1733  0.2679  0.5378
  182SOPE   O3220783   3.217   0.664   6.940  0.4901  0.4005  0.0438
  182SOPE   C3220784   3.289   0.645   7.177 -0.0311 -0.0322 -0.2826
  182SOPE   H2X20785   3.386   0.661   7.228  2.4395 -2.5837 -3.7488
  182SOPE   H2Y20786   3.252   0.545   7.208  0.3579 -0.5670 -1.5137
  182SOPE   C2320787   3.713   0.931   7.133  0.3495 -0.5530 -0.3445
  182SOPE   H3R20788   3.645   1.018   7.145 -1.4738 -2.1831  2.0985
  182SOPE   H3S20789   3.815   0.970   7.152 -0.6352  2.5863 -0.8610
  182SOPE   C2420790   3.690   0.819   7.228  0.3558  0.1495 -0.4280
  182SOPE   H4R20791   3.589   0.783   7.197 -0.8247  0.8985  2.3085
  182SOPE   H4S20792   3.766   0.740   7.210 -0.4879 -0.5643 -0.9760
  182SOPE   C2520793   3.688   0.853   7.380 -0.5153 -0.4697  0.4418
  182SOPE   H5R20794   3.787   0.896   7.406 -0.3468 -1.5522  1.7174
  182SOPE   H5S20795   3.605   0.923   7.402 -0.3301  0.7812 -2.3964
  182SOPE   C2620796   3.674   0.738   7.477  0.6165  0.0514 -0.2648
  182SOPE   H6R20797   3.592   0.677   7.434 -0.4372  1.7273 -0.7570
  182SOPE   H6S20798   3.760   0.669   7.478  0.2971 -0.3582  1.0010
  182SOPE   C2720799   3.657   0.773   7.625  0.1001 -0.3766 -0.5295
  182SOPE   H7R20800   3.568   0.839   7.623  0.1754 -0.1947  0.8457
  182SOPE   H7S20801   3.637   0.684   7.688 -0.7694  0.5883  0.6086
  182SOPE   C2820802   3.783   0.837   7.693 -0.5039 -0.1037  0.6071
  182SOPE   H8R20803   3.868   0.767   7.709 -0.1350 -0.7603 -3.2800
  182SOPE   H8S20804   3.822   0.911   7.620  1.7394  0.8916  2.6726
  182SOPE   C2920805   3.732   0.926   7.805 -0.0825 -0.0332 -0.3766
  182SOPE   H9120806   3.681   1.017   7.773 -0.8317 -0.7986 -1.4049
  182SOPE  C21020807   3.746   0.908   7.935 -0.2706  0.0878 -0.0015
  182SOPE  H10120808   3.707   0.991   7.996 -0.5867 -0.7522  0.9437
  182SOPE  C21120809   3.821   0.796   8.005 -0.7268 -0.1858 -0.1439
  182SOPE  H11R20810   3.909   0.830   8.063 -0.3307  0.3204 -1.0132
  182SOPE  H11S20811   3.851   0.711   7.939  1.9248  0.7722 -0.3192
  182SOPE  C21220812   3.720   0.740   8.109 -0.5511 -0.0581  0.9329
  182SOPE  H12R20813   3.629   0.711   8.053 -1.0486 -2.4705  2.8176
  182SOPE  H12S20814   3.683   0.823   8.172 -1.4179 -0.0372  0.4208
  182SOPE  C21320815   3.764   0.617   8.190  0.3172  0.8740  0.6265
  182SOPE  H13R20816   3.845   0.654   8.257  1.2469  1.5708 -0.8256
  182SOPE  H13S20817   3.808   0.544   8.119 -0.1429  1.4083 -0.2218
  182SOPE  C21420818   3.649   0.549   8.279 -0.7585 -0.2122  0.0271
  182SOPE  H14R20819   3.570   0.514   8.210  1.2261 -1.9728 -1.5227
  182SOPE  H14S20820   3.607   0.632   8.339  0.6304 -1.0757  2.3093
  182SOPE  C21520821   3.706   0.442   8.376 -0.1509  0.0568  0.1171
  182SOPE  H15R20822   3.779   0.498   8.438 -0.5174  2.2789 -1.3482
  182SOPE  H15S20823   3.762   0.369   8.313  0.1601  0.1731  0.2562
  182SOPE  C21620824   3.608   0.364   8.462  0.4028 -0.0920 -0.5401
  182SOPE  H16R20825   3.533   0.314   8.396  0.2762 -1.9564  0.9201
  182SOPE  H16S20826   3.541   0.437   8.512 -1.8154 -1.5796 -1.1341
  182SOPE  C21720827   3.663   0.263   8.559 -0.0675 -0.4488  0.0914
  182SOPE  H17R20828   3.744   0.319   8.609 -1.1850  0.8977  0.4634
  182SOPE  H17S20829   3.731   0.184   8.522  1.1830 -0.6178  2.5398
  182SOPE  C21820830   3.565   0.205   8.670  0.4359 -0.6192  0.4969
  182SOPE  H18R20831   3.513   0.290   8.719 -2.1919 -1.1528 -1.1099
  182SOPE  H18S20832   3.611   0.140   8.747  0.3079 -0.6177  0.5753
  182SOPE  H18T20833   3.476   0.154   8.625 -0.4990  2.4407 -1.4367
  182SOPE   C3320834   3.180   0.747   7.217  0.1723  0.1019 -0.4216
  182SOPE   H3X20835   3.088   0.725   7.159  0.9277 -0.5754 -1.3803
  182SOPE   H3Y20836   3.200   0.854   7.193 -1.0038  0.0041 -2.0457
  182SOPE   C3420837   3.132   0.732   7.361  0.0045 -0.4758  0.2005
  182SOPE   H4X20838   3.111   0.627   7.390 -3.8112 -0.0130 -0.3065
  182SOPE   H4Y20839   3.031   0.778   7.366 -0.1930 -1.0175  2.7210
  182SOPE   C3520840   3.228   0.796   7.459  0.3951 -0.0717  0.0209
  182SOPE   H5X20841   3.244   0.897   7.414 -0.6414 -0.1181 -0.4770
  182SOPE   H5Y20842   3.320   0.734   7.463 -0.4494 -1.3932 -0.6048
  182SOPE   C3620843   3.166   0.818   7.602  0.4074 -0.1314 -0.2011
  182SOPE   H6X20844   3.124   0.724   7.644 -1.8772  1.3015  0.8920
  182SOPE   H6Y20845   3.071   0.876   7.603  0.0962 -0.6322  0.5060
  182SOPE   C3720846   3.273   0.875   7.701  0.2254 -0.0956 -0.0193
  182SOPE   H7X20847   3.314   0.969   7.659  1.5284 -1.0464 -0.9441
  182SOPE   H7Y20848   3.362   0.809   7.707 -0.0752 -0.4137  1.1066
  182SOPE   C3820849   3.217   0.907   7.838  0.2069 -0.1060  0.0639
  182SOPE   H8X20850   3.161   0.813   7.859  2.9865 -1.9578 -0.2682
  182SOPE   H8Y20851   3.145   0.991   7.831 -1.8002 -1.6307  1.1126
  182SOPE   C3920852   3.332   0.936   7.936  0.0484 -0.0025 -0.0024
  182SOPE   H9X20853   3.400   1.013   7.894 -0.3127  0.9091  1.0444
  182SOPE   H9Y20854   3.387   0.839   7.943 -2.3911 -1.4921 -0.2430
  182SOPE  C31020855   3.288   0.979   8.074 -0.4959 -0.3208 -0.2758
  182SOPE  H10X20856   3.244   0.883   8.110 -0.1030 -0.0639  0.9064
  182SOPE  H10Y20857   3.219   1.066   8.074  0.4341  0.4520  1.1569
  182SOPE  C31120858   3.416   1.016   8.153  0.2093  0.0971 -0.0091
  182SOPE  H11X20859   3.445   1.119   8.122 -2.6628  0.9945  0.0147
  182SOPE  H11Y20860   3.491   0.948   8.107  0.6909 -0.2470  1.2537
  182SOPE  C31220861   3.411   1.006   8.302 -1.0382  0.3161 -0.1673
  182SOPE  H12X20862   3.505   0.973   8.352  0.5170  1.3208 -2.2995
  182SOPE  H12Y20863   3.331   0.935   8.334  1.9431 -3.1253  0.3913
  182SOPE  C31320864   3.379   1.143   8.357 -0.6761 -0.3528 -0.3378
  182SOPE  H13X20865   3.275   1.165   8.325 -0.2737  0.3312 -1.2265
  182SOPE  H13Y20866   3.447   1.222   8.316 -2.0998  0.3848 -1.3916
  182SOPE  C31420867   3.396   1.157   8.508  0.3747 -1.1834  0.2566
  182SOPE  H14X20868   3.353   1.251   8.549  3.1216  0.4529 -0.3726
  182SOPE  H14Y20869   3.503   1.173   8.533  0.2332  3.7240 -1.2662
  182SOPE  C31520870   3.338   1.033   8.586 -0.0024  0.5805 -0.0672
  182SOPE  H15X20871   3.411   0.950   8.575  0.3453  0.9253 -0.3368
  182SOPE  H15Y20872   3.238   1.008   8.543 -0.4454  2.0543  0.0493
  182SOPE  C31620873   3.314   1.063   8.735 -0.0817 -0.4105 -0.0069
  182SOPE  H16X20874   3.240   1.145   8.742 -0.3252 -0.5452 -0.8645
  182SOPE  H16Y20875   3.409   1.081   8.789  0.5440 -1.3777 -0.7452
  182SOPE  C31720876   3.243   0.936   8.801 -0.4788  0.1701  0.6075
  182SOPE  H17X20877   3.325   0.862   8.811  0.3135  0.8743 -0.4402
  182SOPE  H17Y20878   3.175   0.900   8.722  0.7133 -0.6628 -0.0805
  182SOPE  C31820879   3.177   0.956   8.944 -0.6449 -0.0177  0.3031
  182SOPE  H18X20880   3.175   1.065   8.966  0.1273 -0.3593  2.2930
  182SOPE  H18Y20881   3.251   0.927   9.021  0.8058  1.8928 -0.2954
  182SOPE  H18Z20882   3.080   0.905   8.962 -0.0276 -1.0745  0.7268
  183SOPE     N20883   0.354   2.703   6.282  0.5045  0.0685  0.0705
  183SOPE   HN120884   0.323   2.761   6.362  2.5687  0.8002  0.4013
  183SOPE   HN220885   0.458   2.705   6.287  0.6760  1.0379 -2.5005
  183SOPE   HN320886   0.332   2.747   6.191 -2.6997  0.0823  0.7589
  183SOPE   C1220887   0.302   2.564   6.294  0.5477 -0.0035  0.6195
  183SOPE  H12A20888   0.367   2.499   6.231  0.2989  1.3120 -1.0649
  183SOPE  H12B20889   0.202   2.549   6.249  0.6923  0.1541  0.2399
  183SOPE   C1120890   0.300   2.511   6.435  0.1562 -0.2691 -0.1090
  183SOPE  H11A20891   0.281   2.402   6.442 -2.2699  0.0441 -0.7510
  183SOPE  H11B20892   0.218   2.561   6.491  0.0115 -0.2290 -0.3561
  183SOPE     P20893   0.544   2.480   6.526 -0.6836 -0.0053  0.4645
  183SOPE   O1320894   0.625   2.566   6.623  0.2133  0.8079  0.6532
  183SOPE   O1420895   0.612   2.456   6.400 -0.1843  0.6999  0.1308
  183SOPE   O1220896   0.413   2.561   6.502  0.0322 -0.0016 -0.4109
  183SOPE   O1120897   0.495   2.343   6.594  0.2341  0.6991 -0.0625
  183SOPE    C120898   0.401   2.362   6.706 -0.4494  0.3446  0.4520
  183SOPE    HA20899   0.327   2.281   6.691  1.9197 -2.2848  1.8967
  183SOPE    HB20900   0.350   2.460   6.716 -0.2671  0.3688  1.2152
  183SOPE    C220901   0.480   2.320   6.831 -0.1336 -0.0401  0.3908
  183SOPE    HS20902   0.409   2.312   6.916  1.8875 -1.2441  2.0459
  183SOPE   O2120903   0.582   2.421   6.863  0.3627  0.2073  0.5775
  183SOPE   C2120904   0.534   2.525   6.928  0.0666 -0.9436  0.2836
  183SOPE   O2220905   0.422   2.540   6.974  0.4135  0.4643 -0.1985
  183SOPE   C2220906   0.642   2.633   6.943  0.2101  0.0684  0.6613
  183SOPE   H2R20907   0.668   2.672   6.843  1.3276  2.0303  1.6574
  183SOPE   H2S20908   0.734   2.589   6.989  0.2837 -2.8621 -1.9725
  183SOPE    C320909   0.548   2.179   6.813 -0.7809  0.2707 -0.5111
  183SOPE    HX20910   0.617   2.169   6.727  0.1220 -1.3207  0.3616
  183SOPE    HY20911   0.470   2.104   6.787  1.9708 -2.8401 -0.3075
  183SOPE   O3120912   0.604   2.128   6.935 -0.3920 -0.1500  0.2746
  183SOPE   C3120913   0.736   2.139   6.943  0.2922  0.0133  0.2597
  183SOPE   O3220914   0.807   2.160   6.847  0.3004  0.1921 -0.5477
  183SOPE   C3220915   0.786   2.104   7.087  0.5842  0.2642  1.0501
  183SOPE   H2X20916   0.893   2.076   7.081  0.2211 -0.8688 -2.4189
  183SOPE   H2Y20917   0.742   2.007   7.119 -0.5004  0.9237  1.5952
  183SOPE   C2320918   0.582   2.754   7.017 -0.0670 -0.3137 -0.1591
  183SOPE   H3R20919   0.486   2.771   6.963 -0.5988 -4.6509 -0.9704
  183SOPE   H3S20920   0.643   2.843   6.990 -0.4117 -0.4815 -1.5889
  183SOPE   C2420921   0.562   2.743   7.169  0.0847  0.4764 -0.9217
  183SOPE   H4R20922   0.509   2.832   7.208 -0.5645 -0.6897  1.0088
  183SOPE   H4S20923   0.502   2.656   7.204 -0.8972  1.3359 -0.4368
  183SOPE   C2520924   0.701   2.745   7.232  1.3581  0.1860 -0.7493
  183SOPE   H5R20925   0.744   2.643   7.227 -1.1718 -1.0050  0.1440
  183SOPE   H5S20926   0.764   2.820   7.181  1.2748  1.7948  1.3662
  183SOPE   C2620927   0.697   2.783   7.382  0.2867  0.4905 -0.1748
  183SOPE   H6R20928   0.793   2.793   7.436 -0.3178 -0.1628  1.0503
  183SOPE   H6S20929   0.659   2.888   7.381 -0.4278  0.2340 -1.0441
  183SOPE   C2720930   0.601   2.701   7.476  0.6648  0.2764  0.9159
  183SOPE   H7R20931   0.594   2.755   7.572 -1.7107 -0.3947  1.2079
  183SOPE   H7S20932   0.500   2.680   7.434  1.6616  0.6207 -1.8647
  183SOPE   C2820933   0.647   2.546   7.502 -0.9726  0.6779  0.0225
  183SOPE   H8R20934   0.581   2.523   7.589  0.9396  0.1558  1.4196
  183SOPE   H8S20935   0.628   2.486   7.410  0.3713 -0.5182  0.4737
  183SOPE   C2920936   0.794   2.523   7.543 -0.3709 -0.6126 -0.2902
  183SOPE   H9120937   0.865   2.519   7.459  1.3922 -0.1383  1.1122
  183SOPE  C21020938   0.843   2.517   7.664 -0.0956 -0.1272 -0.1320
  183SOPE  H10120939   0.952   2.509   7.679  0.2281  3.5186  0.2966
  183SOPE  C21120940   0.765   2.533   7.788  0.4903 -0.6217  0.5041
  183SOPE  H11R20941   0.739   2.431   7.823 -0.0316 -0.9234 -0.7037
  183SOPE  H11S20942   0.666   2.581   7.777 -0.2099 -1.4818  2.6068
  183SOPE  C21220943   0.835   2.623   7.897 -0.0825 -0.3406  0.6172
  183SOPE  H12R20944   0.848   2.724   7.852  0.4551  0.7032  2.9509
  183SOPE  H12S20945   0.934   2.584   7.928 -1.3720 -3.3460  1.3128
  183SOPE  C21320946   0.754   2.651   8.019 -0.9120 -0.1764 -0.1790
  183SOPE  H13R20947   0.653   2.681   7.982 -0.7134 -1.0256 -1.4857
  183SOPE  H13S20948   0.805   2.737   8.067 -0.3193 -1.4829  1.6767
  183SOPE  C21420949   0.746   2.532   8.122 -0.0511 -0.1201 -0.0324
  183SOPE  H14R20950   0.846   2.493   8.153 -0.2917  0.0476  1.0092
  183SOPE  H14S20951   0.690   2.450   8.071  0.7662 -1.1191  0.6287
  183SOPE  C21520952   0.659   2.582   8.247  0.3685 -0.4657  0.0022
  183SOPE  H15R20953   0.558   2.603   8.208  0.7851 -2.3763 -2.3547
  183SOPE  H15S20954   0.708   2.672   8.291  0.9258 -0.3772 -0.7658
  183SOPE  C21620955   0.641   2.479   8.365 -0.1076 -0.3466  0.7331
  183SOPE  H16R20956   0.741   2.430   8.366  0.4753  0.8292  1.7473
  183SOPE  H16S20957   0.559   2.404   8.354  0.0409 -0.5754  1.1554
  183SOPE  C21720958   0.630   2.554   8.499  0.2908 -0.1665  0.3102
  183SOPE  H17R20959   0.545   2.625   8.496  0.0886 -0.3778  0.7716
  183SOPE  H17S20960   0.714   2.626   8.509 -1.1702  1.8225 -1.0565
  183SOPE  C21820961   0.620   2.465   8.620  0.6473  0.1649  0.4010
  183SOPE  H18R20962   0.520   2.416   8.622 -0.8093  2.5524 -3.3811
  183SOPE  H18S20963   0.621   2.533   8.708 -2.5064 -0.5700  1.1505
  183SOPE  H18T20964   0.702   2.390   8.626 -0.1458 -0.6681  1.2273
  183SOPE   C3320965   0.762   2.219   7.188  0.1911 -0.0947  0.5491
  183SOPE   H3X20966   0.655   2.230   7.216 -0.0790 -0.7285 -0.1983
  183SOPE   H3Y20967   0.788   2.319   7.149 -0.2509 -0.1859 -0.0030
  183SOPE   C3420968   0.856   2.204   7.311  0.0523 -0.1114  0.0539
  183SOPE   H4X20969   0.876   2.304   7.354  0.8323 -0.8560  1.4968
  183SOPE   H4Y20970   0.952   2.169   7.269 -0.5585 -2.3041  0.3214
  183SOPE   C3520971   0.807   2.105   7.411  0.3102  0.1506 -0.6089
  183SOPE   H5X20972   0.891   2.061   7.470 -2.2954 -2.8217  1.1940
  183SOPE   H5Y20973   0.758   2.017   7.364 -0.4906  1.3919 -2.1873
  183SOPE   C3620974   0.724   2.154   7.534  0.0871  0.0199 -0.5863
  183SOPE   H6X20975   0.627   2.191   7.496  0.7706  1.7341 -0.7641
  183SOPE   H6Y20976   0.774   2.241   7.583  0.0501 -0.9554  1.2506
  183SOPE   C3720977   0.695   2.055   7.651  1.0470  0.3468  0.7183
  183SOPE   H7X20978   0.772   1.975   7.641 -1.1004 -1.7973  0.3591
  183SOPE   H7Y20979   0.599   1.999   7.656  0.6157  0.9965 -0.0903
  183SOPE   C3820980   0.708   2.131   7.789 -0.0824  0.3233  0.0135
  183SOPE   H8X20981   0.623   2.202   7.798  0.4787  0.9320  0.6389
  183SOPE   H8Y20982   0.799   2.194   7.798 -0.9234  1.5572  0.1208
  183SOPE   C3920983   0.700   2.037   7.908 -0.3502  0.7125  0.2606
  183SOPE   H9X20984   0.796   1.983   7.920  0.6299  2.3227 -0.0349
  183SOPE   H9Y20985   0.611   1.971   7.897 -2.3716  3.4814 -1.2923
  183SOPE  C31020986   0.665   2.111   8.042 -0.2404  0.2425 -0.0668
  183SOPE  H10X20987   0.567   2.161   8.029 -0.4376 -0.0326  0.3586
  183SOPE  H10Y20988   0.738   2.192   8.062 -1.6356  1.3525  0.7144
  183SOPE  C31120989   0.663   2.011   8.162 -0.2075 -0.8824  0.6696
  183SOPE  H11X20990   0.764   1.968   8.179 -0.3977 -1.1523  1.1188
  183SOPE  H11Y20991   0.598   1.928   8.129 -1.5999  0.8173 -1.0867
  183SOPE  C31220992   0.623   2.083   8.295 -0.6519  0.1229  0.0022
  183SOPE  H12X20993   0.514   2.079   8.311 -0.5438  0.1646  0.7720
  183SOPE  H12Y20994   0.669   2.184   8.301  0.8545 -0.6075  1.9163
  183SOPE  C31320995   0.686   2.011   8.421 -0.0701  0.7781  0.0978
  183SOPE  H13X20996   0.796   1.998   8.418 -0.2099 -0.2891 -1.1870
  183SOPE  H13Y20997   0.650   1.906   8.435 -3.0977  1.7157 -0.0131
  183SOPE  C31420998   0.661   2.086   8.550 -0.0889 -0.2339  0.1762
  183SOPE  H14X20999   0.698   2.189   8.529 -1.8762  0.1506 -1.3794
  183SOPE  H14Y21000   0.714   2.043   8.637  0.3850 -0.1509 -0.0653
  183SOPE  C31521001   0.514   2.095   8.588 -0.3167 -0.1583 -0.5879
  183SOPE  H15X21002   0.448   2.009   8.561 -1.1863 -0.0733  1.1360
  183SOPE  H15Y21003   0.471   2.187   8.545 -1.2229  0.6849  1.9087
  183SOPE  C31621004   0.499   2.100   8.739 -0.0716  0.2797  0.1311
  183SOPE  H16X21005   0.559   2.180   8.787  0.8110 -0.2673 -0.0306
  183SOPE  H16Y21006   0.531   2.000   8.776  1.2794  0.4834 -0.4212
  183SOPE  C31721007   0.351   2.142   8.762  0.2298 -0.1176  0.1378
  183SOPE  H17X21008   0.287   2.057   8.730 -0.5292 -0.7632  3.0641
  183SOPE  H17Y21009   0.330   2.235   8.704  1.5077 -0.3920 -0.7998
  183SOPE  C31821010   0.319   2.149   8.916 -0.0185 -0.2812 -0.3549
  183SOPE  H18X21011   0.323   2.043   8.950 -3.8350 -1.0151 -1.7351
  183SOPE  H18Y21012   0.214   2.186   8.921  0.2600  0.4242  0.4809
  183SOPE  H18Z21013   0.393   2.202   8.979 -2.3240  0.7354  1.6688
  184SOPE     N21014   6.541   3.935   6.254 -0.5509  0.9822  0.4266
  184SOPE   HN121015   6.509   3.945   6.352 -0.5571  1.5869  0.3669
  184SOPE   HN221016   6.553   4.035   6.228  0.7677  1.3784  2.3886
  184SOPE   HN321017   6.465   3.898   6.193  0.2279 -0.0733  0.0734
  184SOPE   C1221018   6.666   3.842   6.247  0.3180 -0.4011 -0.5030
  184SOPE  H12A21019   6.701   3.837   6.142  0.4927 -0.4240 -0.4440
  184SOPE  H12B21020   6.632   3.742   6.282 -0.0070 -0.2670 -0.4345
  184SOPE   C1121021   6.774   3.898   6.349 -0.2769 -0.1517 -0.5036
  184SOPE  H11A21022   6.869   3.844   6.327 -0.6832 -1.8696  1.6296
  184SOPE  H11B21023   6.756   3.870   6.455  0.8839 -0.2313 -0.3131
  184SOPE     P21024   6.883   4.135   6.391  0.2215  0.1973  0.1908
  184SOPE   O1321025   6.822   4.265   6.431 -0.3557  0.6621 -0.3571
  184SOPE   O1421026   6.990   4.146   6.289 -0.2432 -0.6505  0.0450
  184SOPE   O1221027   6.771   4.042   6.342  0.2283 -0.0029  0.8924
  184SOPE   O1121028   6.932   4.054   6.513 -0.6953 -0.1284 -0.1995
  184SOPE    C121029   6.868   4.044   6.639 -0.3369  0.0140 -0.1945
  184SOPE    HA21030   6.831   3.942   6.662 -2.2210  1.1057  2.1049
  184SOPE    HB21031   6.780   4.111   6.652 -1.1659 -1.1068  0.1488
  184SOPE    C221032   6.982   4.068   6.750 -0.0651 -0.0706 -0.0413
  184SOPE    HS21033   7.069   4.107   6.693 -0.3174 -1.6864 -1.6158
  184SOPE   O2121034   7.018   3.943   6.804  0.0610  0.3978  0.4139
  184SOPE   C2121035   7.133   3.939   6.863  0.1773  0.2296 -1.0362
  184SOPE   O2221036   7.213   4.028   6.868  0.1528 -0.4868  0.0775
  184SOPE   C2221037   7.153   3.806   6.935  0.4848  0.4189 -0.2131
  184SOPE   H2R21038   7.160   3.726   6.859 -0.2088 -0.2192  0.3673
  184SOPE   H2S21039   7.064   3.771   6.991  0.2445  3.6557  1.6853
  184SOPE    C321040   6.946   4.180   6.862 -0.0680  0.5583 -0.4457
  184SOPE    HX21041   6.924   4.280   6.818 -2.4405  0.3630  0.1253
  184SOPE    HY21042   7.038   4.206   6.919 -0.0305  0.6558 -0.5519
  184SOPE   O3121043   6.837   4.128   6.942 -0.6084 -0.8016  0.0014
  184SOPE   C3121044   6.861   4.149   7.071  0.2655  0.6959  0.1700
  184SOPE   O3221045   6.954   4.201   7.128 -0.6670  0.0808  0.6564
  184SOPE   C3221046   6.743   4.085   7.152 -0.5959  0.0919  0.5714
  184SOPE   H2X21047   6.742   3.979   7.120  2.6120  0.1164  0.0773
  184SOPE   H2Y21048   6.645   4.125   7.117  0.7257  1.4085 -1.8613
  184SOPE   C2321049   7.271   3.804   7.037  0.0439 -0.3421 -0.1215
  184SOPE   H3R21050   7.351   3.863   6.988  0.5315 -2.0850 -1.5221
  184SOPE   H3S21051   7.311   3.701   7.047  2.3329  0.6823  2.2382
  184SOPE   C2421052   7.233   3.847   7.173  0.6769 -0.2373 -0.0843
  184SOPE   H4R21053   7.126   3.829   7.195  0.6731 -0.0606  0.0415
  184SOPE   H4S21054   7.279   3.785   7.253  1.2943 -0.8308 -0.8799
  184SOPE   C2521055   7.268   3.995   7.192  0.3540 -0.0735 -0.3852
  184SOPE   H5R21056   7.378   4.006   7.191  0.4125 -0.3824 -2.2987
  184SOPE   H5S21057   7.236   4.049   7.100  0.4401 -0.6297 -0.7497
  184SOPE   C2621058   7.209   4.066   7.315  0.3806  0.3932  0.0964
  184SOPE   H6R21059   7.209   4.177   7.320  0.8096  0.3442  1.5637
  184SOPE   H6S21060   7.101   4.051   7.337  0.7964 -0.9629  1.4206
  184SOPE   C2721061   7.288   4.014   7.434  0.1212  0.8573 -0.4061
  184SOPE   H7R21062   7.267   3.907   7.455  0.8354  0.7799 -0.0460
  184SOPE   H7S21063   7.397   4.036   7.432  1.4398 -4.1143  1.7383
  184SOPE   C2821064   7.236   4.080   7.566  0.1128  0.3573  0.8127
  184SOPE   H8R21065   7.311   4.066   7.647  2.2717 -1.0488 -1.2749
  184SOPE   H8S21066   7.224   4.188   7.542 -1.3471  0.3360  1.3380
  184SOPE   C2921067   7.103   4.033   7.606 -0.0302  0.1361  0.0863
  184SOPE   H9121068   7.083   3.925   7.601  1.3129 -0.0890 -1.4749
  184SOPE  C21021069   7.011   4.114   7.657  0.2321 -0.2096 -0.4612
  184SOPE  H10121070   6.918   4.076   7.703  1.0569 -0.1291  1.3881
  184SOPE  C21121071   7.018   4.261   7.676 -0.3934  0.5264 -0.0430
  184SOPE  H11R21072   7.008   4.317   7.581  0.3717  0.6534 -0.0551
  184SOPE  H11S21073   7.122   4.288   7.704 -0.3255  1.5133 -1.1552
  184SOPE  C21221074   6.927   4.312   7.785  0.0701  0.2975  0.0288
  184SOPE  H12R21075   6.819   4.301   7.760  0.4675  2.1675 -2.9991
  184SOPE  H12S21076   6.949   4.418   7.808  0.2291  0.8092 -2.2217
  184SOPE  C21321077   6.952   4.239   7.911 -0.9601 -0.3441  0.1436
  184SOPE  H13R21078   7.062   4.240   7.928 -0.6163  2.2697 -1.6888
  184SOPE  H13S21079   6.920   4.133   7.915 -0.3255 -0.7053 -2.5048
  184SOPE  C21421080   6.906   4.315   8.035 -0.0067  0.1504 -0.6895
  184SOPE  H14R21081   6.796   4.320   8.049  0.0914  1.2351 -0.2225
  184SOPE  H14S21082   6.950   4.417   8.044  0.2504 -0.0371  0.2104
  184SOPE  C21521083   6.963   4.243   8.162 -0.3109  0.4795  0.4831
  184SOPE  H15R21084   7.073   4.233   8.145 -0.4418 -1.0439  0.3522
  184SOPE  H15S21085   6.933   4.136   8.154  1.0848  0.1526 -1.1495
  184SOPE  C21621086   6.935   4.313   8.293 -0.2776  0.0815  0.3064
  184SOPE  H16R21087   6.824   4.319   8.295 -0.3826 -1.3444 -0.5055
  184SOPE  H16S21088   6.986   4.412   8.294 -1.2668  0.6199  1.9058
  184SOPE  C21721089   6.977   4.223   8.414  0.1872  0.1693 -0.1392
  184SOPE  H17R21090   7.083   4.192   8.399 -0.5122 -1.4433 -2.2932
  184SOPE  H17S21091   6.910   4.135   8.405 -0.3112  0.6605 -1.4189
  184SOPE  C21821092   6.958   4.287   8.550 -0.0467 -0.0658  0.1261
  184SOPE  H18R21093   6.995   4.392   8.549  2.8957 -0.9879 -0.4583
  184SOPE  H18S21094   7.026   4.234   8.620  0.4635  0.9842  0.4592
  184SOPE  H18T21095   6.851   4.271   8.573 -0.9339  1.2662 -2.6469
  184SOPE   C3321096   6.757   4.096   7.303 -0.7123  0.1845  0.5445
  184SOPE   H3X21097   6.783   4.203   7.324  0.2332 -0.0413  0.5853
  184SOPE   H3Y21098   6.845   4.037   7.337 -2.8883 -2.7252  1.4446
  184SOPE   C3421099   6.634   4.052   7.388  0.6026  0.3258 -0.5645
  184SOPE   H4X21100   6.620   3.944   7.365 -0.6302  0.1366  0.9345
  184SOPE   H4Y21101   6.544   4.110   7.359  1.4042  1.6795 -0.4651
  184SOPE   C3521102   6.646   4.061   7.539  0.5759 -0.4851  1.1338
  184SOPE   H5X21103   6.673   4.168   7.557 -0.4057  0.0630 -0.4354
  184SOPE   H5Y21104   6.729   3.997   7.574  1.3322  0.6193  1.4322
  184SOPE   C3621105   6.513   4.027   7.606 -0.0372 -0.5144  0.3246
  184SOPE   H6X21106   6.475   3.928   7.575 -0.4606  0.2912 -1.9553
  184SOPE   H6Y21107   6.450   4.103   7.555  0.7888  1.7865  2.4729
  184SOPE   C3721108   6.501   4.052   7.756 -0.4009 -0.3575  0.6558
  184SOPE   H7X21109   6.401   4.019   7.793 -0.2995 -0.8821  0.4667
  184SOPE   H7Y21110   6.521   4.157   7.784 -3.1868  1.4812 -3.2840
  184SOPE   C3821111   6.611   3.970   7.822 -0.3699 -0.7551 -0.4477
  184SOPE   H8X21112   6.710   3.995   7.778 -1.2690  1.7285 -1.1741
  184SOPE   H8Y21113   6.591   3.862   7.801  3.6239 -1.4067 -1.6952
  184SOPE   C3921114   6.627   4.008   7.972 -0.6008  0.3071 -0.2333
  184SOPE   H9X21115   6.663   4.113   7.978 -2.7806  1.1714 -1.3948
  184SOPE   H9Y21116   6.706   3.936   8.005  0.4187 -0.7247 -4.3202
  184SOPE  C31021117   6.505   3.981   8.058 -0.3672  0.1899  0.0032
  184SOPE  H10X21118   6.458   3.884   8.028 -1.3278  0.8278 -0.6079
  184SOPE  H10Y21119   6.420   4.050   8.039 -3.4348 -2.0409  3.8680
  184SOPE  C31121120   6.545   3.977   8.204  0.6394 -0.5612 -0.5466
  184SOPE  H11X21121   6.591   4.071   8.242  0.4091 -1.4276  2.0437
  184SOPE  H11Y21122   6.620   3.895   8.209 -0.3069 -1.3873  0.5639
  184SOPE  C31221123   6.428   3.942   8.300  0.3089  0.1880 -0.7285
  184SOPE  H12X21124   6.381   3.844   8.280  0.3143  0.0774 -0.2013
  184SOPE  H12Y21125   6.346   4.015   8.279  0.9681  0.2813 -3.4159
  184SOPE  C31321126   6.459   3.945   8.455  0.4186  0.8166 -0.0525
  184SOPE  H13X21127   6.488   4.051   8.472 -1.6798  1.2518  1.1919
  184SOPE  H13Y21128   6.547   3.885   8.485 -0.0198  0.3147  0.2434
  184SOPE  C31421129   6.333   3.909   8.533  0.1576  0.1591 -0.7963
  184SOPE  H14X21130   6.333   3.801   8.558 -1.3075  0.3236  0.0457
  184SOPE  H14Y21131   6.245   3.915   8.464  0.6438 -1.9939 -1.6908
  184SOPE  C31521132   6.311   3.988   8.666 -0.8961 -0.0602  0.5197
  184SOPE  H15X21133   6.303   4.097   8.649  2.8603  0.3844  0.8607
  184SOPE  H15Y21134   6.400   3.975   8.731 -0.2715  0.3603 -0.2332
  184SOPE  C31621135   6.185   3.941   8.739  0.5117  0.7556  0.3816
  184SOPE  H16X21136   6.198   3.831   8.750  0.8820  0.5205 -1.8988
  184SOPE  H16Y21137   6.095   3.951   8.674  1.6839 -0.9421 -1.6454
  184SOPE  C31721138   6.150   4.025   8.861  0.7283 -0.4069  0.0187
  184SOPE  H17X21139   6.045   4.008   8.892  0.1326  4.0158  1.1383
  184SOPE  H17Y21140   6.154   4.132   8.829 -0.0220 -0.9793 -2.1795
  184SOPE  C31821141   6.251   4.011   8.972  0.0998 -0.3054  0.3146
  184SOPE  H18X21142   6.358   4.016   8.943  0.6274  1.5534  2.2664
  184SOPE  H18Y21143   6.230   3.913   9.019 -2.0445 -0.0967 -0.0907
  184SOPE  H18Z21144   6.245   4.091   9.049  1.0056  1.7371 -1.6311
  185SAPI   C1221145   2.421   1.478  11.378  0.4294 -0.6556  0.5781
  185SAPI    H221146   2.491   1.551  11.333 -0.9968 -0.5165 -1.5890
  185SAPI    O221147   2.468   1.447  11.507 -0.1406  0.2823 -0.0437
  185SAPI   HO221148   2.513   1.364  11.490 -1.0533 -0.4178  0.8299
  185SAPI   C1321149   2.283   1.550  11.380 -0.5219 -1.0117  0.0371
  185SAPI    H321150   2.254   1.597  11.284 -0.4086 -0.0688  0.4515
  185SAPI    O321151   2.279   1.670  11.460 -0.1774 -0.3720 -0.0602
  185SAPI   HO321152   2.200   1.721  11.441  0.1442 -0.2480 -1.1285
  185SAPI   C1421153   2.187   1.439  11.427  1.3843 -0.0036  0.6365
  185SAPI    H421154   2.224   1.424  11.531  0.3151  2.4662  1.4453
  185SAPI    O421155   2.049   1.485  11.443  0.2868 -0.2297 -0.0327
  185SAPI   HO421156   2.028   1.500  11.536  2.1521 -0.6230  0.4933
  185SAPI   C1521157   2.192   1.311  11.339 -0.2994 -0.2631  0.3279
  185SAPI    H521158   2.167   1.334  11.233 -3.8305 -2.7303  0.4455
  185SAPI    O521159   2.090   1.219  11.372 -0.1247 -0.1828  0.2728
  185SAPI   HO521160   2.129   1.132  11.362 -3.2315 -1.5827 -0.8188
  185SAPI   C1621161   2.329   1.248  11.341 -0.1835 -0.5991 -0.5495
  185SAPI    H621162   2.349   1.223  11.447  0.0883  0.6849 -0.2881
  185SAPI    O621163   2.334   1.130  11.255 -0.5873  0.1748 -1.4983
  185SAPI   HO621164   2.412   1.080  11.281 -0.5074 -0.0238 -2.1086
  185SAPI   C1121165   2.426   1.355  11.296 -0.3852  0.4192 -0.9050
  185SAPI    H121166   2.396   1.376  11.191  0.7323  1.7567 -0.9746
  185SAPI     P21167   2.683   1.346  11.206  0.1580 -0.3805 -0.0020
  185SAPI   O1321168   2.786   1.244  11.208  0.3793  0.1853  0.1608
  185SAPI   O1421169   2.723   1.488  11.253  0.2621  0.7795 -0.1972
  185SAPI   O1221170   2.555   1.293  11.302 -0.0539 -0.0332  0.5975
  185SAPI   O1121171   2.634   1.358  11.056  0.2885  0.1761 -0.8455
  185SAPI    C121172   2.558   1.260  10.973  0.0029  0.3831 -0.1240
  185SAPI    HA21173   2.523   1.183  11.046  2.3428  2.4335  3.4441
  185SAPI    HB21174   2.469   1.295  10.917  0.2251 -0.8690 -1.3120
  185SAPI    C221175   2.663   1.188  10.879  0.4821 -0.2575  0.2233
  185SAPI    HS21176   2.755   1.159  10.935  1.4237  1.5226 -0.3257
  185SAPI   O2121177   2.705   1.274  10.771 -0.0572 -0.0207  0.1867
  185SAPI   C2121178   2.812   1.231  10.714  0.7086 -0.3055  0.5546
  185SAPI   O2221179   2.880   1.134  10.742 -0.0968  0.2007  0.0648
  185SAPI   C2221180   2.843   1.336  10.602  0.2473 -0.5089  0.0740
  185SAPI   H2R21181   2.793   1.433  10.620 -0.6503 -0.7580 -0.9575
  185SAPI   H2S21182   2.954   1.343  10.596  0.2946 -0.7012  0.6688
  185SAPI    C321183   2.592   1.066  10.813  0.4216 -0.5973 -0.2720
  185SAPI    HX21184   2.573   0.996  10.898  0.6263 -0.9931 -0.5521
  185SAPI    HY21185   2.665   1.013  10.748  0.3521 -2.6118  1.1884
  185SAPI   O3121186   2.470   1.101  10.746 -0.2036 -0.1934  0.6210
  185SAPI   C3121187   2.482   1.120  10.613 -0.1951  0.0918  0.4216
  185SAPI   O3221188   2.586   1.115  10.547  0.4112  0.3546 -0.7545
  185SAPI   C3221189   2.342   1.139  10.560 -0.2571 -0.0585  0.2563
  185SAPI   H2X21190   2.305   1.241  10.581  0.7914  0.4651 -0.3641
  185SAPI   H2Y21191   2.276   1.060  10.601 -0.6454  0.5132  0.7440
  185SAPI   C2321192   2.797   1.305  10.460  0.1637 -0.7178  0.1817
  185SAPI   H3R21193   2.688   1.327  10.449  0.1090 -0.4333  1.1724
  185SAPI   H3S21194   2.810   1.197  10.438 -1.6244 -1.0046  0.3799
  185SAPI   C2421195   2.880   1.376  10.355 -0.0024  0.3934 -0.0318
  185SAPI   H4R21196   2.987   1.352  10.377  0.2946 -0.1982 -1.9425
  185SAPI   H4S21197   2.878   1.485  10.372  3.1659  0.3301  1.4939
  185SAPI   C2521198   2.846   1.341  10.208  0.2833 -0.7857 -0.5226
  185SAPI   H5R21199   2.748   1.375  10.171  0.4931 -0.4189 -0.7487
  185SAPI   C2621200   2.927   1.290  10.113 -0.5754  0.1152 -0.5651
  185SAPI   H6R21201   2.903   1.287  10.005  0.8339 -1.0613 -0.8738
  185SAPI   C2721202   3.073   1.249  10.138  0.3706  0.6122 -0.1224
  185SAPI   H7R21203   3.091   1.153  10.085 -0.8813 -1.1657  2.4038
  185SAPI   H7S21204   3.098   1.215  10.242  0.5923  1.4085  0.0899
  185SAPI   C2821205   3.174   1.355  10.094  0.7530  0.2610 -0.6363
  185SAPI   H8R21206   3.177   1.441  10.163  1.2902  0.1534 -0.5221
  185SAPI   C2921207   3.236   1.368   9.981 -0.2020  0.9319  0.1788
  185SAPI   H9R21208   3.303   1.455   9.979 -0.1678  0.8879 -0.8746
  185SAPI  C21021209   3.236   1.273   9.862 -0.2203 -0.1858 -0.1108
  185SAPI  H10R21210   3.174   1.333   9.792 -0.0507  0.3580  0.1946
  185SAPI  H10S21211   3.170   1.184   9.869  0.3163 -0.5514  0.3969
  185SAPI  C21121212   3.371   1.244   9.807 -0.1336 -0.3360  0.0843
  185SAPI  H11R21213   3.416   1.152   9.847 -2.6466 -1.0581  1.4925
  185SAPI  C21221214   3.439   1.325   9.723 -0.4090 -0.8188 -0.0681
  185SAPI  H12R21215   3.534   1.287   9.683 -0.5996 -0.4464 -0.8893
  185SAPI  C21321216   3.390   1.458   9.681 -0.4543  0.5195  0.5620
  185SAPI  H13R21217   3.475   1.530   9.684  0.5578 -0.6227  0.2997
  185SAPI  H13S21218   3.331   1.499   9.765 -0.5858 -1.1968  1.3376
  185SAPI  C21421219   3.317   1.472   9.544 -0.2657  1.0675 -0.1736
  185SAPI  H14R21220   3.207   1.468   9.541 -0.2432  0.2166 -3.8452
  185SAPI  C21521221   3.374   1.491   9.422  0.6765 -0.1796 -0.0728
  185SAPI  H15R21222   3.310   1.479   9.334  1.1174  0.0227 -0.4288
  185SAPI  C21621223   3.515   1.483   9.384 -0.1918 -0.1995  0.2108
  185SAPI  H16R21224   3.584   1.523   9.461  0.1642 -1.9603  0.8495
  185SAPI  H16S21225   3.526   1.553   9.298 -0.5241  1.4623  1.4659
  185SAPI  C21721226   3.565   1.346   9.358 -0.0854 -0.1389  0.6097
  185SAPI  H17R21227   3.545   1.292   9.453 -0.2908 -1.1330  0.0222
  185SAPI  H17S21228   3.673   1.340   9.330 -0.4350 -1.9160 -0.5419
  185SAPI  C21821229   3.487   1.277   9.242 -0.5359  0.3093  0.3511
  185SAPI  H18R21230   3.390   1.242   9.283 -0.0095 -0.7444  0.7231
  185SAPI  H18S21231   3.539   1.185   9.206 -0.1309 -0.1866  2.1355
  185SAPI  C21921232   3.463   1.365   9.120 -0.3255 -0.3430 -0.4067
  185SAPI  H19R21233   3.559   1.413   9.094  0.7584 -2.1999 -0.0014
  185SAPI  H19S21234   3.390   1.445   9.145 -0.9843 -0.6406 -1.3047
  185SAPI  C22021235   3.428   1.289   8.985  0.1997 -0.0594  0.7132
  185SAPI  H20R21236   3.435   1.353   8.894 -1.1176 -0.9435 -0.0545
  185SAPI  H20S21237   3.324   1.253   8.996  0.6809 -2.2788 -1.2170
  185SAPI  H20T21238   3.492   1.198   8.984  0.6852  0.2703 -0.3984
  185SAPI   C3321239   2.325   1.118  10.406 -0.5478 -0.8247  0.2539
  185SAPI   H3X21240   2.218   1.092  10.392 -0.7105 -1.5730  2.4913
  185SAPI   H3Y21241   2.390   1.031  10.381 -0.0193 -0.2693 -0.3189
  185SAPI   C3421242   2.369   1.236  10.322 -0.2967  0.3106 -0.1696
  185SAPI   H4X21243   2.476   1.255  10.346 -0.3193  0.0107  0.1827
  185SAPI   H4Y21244   2.321   1.321  10.374 -1.9364 -0.8283  0.2489
  185SAPI   C3521245   2.333   1.232  10.178  0.2671  0.0335  0.4901
  185SAPI   H5X21246   2.354   1.334  10.141 -1.9879  0.1519 -0.6098
  185SAPI   H5Y21247   2.224   1.225  10.163  0.2002  0.3027  0.8443
  185SAPI   C3621248   2.405   1.125  10.089 -0.7553  0.3600  0.0199
  185SAPI   H6X21249   2.362   1.027  10.117 -1.5044  0.8407  0.6224
  185SAPI   H6Y21250   2.511   1.117  10.122 -0.3362  1.7847 -0.8821
  185SAPI   C3721251   2.393   1.137   9.935 -0.1157 -0.0815  0.3902
  185SAPI   H7X21252   2.424   1.241   9.911 -0.2818  0.3886  2.1386
  185SAPI   H7Y21253   2.288   1.138   9.900  0.4714 -0.1142 -1.5163
  185SAPI   C3821254   2.485   1.047   9.859  0.6462 -0.8243  0.3362
  185SAPI   H8X21255   2.438   0.950   9.884 -1.1871 -0.0245  0.1720
  185SAPI   H8Y21256   2.594   1.057   9.877  0.8570  0.8855 -1.5020
  185SAPI   C3921257   2.462   1.061   9.704  0.2528 -0.3175 -0.0547
  185SAPI   H9X21258   2.354   1.057   9.678  0.3233 -2.0298 -0.1714
  185SAPI   H9Y21259   2.503   0.975   9.648 -1.6359 -3.6024  3.2064
  185SAPI  C31021260   2.539   1.181   9.650 -0.1277 -0.4733 -0.1291
  185SAPI  H10X21261   2.645   1.172   9.681  0.7402 -3.3528 -3.2798
  185SAPI  H10Y21262   2.501   1.276   9.695  0.4711 -0.9309  1.3994
  185SAPI  C31121263   2.523   1.199   9.499 -0.4994 -0.0845 -0.6769
  185SAPI  H11X21264   2.416   1.223   9.483 -0.5975 -0.3737 -0.4670
  185SAPI  H11Y21265   2.555   1.107   9.445  1.1168 -0.1730  0.3522
  185SAPI  C31221266   2.607   1.323   9.457 -0.5514 -0.1227  0.4979
  185SAPI  H12X21267   2.714   1.296   9.463 -0.6877 -0.4570  1.9011
  185SAPI  H12Y21268   2.594   1.409   9.525 -1.1466 -0.8527  1.3313
  185SAPI  C31321269   2.593   1.363   9.306 -0.4145 -0.0610 -0.3694
  185SAPI  H13X21270   2.636   1.290   9.235  1.4330  1.3174 -0.7698
  185SAPI  H13Y21271   2.649   1.459   9.294  0.8676 -0.8167 -0.6782
  185SAPI  C31421272   2.445   1.372   9.266 -0.0719  0.0471 -0.3480
  185SAPI  H14X21273   2.398   1.443   9.337  0.7347  0.7408 -0.4890
  185SAPI  H14Y21274   2.396   1.273   9.275 -1.5363  0.9156  2.4746
  185SAPI  C31521275   2.428   1.431   9.125  0.9642  0.1884  0.0839
  185SAPI  H15X21276   2.338   1.376   9.092 -0.9834  2.3490  1.4309
  185SAPI  H15Y21277   2.511   1.397   9.061 -0.2284 -0.0463 -1.3822
  185SAPI  C31621278   2.416   1.582   9.132 -0.8103 -0.4109 -0.2911
  185SAPI  H16X21279   2.512   1.623   9.169 -1.5967 -0.0585  1.4137
  185SAPI  H16Y21280   2.332   1.616   9.195 -1.7441  0.7238 -2.0718
  185SAPI  C31721281   2.406   1.652   8.993  0.6493 -0.9032 -0.3102
  185SAPI  H17X21282   2.307   1.632   8.946 -1.1645 -2.1179  3.5659
  185SAPI  H17Y21283   2.490   1.602   8.940 -0.9707 -1.8774 -2.0790
  185SAPI  C31821284   2.443   1.799   9.009  0.3619  0.3169 -0.1432
  185SAPI  H18X21285   2.550   1.824   9.025  0.0653  2.4410 -1.0847
  185SAPI  H18Y21286   2.390   1.830   9.101 -3.5922 -0.6806 -1.8475
  185SAPI  H18Z21287   2.405   1.856   8.921 -0.8012 -1.3202 -0.7478
  186SAPI   C1221288   3.476   5.181  11.330  0.6234 -0.4973  0.7032
  186SAPI    H221289   3.366   5.180  11.321  0.7499  0.7618 -5.4396
  186SAPI    O221290   3.507   5.320  11.322  0.4265 -0.2324 -0.1797
  186SAPI   HO221291   3.432   5.363  11.281  0.5367  0.5087  0.3574
  186SAPI   C1321292   3.509   5.123  11.466 -0.6502 -0.1057  0.5914
  186SAPI    H321293   3.487   5.015  11.481  1.3110 -0.1415  4.3741
  186SAPI    O321294   3.423   5.172  11.569 -0.2535 -0.8116  0.4652
  186SAPI   HO321295   3.413   5.266  11.552 -3.2666 -0.4591  3.1869
  186SAPI   C1421296   3.666   5.135  11.488  0.5078  0.2609 -0.4832
  186SAPI    H421297   3.696   5.242  11.488 -2.0093  1.0542  0.9262
  186SAPI    O421298   3.705   5.088  11.619 -0.6705  0.7105  0.5138
  186SAPI   HO421299   3.655   5.011  11.649  1.3983 -0.7158  0.5264
  186SAPI   C1521300   3.733   5.054  11.382 -0.0870  0.8823 -1.0509
  186SAPI    H521301   3.706   4.946  11.386  1.5159  0.4848  0.5461
  186SAPI    O521302   3.873   5.053  11.409 -0.0825 -0.2383 -0.0251
  186SAPI   HO521303   3.903   5.142  11.433  0.0040 -0.4198  0.5678
  186SAPI   C1621304   3.691   5.102  11.246  0.1035 -0.6607 -0.2145
  186SAPI    H621305   3.729   5.207  11.240 -3.1109  0.5533 -2.5972
  186SAPI    O621306   3.747   5.029  11.139 -0.4675 -0.0918  0.4301
  186SAPI   HO621307   3.682   5.026  11.068 -0.3674  0.0522  0.3287
  186SAPI   C1121308   3.546   5.103  11.220  0.0384 -0.1312 -0.0969
  186SAPI    H121309   3.506   5.000  11.231 -1.6000  0.1249 -2.6038
  186SAPI     P21310   3.367   5.129  11.012 -0.2211  0.0673 -0.1452
  186SAPI   O1321311   3.369   5.199  10.881  0.1149 -0.7536  0.3294
  186SAPI   O1421312   3.246   5.155  11.097  0.0867  0.6947  0.1083
  186SAPI   O1221313   3.511   5.154  11.089  0.2644 -0.0757  0.2643
  186SAPI   O1121314   3.377   4.970  10.980  0.0253 -0.4864  0.2966
  186SAPI    C121315   3.486   4.935  10.888 -0.7099 -0.3486 -0.5400
  186SAPI    HA21316   3.574   5.003  10.878  0.6525 -1.9740 -0.0660
  186SAPI    HB21317   3.532   4.839  10.918 -0.4153 -1.0154 -2.9160
  186SAPI    C221318   3.438   4.912  10.749  0.2979 -0.1922 -0.6995
  186SAPI    HS21319   3.390   5.006  10.714 -0.6579 -0.8018 -1.0798
  186SAPI   O2121320   3.343   4.804  10.748 -0.0794 -0.3694  0.0795
  186SAPI   C2121321   3.218   4.829  10.723 -0.9127 -0.0331  0.5453
  186SAPI   O2221322   3.165   4.937  10.707 -0.2798  0.0199 -0.1866
  186SAPI   C2221323   3.141   4.699  10.737 -0.2129  0.3422 -0.0231
  186SAPI   H2R21324   3.208   4.623  10.691 -0.3612  0.4998 -0.4993
  186SAPI   H2S21325   3.129   4.685  10.847 -1.9014  3.5880  0.3115
  186SAPI    C321326   3.545   4.877  10.644  0.2539 -0.0314  0.1598
  186SAPI    HX21327   3.573   4.773  10.673 -0.7825 -0.5242 -0.5358
  186SAPI    HY21328   3.638   4.938  10.640  0.5537 -0.5339 -2.0361
  186SAPI   O3121329   3.495   4.875  10.509 -0.7452 -0.7411 -0.2081
  186SAPI   C3121330   3.450   4.768  10.456 -0.5190  0.0258  0.2347
  186SAPI   O3221331   3.436   4.664  10.514  0.0094  0.3784 -0.8652
  186SAPI   C3221332   3.414   4.788  10.306 -0.5213  0.0361 -0.5606
  186SAPI   H2X21333   3.488   4.855  10.258  1.6122 -1.8827 -0.1151
  186SAPI   H2Y21334   3.318   4.845  10.305  0.9379  2.6435 -1.8187
  186SAPI   C2321335   2.999   4.703  10.675 -0.6024 -0.5759 -0.3093
  186SAPI   H3R21336   2.934   4.763  10.742 -2.2492 -2.0007 -0.5419
  186SAPI   H3S21337   2.948   4.604  10.678 -0.7879 -0.5212 -1.3528
  186SAPI   C2421338   3.001   4.750  10.536  0.3421  0.6557 -0.8691
  186SAPI   H4R21339   3.053   4.669  10.481 -0.2931  1.5574 -2.9065
  186SAPI   H4S21340   3.063   4.842  10.533  1.1679  0.2511  1.5272
  186SAPI   C2521341   2.866   4.757  10.468 -0.3864  0.0412 -1.3677
  186SAPI   H5R21342   2.795   4.824  10.520  0.7374  1.8414 -2.0464
  186SAPI   C2621343   2.824   4.712  10.350 -0.3347 -0.0231  0.3646
  186SAPI   H6R21344   2.720   4.735  10.325 -0.4323 -0.1227  0.6707
  186SAPI   C2721345   2.912   4.634  10.251  1.3872 -0.3730 -0.3181
  186SAPI   H7R21346   2.848   4.568  10.188  0.8975 -0.4854  0.2870
  186SAPI   H7S21347   2.988   4.580  10.310  3.5657  1.4557 -1.2923
  186SAPI   C2821348   2.994   4.728  10.158 -0.1936  1.4337 -1.0132
  186SAPI   H8R21349   3.072   4.786  10.211 -1.1199 -0.1809  2.3915
  186SAPI   C2921350   2.986   4.733  10.020 -0.2119 -0.0674 -0.0082
  186SAPI   H9R21351   3.054   4.802   9.967 -1.8897  1.0522 -0.7683
  186SAPI  C21021352   2.879   4.656   9.938  0.1468 -0.0055 -0.0689
  186SAPI  H10R21353   2.792   4.636  10.005  0.8449  0.3050  0.9534
  186SAPI  H10S21354   2.921   4.563   9.894  0.4258  0.5369 -0.9653
  186SAPI  C21121355   2.819   4.738   9.820 -0.5770 -0.4047 -0.6548
  186SAPI  H11R21356   2.719   4.775   9.849 -0.4771 -0.4390 -0.2606
  186SAPI  C21221357   2.865   4.748   9.696  0.8016  0.2385  0.0366
  186SAPI  H12R21358   2.800   4.795   9.621 -1.2695 -1.5069  0.6591
  186SAPI  C21321359   2.994   4.683   9.651 -0.5623  0.1405 -0.1808
  186SAPI  H13R21360   2.968   4.578   9.628 -0.3179  0.3063 -1.2455
  186SAPI  H13S21361   3.075   4.671   9.726 -2.4969 -2.2190  1.6942
  186SAPI  C21421362   3.053   4.761   9.542  0.0586 -0.4775 -0.8287
  186SAPI  H14R21363   3.062   4.869   9.564  2.3876 -0.7775  0.0140
  186SAPI  C21521364   3.071   4.727   9.421  0.5203 -0.1030  0.6178
  186SAPI  H15R21365   3.109   4.801   9.349  1.1091 -0.6985  0.2985
  186SAPI  C21621366   3.059   4.588   9.360 -0.1218 -0.4329  0.2280
  186SAPI  H16R21367   2.966   4.540   9.400 -0.5835  0.9598  0.8571
  186SAPI  H16S21368   3.149   4.529   9.387  0.1675 -0.0126  0.1788
  186SAPI  C21721369   3.045   4.586   9.202  0.7597  0.0553  0.0763
  186SAPI  H17R21370   3.031   4.482   9.165 -0.5719 -0.0704  0.8646
  186SAPI  H17S21371   3.142   4.624   9.164  0.5512  0.9787  0.4369
  186SAPI  C21821372   2.934   4.681   9.142 -0.6022 -0.3823 -0.3726
  186SAPI  H18R21373   2.959   4.783   9.177 -0.5540 -0.7945  0.8423
  186SAPI  H18S21374   2.836   4.655   9.187  0.3892 -0.6624  1.7550
  186SAPI  C21921375   2.914   4.683   8.992  0.7715 -0.7332 -0.5784
  186SAPI  H19R21376   2.886   4.579   8.966  0.5130 -0.7663 -0.1753
  186SAPI  H19S21377   3.011   4.723   8.954 -0.2423  1.2159 -1.2697
  186SAPI  C22021378   2.803   4.788   8.963  0.3349  0.4355 -0.0501
  186SAPI  H20R21379   2.795   4.768   8.854 -2.0807  0.4086  0.0697
  186SAPI  H20S21380   2.820   4.895   8.990 -2.0714  1.0044 -0.5748
  186SAPI  H20T21381   2.707   4.765   9.014  1.5695  1.1483  2.7723
  186SAPI   C3321382   3.390   4.644  10.244 -0.1195 -0.2072  0.1153
  186SAPI   H3X21383   3.304   4.599  10.298  0.5393 -2.7963 -0.8333
  186SAPI   H3Y21384   3.477   4.575  10.254  0.7701  0.6992 -1.1427
  186SAPI   C3421385   3.346   4.657  10.100 -0.1012 -0.5474 -0.2298
  186SAPI   H4X21386   3.278   4.743  10.082  0.5040 -0.0809 -0.3164
  186SAPI   H4Y21387   3.288   4.568  10.070 -0.2492  0.2193 -2.4372
  186SAPI   C3521388   3.466   4.660  10.002 -0.4803  0.2647 -0.4950
  186SAPI   H5X21389   3.519   4.564  10.021 -1.0000  0.1960  0.6490
  186SAPI   H5Y21390   3.533   4.745  10.027 -0.5537  1.0306 -2.6809
  186SAPI   C3621391   3.432   4.669   9.848  0.5117 -0.6523  0.2362
  186SAPI   H6X21392   3.398   4.770   9.817 -1.0411 -1.5619 -1.2071
  186SAPI   H6Y21393   3.341   4.605   9.838 -1.7184  1.8534  2.6582
  186SAPI   C3721394   3.541   4.616   9.756 -0.5172 -0.4976 -0.0007
  186SAPI   H7X21395   3.555   4.509   9.782 -2.6178 -1.2093 -1.4797
  186SAPI   H7Y21396   3.634   4.676   9.752 -1.4078  0.9142 -3.7222
  186SAPI   C3821397   3.495   4.608   9.610 -0.0884 -0.3298  0.4961
  186SAPI   H8X21398   3.393   4.563   9.604  0.7669 -2.1925 -1.0326
  186SAPI   H8Y21399   3.576   4.554   9.558 -0.0492  0.3315 -0.1466
  186SAPI   C3921400   3.489   4.747   9.541 -0.1956 -0.0805 -0.3935
  186SAPI   H9X21401   3.588   4.796   9.561 -0.8148  1.3043 -0.5976
  186SAPI   H9Y21402   3.412   4.812   9.588  0.2820 -0.8547  1.5841
  186SAPI  C31021403   3.463   4.740   9.393  0.6618  0.4026 -0.8836
  186SAPI  H10X21404   3.363   4.693   9.375  0.3961  0.8063 -0.4926
  186SAPI  H10Y21405   3.542   4.674   9.352  1.8881  0.6171  1.0198
  186SAPI  C31121406   3.463   4.879   9.327 -0.3709  0.5137 -0.2891
  186SAPI  H11X21407   3.571   4.905   9.325  0.1787 -1.5727  0.1749
  186SAPI  H11Y21408   3.407   4.953   9.388 -0.2635  0.1903  0.2051
  186SAPI  C31221409   3.410   4.869   9.183 -0.3262 -0.1568  0.7768
  186SAPI  H12X21410   3.304   4.838   9.172 -0.5126  0.7404 -0.1118
  186SAPI  H12Y21411   3.476   4.796   9.131 -0.8723  1.6866 -2.7926
  186SAPI  C31321412   3.412   5.007   9.111 -0.1905 -0.2195  0.2928
  186SAPI  H13X21413   3.521   5.030   9.106 -0.3834  0.6235 -0.2422
  186SAPI  H13Y21414   3.369   5.095   9.163 -1.2234 -0.5363 -0.0079
  186SAPI  C31421415   3.340   5.004   8.974 -0.7657  0.0510 -0.2049
  186SAPI  H14X21416   3.232   4.987   8.996 -0.3061  0.6671  2.9916
  186SAPI  H14Y21417   3.373   4.927   8.901 -0.1908  1.0220 -0.9870
  186SAPI  C31521418   3.353   5.149   8.908 -0.5480  0.3414 -0.0325
  186SAPI  H15X21419   3.457   5.179   8.932 -0.6935  0.0947  0.9594
  186SAPI  H15Y21420   3.293   5.230   8.956  0.0864  1.1314 -0.5536
  186SAPI  C31621421   3.317   5.154   8.757  0.6769  0.2930 -0.4017
  186SAPI  H16X21422   3.212   5.121   8.740  0.3362  0.3497  1.4191
  186SAPI  H16Y21423   3.373   5.069   8.712  0.2313  0.3508 -1.0892
  186SAPI  C31721424   3.342   5.290   8.685 -0.5487 -0.2185  0.4422
  186SAPI  H17X21425   3.444   5.320   8.720 -0.6902 -1.2679  1.8742
  186SAPI  H17Y21426   3.282   5.371   8.729  1.6503  0.6416  2.0701
  186SAPI  C31821427   3.318   5.290   8.539  0.1141  0.1573  0.0094
  186SAPI  H18X21428   3.396   5.230   8.488  1.2592 -0.2700  2.1653
  186SAPI  H18Y21429   3.322   5.396   8.504  0.4896 -1.1897 -4.6993
  186SAPI  H18Z21430   3.219   5.246   8.517 -0.2293  0.0342  1.6993
  187SAPI   C1221431   5.812   0.272   6.477  0.5283  0.6611 -0.0952
  187SAPI    H221432   5.841   0.204   6.395  1.2825  1.4731 -0.5188
  187SAPI    O221433   5.920   0.249   6.564 -0.4495  0.4371  0.1826
  187SAPI   HO221434   5.890   0.179   6.622 -3.5120  1.7887  0.4059
  187SAPI   C1321435   5.810   0.406   6.412 -0.6944  0.3329  1.0359
  187SAPI    H321436   5.738   0.415   6.327  1.5895  0.3990 -0.9930
  187SAPI    O321437   5.934   0.435   6.346  0.3577  0.2175 -0.7729
  187SAPI   HO321438   5.996   0.370   6.382 -1.2727 -1.2973 -0.5652
  187SAPI   C1421439   5.780   0.504   6.521 -0.0797 -0.2568 -0.0448
  187SAPI    H421440   5.855   0.485   6.601  1.6703  0.4632 -1.4520
  187SAPI    O421441   5.786   0.640   6.469  0.0142  0.3174  0.3424
  187SAPI   HO421442   5.817   0.694   6.542 -0.1314  0.2055  0.4862
  187SAPI   C1521443   5.640   0.481   6.580  0.0597  0.0261  0.9133
  187SAPI    H521444   5.575   0.480   6.490  1.4879 -2.4039 -0.1715
  187SAPI    O521445   5.592   0.586   6.655  0.2953 -0.5754 -0.1186
  187SAPI   HO521446   5.531   0.550   6.720  0.3840  0.6525  0.6867
  187SAPI   C1621447   5.635   0.339   6.641  0.2548 -0.9548 -0.1951
  187SAPI    H621448   5.708   0.338   6.725  0.3210  0.6800 -0.2011
  187SAPI    O621449   5.498   0.310   6.677 -0.0473  0.0307 -0.1117
  187SAPI   HO621450   5.501   0.221   6.713  0.2982  0.0378 -0.1134
  187SAPI   C1121451   5.675   0.230   6.544 -0.1889  0.1834  0.0115
  187SAPI    H121452   5.609   0.214   6.456 -0.0901  1.9767 -0.4426
  187SAPI     P21453   5.598  -0.019   6.613 -0.0939 -0.0257  0.1514
  187SAPI   O1321454   5.655  -0.142   6.672  0.0931 -0.2939 -0.3725
  187SAPI   O1421455   5.533  -0.036   6.478  0.7033  0.3444  0.1176
  187SAPI   O1221456   5.706   0.101   6.609 -1.0339  0.1246  0.2809
  187SAPI   O1121457   5.489   0.033   6.704 -0.1955  0.0018 -0.3789
  187SAPI    C121458   5.371  -0.044   6.745  0.1162 -0.8519 -0.5839
  187SAPI    HA21459   5.282   0.011   6.708  0.3949  0.3413  0.4694
  187SAPI    HB21460   5.371  -0.144   6.695 -0.7350  0.3088 -3.0555
  187SAPI    C221461   5.356  -0.051   6.898  0.4503 -0.1874  0.6664
  187SAPI    HS21462   5.259  -0.095   6.930  0.8497 -2.3221 -0.8503
  187SAPI   O2121463   5.375   0.081   6.956 -0.8605 -0.1302 -0.7287
  187SAPI   C2121464   5.268   0.158   6.937  0.3008  0.3302 -0.1047
  187SAPI   O2221465   5.167   0.124   6.878  0.2382  0.3224  0.3062
  187SAPI   C2221466   5.293   0.296   6.996  0.0939 -0.1523 -0.4062
  187SAPI   H2R21467   5.339   0.279   7.096 -0.2982  1.6686  0.1215
  187SAPI   H2S21468   5.359   0.347   6.923 -0.0279  0.1402 -0.3147
  187SAPI    C321469   5.470  -0.138   6.948 -0.5194 -0.2115 -0.4644
  187SAPI    HX21470   5.567  -0.093   6.916  0.0857 -0.9302  0.3201
  187SAPI    HY21471   5.472  -0.233   6.889  0.4675 -0.2858 -0.3405
  187SAPI   O3121472   5.457  -0.175   7.092  0.6595  0.1197  0.3369
  187SAPI   C3121473   5.540  -0.114   7.168  0.4285  0.9945 -1.4194
  187SAPI   O3221474   5.628  -0.039   7.131 -0.2451  0.1912  0.4871
  187SAPI   C3221475   5.525  -0.158   7.318  0.1431  0.7721  1.4552
  187SAPI   H2X21476   5.629  -0.173   7.354  0.9504 -0.9120 -1.3083
  187SAPI   H2Y21477   5.469  -0.253   7.331 -0.0679  0.7319  0.3486
  187SAPI   C2321478   5.155   0.379   7.000  0.1850 -0.2664  0.1110
  187SAPI   H3R21479   5.088   0.336   7.077  0.5423 -1.0957 -0.0363
  187SAPI   H3S21480   5.098   0.376   6.904  0.1699 -0.6459  0.1308
  187SAPI   C2421481   5.175   0.532   7.014  0.4321 -0.0887  0.0468
  187SAPI   H4R21482   5.231   0.555   7.107 -0.1284 -0.6468  0.5338
  187SAPI   H4S21483   5.085   0.597   7.022  0.8489  0.3501  1.5081
  187SAPI   C2521484   5.261   0.580   6.894 -0.9081  0.2738  0.0168
  187SAPI   H5R21485   5.248   0.523   6.801  2.6195  0.7733 -0.9297
  187SAPI   C2621486   5.358   0.677   6.898  0.1720 -1.0937 -0.3410
  187SAPI   H6R21487   5.408   0.714   6.808 -0.5265  2.5302  0.5823
  187SAPI   C2721488   5.383   0.768   7.016  0.7369 -0.1344 -0.4144
  187SAPI   H7R21489   5.472   0.735   7.073 -0.4537 -2.6423  0.1472
  187SAPI   H7S21490   5.300   0.775   7.091  1.5217  0.8072  0.3940
  187SAPI   C2821491   5.418   0.909   6.972  0.8663  0.4285 -0.3433
  187SAPI   H8R21492   5.489   0.912   6.888 -0.1273  1.5310 -1.1749
  187SAPI   C2921493   5.397   1.021   7.044 -0.5447 -0.5960 -0.5980
  187SAPI   H9R21494   5.441   1.112   7.000 -0.3212  1.3307  3.1893
  187SAPI  C21021495   5.333   1.032   7.180 -0.3630  0.3014 -0.2954
  187SAPI  H10R21496   5.388   1.108   7.239  0.8945  0.4457 -1.6062
  187SAPI  H10S21497   5.346   0.933   7.229 -1.2002 -0.6572 -1.9161
  187SAPI  C21121498   5.183   1.061   7.182 -0.1025 -0.5073 -0.4447
  187SAPI  H11R21499   5.129   0.990   7.117  0.1875  0.3770 -1.6861
  187SAPI  C21221500   5.124   1.165   7.256  0.2215 -0.8462 -0.6414
  187SAPI  H12R21501   5.015   1.171   7.269  0.5123 -0.3025  2.2994
  187SAPI  C21321502   5.200   1.252   7.350 -0.3296 -0.2584  0.4686
  187SAPI  H13R21503   5.300   1.277   7.308 -0.8476  0.6366 -0.2709
  187SAPI  H13S21504   5.239   1.189   7.432  0.5976 -0.1680  0.1080
  187SAPI  C21421505   5.139   1.380   7.400 -0.0204  0.7114 -0.6373
  187SAPI  H14R21506   5.117   1.456   7.325 -1.9381  0.3676 -0.4752
  187SAPI  C21521507   5.109   1.410   7.531 -0.6912  0.1228 -0.2837
  187SAPI  H15R21508   5.073   1.514   7.540 -0.0298  0.3061  0.3305
  187SAPI  C21621509   5.132   1.327   7.662  0.0091  0.0004  0.1738
  187SAPI  H16R21510   5.197   1.239   7.645 -0.9967 -0.6149 -0.6200
  187SAPI  H16S21511   5.034   1.281   7.688  0.2570 -1.0784 -0.7212
  187SAPI  C21721512   5.184   1.419   7.775  0.1913 -1.0228  0.3991
  187SAPI  H17R21513   5.117   1.507   7.779  0.7831 -0.5628  0.4086
  187SAPI  H17S21514   5.288   1.448   7.746 -0.0436 -1.2119 -0.6664
  187SAPI  C21821515   5.210   1.348   7.907  0.4566  0.0892  0.8578
  187SAPI  H18R21516   5.271   1.256   7.896 -0.2629 -0.9965  4.4988
  187SAPI  H18S21517   5.108   1.315   7.938 -1.2743  4.1904  0.1819
  187SAPI  C21921518   5.271   1.439   8.008  1.2882  0.1809  0.3607
  187SAPI  H19R21519   5.211   1.533   8.008  1.3928  0.2623 -0.8071
  187SAPI  H19S21520   5.368   1.460   7.959 -0.3154  0.7539 -2.8410
  187SAPI  C22021521   5.289   1.386   8.144 -0.1005 -0.0080  0.0468
  187SAPI  H20R21522   5.203   1.323   8.173  0.7614 -0.3318  1.9989
  187SAPI  H20S21523   5.322   1.469   8.210  1.8446 -0.1788 -0.6415
  187SAPI  H20T21524   5.367   1.307   8.138 -0.6233 -0.5636  0.4833
  187SAPI   C3321525   5.449  -0.050   7.403 -0.0705  0.5207  0.8138
  187SAPI   H3X21526   5.371   0.006   7.347  0.0350  0.9881  1.1268
  187SAPI   H3Y21527   5.528   0.026   7.425  1.6433 -0.4032 -1.5997
  187SAPI   C3421528   5.401  -0.112   7.533 -0.4803 -0.0119  1.2090
  187SAPI   H4X21529   5.493  -0.162   7.570  0.6030  1.8404  1.1074
  187SAPI   H4Y21530   5.318  -0.184   7.517 -0.6237  0.4569 -0.2823
  187SAPI   C3521531   5.356  -0.021   7.651 -0.6420  0.2983 -0.3860
  187SAPI   H5X21532   5.266   0.034   7.617 -0.1499  1.3214 -0.0672
  187SAPI   H5Y21533   5.430   0.057   7.678 -0.5195  0.6931 -1.7829
  187SAPI   C3621534   5.304  -0.095   7.774  0.1360  0.0274 -0.8921
  187SAPI   H6X21535   5.382  -0.161   7.817  0.0382  0.6983  0.3834
  187SAPI   H6Y21536   5.224  -0.164   7.741  0.7876  0.0476 -2.6018
  187SAPI   C3721537   5.245   0.011   7.873 -0.0075  0.0937 -0.5892
  187SAPI   H7X21538   5.145   0.053   7.848  0.9100  2.5163 -0.4839
  187SAPI   H7Y21539   5.322   0.091   7.879 -0.3477  0.5297 -1.6835
  187SAPI   C3821540   5.244  -0.035   8.021  0.5479  0.0297  0.2541
  187SAPI   H8X21541   5.231   0.062   8.073  1.7378  0.6198 -0.5055
  187SAPI   H8Y21542   5.345  -0.069   8.054  0.2984 -3.0632 -1.7306
  187SAPI   C3921543   5.140  -0.137   8.069 -0.2766 -0.2251  0.5121
  187SAPI   H9X21544   5.157  -0.236   8.020  0.3568  0.0243  0.2158
  187SAPI   H9Y21545   5.041  -0.104   8.031  0.1331  1.0762  0.5400
  187SAPI  C31021546   5.140  -0.158   8.222 -0.0664  0.5725  0.2271
  187SAPI  H10X21547   5.126  -0.058   8.269  1.0376  0.2616  1.2607
  187SAPI  H10Y21548   5.240  -0.194   8.255 -1.3732  0.4558  4.6464
  187SAPI  C31121549   5.027  -0.257   8.267 -1.0911 -0.0877  0.2199
  187SAPI  H11X21550   5.036  -0.363   8.235  1.0939  0.4033 -0.9780
  187SAPI  H11Y21551   4.931  -0.226   8.221 -0.4079  1.0700 -0.4801
  187SAPI  C31221552   5.000  -0.257   8.420 -0.1172 -0.0303 -0.6380
  187SAPI  H12X21553   5.096  -0.286   8.468  1.4021  3.1895 -1.5135
  187SAPI  H12Y21554   4.918  -0.328   8.447 -0.2761  1.0671  2.0597
  187SAPI  C31321555   4.960  -0.126   8.487 -0.2743 -0.5893  0.3757
  187SAPI  H13X21556   4.875  -0.076   8.436  0.1788  0.3807  0.5458
  187SAPI  H13Y21557   5.049  -0.060   8.474 -0.2473 -0.6137  0.4360
  187SAPI  C31421558   4.922  -0.136   8.626 -0.3462  0.1067  0.1010
  187SAPI  H14X21559   4.994  -0.210   8.668 -3.9557 -1.5673  4.1747
  187SAPI  H14Y21560   4.816  -0.169   8.638 -0.2800 -0.0872  0.1656
  187SAPI  C31521561   4.940  -0.006   8.719 -0.8941  0.3944 -0.3315
  187SAPI  H15X21562   4.864   0.069   8.687  1.0684  3.0283  0.8227
  187SAPI  H15Y21563   5.041   0.041   8.711 -1.2232  0.9292 -1.8632
  187SAPI  C31621564   4.918  -0.054   8.860 -0.3113 -0.2393 -1.0044
  187SAPI  H16X21565   5.003  -0.122   8.881  1.6659  2.6929  1.2010
  187SAPI  H16Y21566   4.819  -0.098   8.886  0.0067 -0.0244  0.6868
  187SAPI  C31721567   4.956   0.056   8.956 -0.0796 -0.2866  0.3788
  187SAPI  H17X21568   5.057   0.086   8.921 -0.5325  1.2462  0.3209
  187SAPI  H17Y21569   4.946   0.019   9.060 -2.9586 -1.4167 -0.2097
  187SAPI  C31821570   4.867   0.182   8.954 -0.3943 -0.2617 -0.3164
  187SAPI  H18X21571   4.760   0.155   8.967  0.0772 -1.0171  2.6623
  187SAPI  H18Y21572   4.871   0.249   8.866  0.3698 -0.7306 -0.6545
  187SAPI  H18Z21573   4.895   0.251   9.036  1.4349  0.9336 -1.8652
  188SAPI   C1221574   1.387   3.392   6.806 -0.9489  0.3573  0.4213
  188SAPI    H221575   1.479   3.382   6.867 -0.9073  2.8623  0.8803
  188SAPI    O221576   1.286   3.347   6.897  0.2267  0.5470  0.2694
  188SAPI   HO221577   1.318   3.275   6.952 -3.4191  0.2082  2.3038
  188SAPI   C1321578   1.367   3.532   6.761  0.3903  0.7967  0.3931
  188SAPI    H321579   1.457   3.565   6.705 -0.5486  0.1221 -1.6099
  188SAPI    O321580   1.359   3.614   6.883 -0.6664  0.0176 -0.0075
  188SAPI   HO321581   1.287   3.568   6.927 -1.6571  1.2270 -0.3001
  188SAPI   C1421582   1.235   3.543   6.672 -0.4929  0.1594  0.2144
  188SAPI    H421583   1.153   3.502   6.735 -0.5827  0.0138  0.0067
  188SAPI    O421584   1.203   3.680   6.634 -0.6029  0.4379  0.2349
  188SAPI   HO421585   1.230   3.736   6.707  0.3467 -2.6346  2.4792
  188SAPI   C1521586   1.256   3.452   6.550 -0.7413  0.0981  0.8569
  188SAPI    H521587   1.344   3.484   6.491 -1.4613  2.5615  0.9892
  188SAPI    O521588   1.145   3.461   6.462  0.7098  0.0248  0.5533
  188SAPI   HO521589   1.154   3.527   6.394 -0.9996 -2.2381 -2.0705
  188SAPI   C1621590   1.278   3.305   6.596 -0.0113 -0.6502 -0.0451
  188SAPI    H621591   1.187   3.274   6.651 -1.1523  2.3309 -0.0549
  188SAPI    O621592   1.294   3.206   6.488  0.1046 -0.5938 -0.3060
  188SAPI   HO621593   1.270   3.117   6.515 -1.4554 -0.0156  0.3127
  188SAPI   C1121594   1.404   3.294   6.693  0.4411  0.1463  0.4841
  188SAPI    H121595   1.491   3.319   6.629  0.4762  0.4783  0.6624
  188SAPI     P21596   1.562   3.100   6.769 -0.0712 -0.2664  0.0317
  188SAPI   O1321597   1.646   3.183   6.859  0.0794 -0.4416 -1.1195
  188SAPI   O1421598   1.615   3.069   6.638 -0.0336 -0.4360 -0.4367
  188SAPI   O1221599   1.412   3.165   6.740 -0.3275 -0.0278 -0.3205
  188SAPI   O1121600   1.537   2.960   6.833  0.3751  0.5288  0.1922
  188SAPI    C121601   1.435   2.940   6.939  0.6600 -0.0676 -0.3079
  188SAPI    HA21602   1.354   3.016   6.934 -0.3677 -1.2036 -1.6186
  188SAPI    HB21603   1.387   2.842   6.922 -1.0346  1.0157 -2.2421
  188SAPI    C221604   1.488   2.936   7.086 -0.8983 -0.1630  0.0126
  188SAPI    HS21605   1.399   2.927   7.152 -0.2571  0.6258  1.0125
  188SAPI   O2121606   1.563   3.055   7.125  0.3550 -0.0109  0.3001
  188SAPI   C2121607   1.474   3.159   7.135 -0.0745  0.0138 -0.4204
  188SAPI   O2221608   1.353   3.161   7.116 -0.0303  0.0034 -0.1117
  188SAPI   C2221609   1.567   3.273   7.181  0.5123 -0.1564 -0.5052
  188SAPI   H2R21610   1.608   3.232   7.275 -0.9249 -0.5717 -0.0315
  188SAPI   H2S21611   1.644   3.276   7.101 -1.9595 -0.9405 -3.1355
  188SAPI    C321612   1.571   2.804   7.108 -0.2717 -0.0139 -0.5852
  188SAPI    HX21613   1.641   2.829   7.026 -0.5936  1.1810 -0.5153
  188SAPI    HY21614   1.518   2.709   7.087  0.5325 -0.0256 -2.8115
  188SAPI   O3121615   1.642   2.785   7.236 -0.2205 -0.2167 -0.1045
  188SAPI   C3121616   1.568   2.755   7.332  0.2500  0.6435 -0.0682
  188SAPI   O3221617   1.444   2.741   7.336 -0.2301  0.3400  0.6402
  188SAPI   C3221618   1.649   2.719   7.452  0.6213  0.1493 -0.7433
  188SAPI   H2X21619   1.718   2.803   7.471  2.2826 -1.2444 -0.3495
  188SAPI   H2Y21620   1.716   2.632   7.436 -1.2671 -1.5073 -0.0984
  188SAPI   C2321621   1.479   3.395   7.209  1.0098 -0.5563 -0.1547
  188SAPI   H3R21622   1.405   3.412   7.128  0.9345 -1.0164 -0.1861
  188SAPI   H3S21623   1.544   3.485   7.218 -0.3021  0.3164  1.0247
  188SAPI   C2421624   1.412   3.401   7.345  0.6967  0.1810 -0.3974
  188SAPI   H4R21625   1.373   3.505   7.355  1.4765  0.3782  0.9740
  188SAPI   H4S21626   1.494   3.378   7.417  0.0019 -0.6540  0.1560
  188SAPI   C2521627   1.287   3.314   7.359  0.0722  0.0471 -0.0385
  188SAPI   H5R21628   1.250   3.281   7.261 -0.2792 -0.8907  0.4058
  188SAPI   C2621629   1.224   3.296   7.475  0.0056 -0.0814  0.2778
  188SAPI   H6R21630   1.127   3.246   7.464 -1.3972  2.6335 -0.6030
  188SAPI   C2721631   1.265   3.349   7.611  0.0673  0.6174  0.5559
  188SAPI   H7R21632   1.345   3.425   7.597  0.2208 -0.0358 -3.2378
  188SAPI   H7S21633   1.318   3.264   7.660 -0.8208  0.4420  1.2276
  188SAPI   C2821634   1.152   3.383   7.698 -0.0595  0.7315 -0.6796
  188SAPI   H8R21635   1.054   3.403   7.653 -0.3179  0.2299 -0.3428
  188SAPI   C2921636   1.144   3.381   7.827  0.3597 -0.5227  0.1432
  188SAPI   H9R21637   1.050   3.416   7.872  1.6834  2.1661  1.0355
  188SAPI  C21021638   1.251   3.347   7.929  0.1373 -0.2884 -0.0649
  188SAPI  H10R21639   1.281   3.445   7.970 -1.7065  0.4958 -0.5030
  188SAPI  H10S21640   1.343   3.323   7.871  0.8167  0.4545  0.6820
  188SAPI  C21121641   1.212   3.246   8.038 -0.1545 -0.0800 -0.3901
  188SAPI  H11R21642   1.146   3.163   8.009  0.1576 -0.0754 -1.1274
  188SAPI  C21221643   1.228   3.254   8.173  0.2051  0.6915 -0.0600
  188SAPI  H12R21644   1.199   3.166   8.233  0.0066  0.7604 -0.0508
  188SAPI  C21321645   1.302   3.363   8.245  0.5078  0.7381  0.0674
  188SAPI  H13R21646   1.307   3.457   8.185  1.9788  0.3917 -0.4111
  188SAPI  H13S21647   1.408   3.328   8.251  0.5863  0.8717 -0.4808
  188SAPI  C21421648   1.257   3.406   8.385  0.9422 -0.2653  0.0461
  188SAPI  H14R21649   1.216   3.507   8.394 -1.9832 -1.3822  0.2760
  188SAPI  C21521650   1.266   3.329   8.495  0.2716  0.6258 -0.6175
  188SAPI  H15R21651   1.234   3.364   8.594  0.4004  0.9258 -0.6823
  188SAPI  C21621652   1.309   3.181   8.499 -0.2121  0.0778 -0.1310
  188SAPI  H16R21653   1.317   3.130   8.400  2.5829  1.0249 -0.4934
  188SAPI  H16S21654   1.234   3.121   8.554 -0.5926  0.6010 -0.0678
  188SAPI  C21721655   1.448   3.169   8.565  0.4403 -0.1360  1.0117
  188SAPI  H17R21656   1.444   3.217   8.665  0.2411 -1.5644  1.7064
  188SAPI  H17S21657   1.522   3.225   8.504  1.5979 -1.5563  1.0604
  188SAPI  C21821658   1.509   3.031   8.567 -0.0391 -0.1875  0.1517
  188SAPI  H18R21659   1.496   2.981   8.469 -2.4085 -2.1440  1.3346
  188SAPI  H18S21660   1.458   2.967   8.643  0.5956  0.9193  1.5674
  188SAPI  C21921661   1.652   3.055   8.603 -0.3499 -0.4948  0.4376
  188SAPI  H19R21662   1.656   3.123   8.691  2.5220 -0.9976  0.8160
  188SAPI  H19S21663   1.706   3.105   8.520  0.4248  0.5586  1.5372
  188SAPI  C22021664   1.735   2.936   8.643 -0.1689  1.4691 -0.6021
  188SAPI  H20R21665   1.762   2.875   8.554 -0.1172  1.5391 -0.6343
  188SAPI  H20S21666   1.682   2.865   8.709 -0.5301  1.8758 -0.4505
  188SAPI  H20T21667   1.828   2.971   8.693  1.2488  0.9639 -2.7471
  188SAPI   C3321668   1.552   2.698   7.577  0.2829  0.6024  0.1293
  188SAPI   H3X21669   1.489   2.607   7.568 -2.2365  2.0044  2.1593
  188SAPI   H3Y21670   1.482   2.784   7.579 -0.6883 -0.0587 -2.0306
  188SAPI   C3421671   1.637   2.674   7.700 -0.1598 -0.1475  0.3799
  188SAPI   H4X21672   1.724   2.741   7.711 -1.6717  1.8270  0.8815
  188SAPI   H4Y21673   1.680   2.572   7.691 -0.5001 -0.1245 -2.9006
  188SAPI   C3521674   1.554   2.674   7.834 -0.2615  0.1556 -0.2700
  188SAPI   H5X21675   1.468   2.604   7.845 -0.9636  1.2127  1.4543
  188SAPI   H5Y21676   1.503   2.773   7.846  0.3459  0.4865 -0.3801
  188SAPI   C3621677   1.636   2.646   7.957  0.5318 -0.2307 -0.9439
  188SAPI   H6X21678   1.716   2.723   7.958 -0.7865  1.2002 -0.7927
  188SAPI   H6Y21679   1.693   2.551   7.949 -0.6855 -0.9755 -1.1077
  188SAPI   C3721680   1.552   2.651   8.079  0.1717  0.3115 -0.7990
  188SAPI   H7X21681   1.485   2.562   8.079 -0.8954  1.0867 -0.7171
  188SAPI   H7Y21682   1.485   2.740   8.073  0.6746  0.7281 -0.2644
  188SAPI   C3821683   1.629   2.665   8.212  0.7759  0.2989 -0.0098
  188SAPI   H8X21684   1.668   2.765   8.243  2.0758  0.1844 -1.1573
  188SAPI   H8Y21685   1.714   2.594   8.202  0.1624 -0.4199 -0.1927
  188SAPI   C3921686   1.547   2.638   8.333 -0.8791  0.5706 -0.3422
  188SAPI   H9X21687   1.478   2.552   8.317  2.2637 -2.0830 -0.7972
  188SAPI   H9Y21688   1.488   2.729   8.357 -0.1522  0.1244  3.7660
  188SAPI  C31021689   1.635   2.614   8.460 -0.0822  0.0650 -0.1448
  188SAPI  H10X21690   1.712   2.693   8.450  0.7861 -0.9750 -2.5377
  188SAPI  H10Y21691   1.688   2.518   8.440 -1.0727 -0.2019 -1.7140
  188SAPI  C31121692   1.551   2.600   8.584  0.0069  0.4342  0.1807
  188SAPI  H11X21693   1.474   2.521   8.571  0.7413 -0.5046  1.3037
  188SAPI  H11Y21694   1.492   2.692   8.603 -0.6532  0.2004 -0.7048
  188SAPI  C31221695   1.628   2.569   8.721 -0.6152 -0.3395  0.4879
  188SAPI  H12X21696   1.707   2.646   8.735 -1.4395  1.1778 -2.4845
  188SAPI  H12Y21697   1.676   2.470   8.704 -1.7964 -0.7564 -0.5123
  188SAPI  C31321698   1.531   2.559   8.833  0.4037 -0.5234 -0.0725
  188SAPI  H13X21699   1.446   2.492   8.811 -1.1827  0.5645  2.3282
  188SAPI  H13Y21700   1.477   2.655   8.849 -1.6523 -1.4019 -1.4639
  188SAPI  C31421701   1.595   2.500   8.959  0.7256 -0.0868 -0.1620
  188SAPI  H14X21702   1.617   2.393   8.941  1.5465  0.1807 -0.8266
  188SAPI  H14Y21703   1.517   2.509   9.038  0.2621  2.0074 -0.7884
  188SAPI  C31521704   1.728   2.568   9.008 -0.6042 -0.1371 -0.2442
  188SAPI  H15X21705   1.813   2.548   8.939  1.3377  1.7877  1.4382
  188SAPI  H15Y21706   1.760   2.519   9.102 -1.4297  0.0837  0.1596
  188SAPI  C31621707   1.729   2.719   9.020 -0.2430 -0.3070  0.2964
  188SAPI  H16X21708   1.653   2.763   9.089 -0.1222  0.4969 -0.0738
  188SAPI  H16Y21709   1.696   2.753   8.920 -3.2729 -0.7795  1.0209
  188SAPI  C31721710   1.861   2.788   9.063 -0.2312 -0.1946 -0.0665
  188SAPI  H17X21711   1.942   2.752   8.996 -0.3829 -0.9809  0.1605
  188SAPI  H17Y21712   1.881   2.756   9.167 -2.4678 -1.1101  0.1347
  188SAPI  C31821713   1.857   2.942   9.048  0.3055  0.4268  0.2566
  188SAPI  H18X21714   1.848   2.964   8.939 -0.3027 -1.1044 -0.0385
  188SAPI  H18Y21715   1.951   2.981   9.092  0.2663 -1.5890  2.3107
  188SAPI  H18Z21716   1.768   2.971   9.108 -0.4326 -1.2228  0.0174
  189POPC     N21717   0.508   1.255  11.529 -0.1027 -0.0698 -0.1012
  189POPC   C1221718   0.539   1.377  11.441 -0.1616 -0.6767  0.2349
  189POPC  H12A21719   0.644   1.404  11.445 -0.4833  1.2715 -1.9849
  189POPC  H12B21720   0.499   1.472  11.474  2.7064  0.5353  0.5513
  189POPC   C1321721   0.361   1.207  11.519  0.3887 -0.6949 -0.0569
  189POPC  H13A21722   0.333   1.115  11.569 -0.3757 -0.7383 -0.5502
  189POPC  H13B21723   0.302   1.291  11.552 -1.0069 -1.3954 -0.6857
  189POPC  H13C21724   0.324   1.198  11.418 -1.9908  0.6332  0.6069
  189POPC   C1421725   0.586   1.129  11.495  0.3210 -0.0379 -0.3602
  189POPC  H14A21726   0.689   1.127  11.529  0.0204 -0.3417  0.5735
  189POPC  H14B21727   0.538   1.040  11.533 -0.7355 -0.7353 -3.0675
  189POPC  H14C21728   0.587   1.114  11.388 -1.3077 -0.4086 -0.3435
  189POPC   C1521729   0.537   1.298  11.673 -0.0172  0.2359  0.0513
  189POPC  H15A21730   0.466   1.376  11.695 -1.8674 -1.1067 -0.8697
  189POPC  H15B21731   0.639   1.334  11.671 -0.0219  0.2161 -1.1388
  189POPC  H15C21732   0.525   1.221  11.748 -0.1318  1.3119  1.1714
  189POPC   C1121733   0.505   1.366  11.290 -0.2385  0.0648 -0.0292
  189POPC  H11A21734   0.561   1.280  11.246  0.8712  1.7276 -2.0539
  189POPC  H11B21735   0.548   1.453  11.236  1.5730 -2.1708 -2.4319
  189POPC     P21736   0.278   1.477  11.242 -0.0931  0.4098 -0.0749
  189POPC   O1321737   0.333   1.586  11.321 -0.2496  0.2665  0.4916
  189POPC   O1421738   0.133   1.447  11.256  0.1020 -0.3279  0.7605
  189POPC   O1221739   0.364   1.348  11.269  0.5960  0.2521  0.0991
  189POPC   O1121740   0.298   1.495  11.086 -0.2576  0.0423 -0.3519
  189POPC    C121741   0.310   1.384  10.991 -0.4005  0.1823  1.3656
  189POPC    HA21742   0.225   1.313  11.000  0.0823 -0.5932  0.0269
  189POPC    HB21743   0.399   1.322  11.015 -1.4909 -2.5736 -1.1413
  189POPC    C221744   0.328   1.439  10.844 -0.4257 -0.8119  0.1615
  189POPC    HS21745   0.409   1.515  10.843 -1.0847 -0.0894  0.4699
  189POPC   O2121746   0.201   1.500  10.811 -0.0139  0.2060 -0.1597
  189POPC   C2121747   0.200   1.596  10.719 -0.0127  0.3086 -0.1795
  189POPC   O2221748   0.303   1.635  10.662  0.2965 -0.7946 -0.5111
  189POPC   C2221749   0.055   1.647  10.697 -0.3896 -0.6656 -0.7295
  189POPC   H2R21750   0.057   1.736  10.630 -2.4361 -0.8526 -1.1092
  189POPC   H2S21751   0.012   1.664  10.798 -2.7161 -0.3046 -1.7172
  189POPC    C321752   0.374   1.333  10.738  0.0958  0.0743 -0.5895
  189POPC    HX21753   0.297   1.252  10.744  0.6949 -0.5788 -1.3771
  189POPC    HY21754   0.463   1.281  10.780 -0.0332  0.2722 -0.0680
  189POPC   O3121755   0.379   1.372  10.601  0.4678  0.0334  0.3309
  189POPC   C3121756   0.500   1.435  10.564 -0.4145  0.5905 -0.9013
  189POPC   O3221757   0.585   1.463  10.647  0.3297 -0.1912 -0.5911
  189POPC   C3221758   0.496   1.469  10.415 -0.6052 -1.1836  0.2831
  189POPC   H2X21759   0.422   1.551  10.402 -0.2191 -1.0363 -1.0710
  189POPC   H2Y21760   0.460   1.379  10.361 -2.6553 -0.3956  0.2139
  189POPC   C2321761  -0.032   1.536  10.639  0.6548 -0.2260 -0.2598
  189POPC   H3R21762  -0.137   1.558  10.666  0.9155 -1.0554  1.5479
  189POPC   H3S21763  -0.014   1.436  10.683  0.9979  0.1091  0.3684
  189POPC   C2421764  -0.032   1.522  10.488  0.0128 -0.5294 -0.2313
  189POPC   H4R21765  -0.088   1.604  10.437 -2.5986 -1.8224  0.3947
  189POPC   H4S21766  -0.086   1.427  10.471 -0.0381 -0.4524 -0.5124
  189POPC   C2521767   0.108   1.498  10.428 -0.5913 -0.8778 -0.9699
  189POPC   H5R21768   0.153   1.415  10.486  0.8539  0.0861 -0.6589
  189POPC   H5S21769   0.165   1.591  10.449 -0.6708 -0.9963 -0.2105
  189POPC   C2621770   0.114   1.466  10.279  0.2579  0.4613  0.5938
  189POPC   H6R21771   0.054   1.373  10.267  0.4517  0.2321  1.3871
  189POPC   H6S21772   0.216   1.434  10.248 -0.9899 -0.5418 -2.9654
  189POPC   C2721773   0.052   1.577  10.193  0.3423 -0.7965  0.1257
  189POPC   H7R21774   0.095   1.678  10.211 -0.5490 -0.3446 -0.2556
  189POPC   H7S21775  -0.054   1.590  10.220  0.5464  0.4019  0.3881
  189POPC   C2821776   0.063   1.548  10.044 -0.5911  0.5080 -0.7636
  189POPC   H8R21777   0.017   1.634   9.992 -1.7598 -0.3199 -1.1554
  189POPC   H8S21778   0.003   1.461  10.010 -0.4157  0.2863 -0.5093
  189POPC   C2921779   0.206   1.537   9.998 -0.3287  0.0468  1.0770
  189POPC   H9121780   0.286   1.553  10.072  0.3428 -1.4335  0.7122
  189POPC  C21021781   0.244   1.500   9.874 -0.7685 -0.0385 -0.8745
  189POPC  H10121782   0.352   1.492   9.852 -0.1821 -1.8143  2.0908
  189POPC  C21121783   0.153   1.458   9.761 -0.1013  0.2159  0.2613
  189POPC  H11R21784   0.047   1.481   9.783 -0.8222 -1.7201 -0.8997
  189POPC  H11S21785   0.146   1.347   9.767 -0.9655  0.0213 -2.7926
  189POPC  C21221786   0.184   1.507   9.612  0.5902  0.3032  0.0110
  189POPC  H12R21787   0.179   1.618   9.603  2.6756  0.3581 -1.2449
  189POPC  H12S21788   0.103   1.456   9.555  1.7105 -2.8421  1.0095
  189POPC  C21321789   0.327   1.457   9.576  0.3535 -0.6642 -0.2594
  189POPC  H13R21790   0.340   1.351   9.608  1.1028  0.1565  2.4260
  189POPC  H13S21791   0.404   1.521   9.624 -0.6807  1.6536 -1.5301
  189POPC  C21421792   0.346   1.452   9.424 -0.2477 -0.3000  0.2776
  189POPC  H14R21793   0.340   1.557   9.388  0.4190  0.2993  1.8345
  189POPC  H14S21794   0.257   1.393   9.392 -0.5467 -0.5819  1.5493
  189POPC  C21521795   0.481   1.395   9.382 -0.3567  0.4107  0.1554
  189POPC  H15R21796   0.487   1.289   9.415 -1.5872  1.0110  2.4828
  189POPC  H15S21797   0.562   1.447   9.438  0.4568 -1.3850  0.7380
  189POPC  C21621798   0.505   1.401   9.234 -0.5968  0.5727  0.1502
  189POPC  H16R21799   0.606   1.358   9.220 -0.2462  1.3518  0.2277
  189POPC  H16S21800   0.513   1.504   9.192  0.2695  0.0819 -0.9359
  189POPC  C21721801   0.404   1.318   9.149 -0.4907 -0.3019 -0.1242
  189POPC  H17R21802   0.304   1.351   9.183 -0.4827 -0.4008 -0.0032
  189POPC  H17S21803   0.409   1.211   9.177 -1.1155 -1.0416 -2.5358
  189POPC  C21821804   0.405   1.329   8.999  0.1348  0.7719  0.4576
  189POPC  H18R21805   0.373   1.228   8.965  0.4263  1.4395 -1.9477
  189POPC  H18S21806   0.505   1.356   8.960  0.8425 -1.3895  0.6319
  189POPC  H18T21807   0.331   1.408   8.976 -2.4545 -0.8466  2.5625
  189POPC   C3321808   0.624   1.518  10.352  0.0468  0.8516  0.0962
  189POPC   H3X21809   0.702   1.439  10.351 -0.7444  0.0453  0.5817
  189POPC   H3Y21810   0.665   1.608  10.403  2.9547 -1.5370  2.3525
  189POPC   C3421811   0.596   1.553  10.211 -0.4266  0.2553  0.8886
  189POPC   H4X21812   0.503   1.612  10.200  0.4318  1.4561 -0.4106
  189POPC   H4Y21813   0.575   1.461  10.154 -0.1069 -0.2282  1.5410
  189POPC   C3521814   0.700   1.643  10.148 -0.2638 -0.3158 -0.6598
  189POPC   H5X21815   0.708   1.728  10.219  2.9031 -1.8480  1.0307
  189POPC   H5Y21816   0.679   1.688  10.048 -0.9223  3.1415  0.8994
  189POPC   C3621817   0.831   1.571  10.149  0.3924  0.0871  0.5030
  189POPC   H6X21818   0.818   1.467  10.110  0.1752 -0.5644  2.2152
  189POPC   H6Y21819   0.869   1.564  10.253 -3.3472  1.4353  2.1244
  189POPC   C3721820   0.935   1.643  10.071  0.1396 -0.5655  0.5696
  189POPC   H7X21821   1.030   1.591  10.098  0.7016  0.0241 -0.2001
  189POPC   H7Y21822   0.936   1.744  10.119 -0.9560 -0.2795  0.0014
  189POPC   C3821823   0.915   1.673   9.922 -0.1438  0.6121  0.0056
  189POPC   H8X21824   0.819   1.728   9.917 -0.2430  0.7267  2.1412
  189POPC   H8Y21825   0.909   1.580   9.861  2.4400 -0.3212  1.0166
  189POPC   C3921826   1.039   1.749   9.860  0.4012  0.5581 -0.7977
  189POPC   H9X21827   1.128   1.681   9.855  0.4425  0.4358  0.8550
  189POPC   H9Y21828   1.053   1.829   9.935 -1.8032 -0.6808  1.0683
  189POPC  C31021829   1.005   1.806   9.720 -0.2781  0.3902 -0.1361
  189POPC  H10X21830   0.955   1.901   9.747  0.1532  0.2861  1.0744
  189POPC  H10Y21831   0.930   1.742   9.667  0.3460 -0.1585 -0.3715
  189POPC  C31121832   1.130   1.832   9.633 -0.0170  0.4214 -0.0799
  189POPC  H11X21833   1.186   1.736   9.628 -1.3656 -0.3947 -0.0073
  189POPC  H11Y21834   1.196   1.903   9.687  0.0691 -0.0082  0.3913
  189POPC  C31221835   1.122   1.882   9.484 -0.2142 -0.3372 -0.2216
  189POPC  H12X21836   1.225   1.891   9.444  0.4922  0.2027  1.6308
  189POPC  H12Y21837   1.088   1.987   9.482  0.8170  0.0135  0.2076
  189POPC  C31321838   1.040   1.801   9.388 -0.6529 -0.0082  0.2102
  189POPC  H13X21839   1.034   1.856   9.292 -1.0613  1.1228  0.8629
  189POPC  H13Y21840   0.936   1.793   9.425 -0.0582 -1.4920  1.6777
  189POPC  C31421841   1.091   1.661   9.354  0.5990  0.4779 -0.0860
  189POPC  H14X21842   1.098   1.608   9.451 -0.9091  0.1526 -0.1298
  189POPC  H14Y21843   1.190   1.661   9.302  0.5365  1.5581 -0.2293
  189POPC  C31521844   0.985   1.587   9.273 -0.1226  0.6531 -0.3350
  189POPC  H15X21845   1.041   1.492   9.255  0.6973  1.0580  0.0039
  189POPC  H15Y21846   0.976   1.634   9.173  0.9992 -2.0316 -1.8004
  189POPC  C31621847   0.847   1.552   9.336 -0.0664 -0.1967  0.3346
  189POPC  H16X21848   0.791   1.496   9.258 -1.1192  1.7318 -0.3541
  189POPC  H16Y21849   0.790   1.645   9.354  1.0523  0.5471  0.1618
  189POPC  H16Z21850   0.859   1.485   9.424  0.9824 -1.3988 -0.6815
  190POPC     N21851   3.526   0.724  11.370  0.3978  0.0259 -0.7276
  190POPC   C1221852   3.395   0.664  11.399  0.3799  0.0950  0.8142
  190POPC  H12A21853   3.353   0.738  11.466 -0.4945 -0.6045  1.0548
  190POPC  H12B21854   3.409   0.580  11.466  1.1051  0.0155  0.5676
  190POPC   C1321855   3.509   0.847  11.290 -0.2138 -0.6413 -0.0648
  190POPC  H13A21856   3.469   0.829  11.191  1.2064  2.8303 -1.4303
  190POPC  H13B21857   3.438   0.912  11.340 -0.7558 -0.0739 -1.5086
  190POPC  H13C21858   3.604   0.891  11.263  0.6147 -1.9238  0.6803
  190POPC   C1421859   3.601   0.758  11.495 -0.0022 -0.2511  0.6249
  190POPC  H14A21860   3.626   0.669  11.549  0.8270 -1.1073 -1.0864
  190POPC  H14B21861   3.689   0.808  11.456 -1.8927  0.7003 -2.8837
  190POPC  H14C21862   3.546   0.832  11.551  0.3683  0.4472  0.0864
  190POPC   C1521863   3.609   0.631  11.286 -0.3613  0.4188 -0.6115
  190POPC  H15A21864   3.696   0.688  11.259 -0.1075  0.8171  0.9341
  190POPC  H15B21865   3.543   0.619  11.201 -0.2000 -0.2408 -0.6475
  190POPC  H15C21866   3.627   0.533  11.329  1.1680  1.5556  1.5616
  190POPC   C1121867   3.307   0.620  11.276 -0.3019 -0.1816 -0.1131
  190POPC  H11A21868   3.320   0.686  11.188  0.6010 -0.5901 -0.2989
  190POPC  H11B21869   3.198   0.620  11.298 -0.0052 -0.1715  1.4611
  190POPC     P21870   3.280   0.361  11.255 -0.1497  0.7991  0.1926
  190POPC   O1321871   3.144   0.364  11.200 -0.2338  0.0845 -0.2292
  190POPC   O1421872   3.289   0.334  11.400  0.6326  0.2596 -0.5596
  190POPC   O1221873   3.352   0.494  11.225  0.3442 -0.1072 -0.6190
  190POPC   O1121874   3.374   0.254  11.179 -0.4074 -0.1777  0.4767
  190POPC    C121875   3.498   0.275  11.114 -0.7040 -0.4401 -0.5454
  190POPC    HA21876   3.558   0.182  11.118  0.2133  0.1826  1.4119
  190POPC    HB21877   3.554   0.362  11.154 -1.2757  0.0621 -0.8077
  190POPC    C221878   3.484   0.297  10.959  0.2790 -0.2641  0.4776
  190POPC    HS21879   3.591   0.311  10.934  0.3164  2.8765  1.8652
  190POPC   O2121880   3.408   0.413  10.942 -0.1433 -0.2685  0.7187
  190POPC   C2121881   3.463   0.533  10.945 -0.5229  0.4829 -0.9661
  190POPC   O2221882   3.584   0.548  10.968 -0.6699 -0.6353 -0.1260
  190POPC   C2221883   3.371   0.651  10.904 -0.2874  0.0678 -0.3985
  190POPC   H2R21884   3.382   0.731  10.981 -1.3031 -0.1921  0.0246
  190POPC   H2S21885   3.268   0.612  10.910 -0.3325  0.1646 -0.5377
  190POPC    C321886   3.411   0.185  10.883  0.5359  0.0027  0.3962
  190POPC    HX21887   3.304   0.186  10.915  0.6363  1.2889  0.7644
  190POPC    HY21888   3.458   0.086  10.897  2.3662  0.3918 -2.1908
  190POPC   O3121889   3.417   0.214  10.741  0.1157 -0.5757 -0.4835
  190POPC   C3121890   3.354   0.137  10.660  0.3433 -0.3420 -0.1666
  190POPC   O3221891   3.298   0.032  10.689 -0.1151  0.0731  0.3800
  190POPC   C3221892   3.338   0.212  10.532  0.5682 -0.0025 -0.3546
  190POPC   H2X21893   3.434   0.264  10.514  0.0220  1.1217 -0.1002
  190POPC   H2Y21894   3.259   0.288  10.546  0.2255 -0.1687 -1.3476
  190POPC   C2321895   3.414   0.715  10.768  0.7306  1.2176  0.3997
  190POPC   H3R21896   3.523   0.710  10.745  0.5457 -3.0101 -0.4415
  190POPC   H3S21897   3.375   0.818  10.766 -2.0803  0.2153 -0.5719
  190POPC   C2421898   3.351   0.635  10.644  0.5208  0.6813 -1.0085
  190POPC   H4R21899   3.244   0.628  10.673  0.5596 -0.7305 -1.1206
  190POPC   H4S21900   3.395   0.533  10.646 -0.6298  0.1750 -0.5182
  190POPC   C2521901   3.367   0.696  10.505 -0.4463 -0.3857  0.0512
  190POPC   H5R21902   3.474   0.715  10.480 -0.7389  0.4741 -0.6404
  190POPC   H5S21903   3.341   0.804  10.509  1.6117  0.2266 -1.1231
  190POPC   C2621904   3.283   0.630  10.384  0.0857 -0.3193  0.1218
  190POPC   H6R21905   3.176   0.650  10.406  0.0021 -0.8887  0.2322
  190POPC   H6S21906   3.303   0.522  10.366 -0.7876 -0.2821 -1.1713
  190POPC   C2721907   3.291   0.695  10.245 -0.2531 -0.5020  0.0073
  190POPC   H7R21908   3.394   0.719  10.210  0.0471 -0.7664  0.7062
  190POPC   H7S21909   3.247   0.797  10.247  1.3189  0.1918  0.1606
  190POPC   C2821910   3.235   0.613  10.130  0.7431  0.2495  0.0072
  190POPC   H8R21911   3.213   0.684  10.047 -1.6215 -0.5297 -0.1131
  190POPC   H8S21912   3.139   0.569  10.164  2.1965 -1.6494  1.8752
  190POPC   C2921913   3.321   0.497  10.096  0.3549 -0.1048  0.1422
  190POPC   H9121914   3.404   0.477  10.166  0.8671 -0.1144 -0.4589
  190POPC  C21021915   3.314   0.432   9.976  0.9041  0.2540 -0.3822
  190POPC  H10121916   3.375   0.343   9.962  2.1354  0.8229  1.0950
  190POPC  C21121917   3.214   0.464   9.866 -0.4629 -0.4606  0.2991
  190POPC  H11R21918   3.109   0.484   9.895  0.1221 -0.5212  2.7225
  190POPC  H11S21919   3.205   0.381   9.792 -2.2516  1.2975 -1.5485
  190POPC  C21221920   3.266   0.584   9.777 -0.9237 -0.4543 -0.7112
  190POPC  H12R21921   3.372   0.569   9.749 -0.0815 -1.1199  2.4493
  190POPC  H12S21922   3.270   0.667   9.851  1.3440  0.0378 -1.3230
  190POPC  C21321923   3.169   0.628   9.669 -0.0604 -0.1725  0.5050
  190POPC  H13R21924   3.182   0.738   9.666 -1.2985 -0.0218  0.2262
  190POPC  H13S21925   3.060   0.612   9.687 -0.6145  2.9866  0.6397
  190POPC  C21421926   3.195   0.570   9.528 -0.1820  0.1321 -0.1667
  190POPC  H14R21927   3.163   0.464   9.537 -1.1328  0.5067  1.2388
  190POPC  H14S21928   3.306   0.576   9.517  0.2184 -2.7194  1.2594
  190POPC  C21521929   3.116   0.658   9.430 -0.7550  0.0667 -0.4338
  190POPC  H15R21930   3.155   0.761   9.440 -0.8144  0.0054  0.5511
  190POPC  H15S21931   3.007   0.659   9.450 -0.7751 -0.2369 -0.5141
  190POPC  C21621932   3.147   0.624   9.287 -0.0288 -0.6568  0.4089
  190POPC  H16R21933   3.254   0.605   9.266  0.2175  1.6098 -0.5908
  190POPC  H16S21934   3.107   0.708   9.227 -0.6553 -1.4703 -0.3368
  190POPC  C21721935   3.075   0.495   9.233 -0.6826  0.5491 -1.1823
  190POPC  H17R21936   2.964   0.500   9.246 -0.4804  1.6750  0.4232
  190POPC  H17S21937   3.112   0.409   9.293 -2.4520  1.0151  0.7140
  190POPC  C21821938   3.114   0.465   9.087 -0.1964  0.1178  0.2549
  190POPC  H18R21939   3.058   0.378   9.048 -0.7545 -0.2306  1.7425
  190POPC  H18S21940   3.224   0.452   9.080  0.3205  3.9611 -1.2382
  190POPC  H18T21941   3.097   0.546   9.013  2.4057 -1.0089 -1.7436
  190POPC   C3321942   3.282   0.127  10.419 -0.5443 -0.2869 -0.2698
  190POPC   H3X21943   3.172   0.113  10.434 -0.9777  0.8498 -2.1311
  190POPC   H3Y21944   3.333   0.028  10.424  0.5660  0.1958 -1.6778
  190POPC   C3421945   3.303   0.187  10.278 -0.3770 -0.1553  0.8495
  190POPC   H4X21946   3.413   0.195  10.261 -0.4883  0.0843  0.2131
  190POPC   H4Y21947   3.262   0.291  10.274 -0.0829 -0.0732 -0.7604
  190POPC   C3521948   3.231   0.095  10.181 -0.3608  0.0445 -0.1689
  190POPC   H5X21949   3.252  -0.010  10.212  0.4609  0.2717  0.0587
  190POPC   H5Y21950   3.276   0.105  10.080 -1.2073  2.4780 -0.3727
  190POPC   C3621951   3.085   0.122  10.176  1.7845 -0.6650  0.0381
  190POPC   H6X21952   3.060   0.218  10.126  1.4016 -1.7963 -2.0552
  190POPC   H6Y21953   3.033   0.129  10.274 -0.1951 -3.5522 -0.6481
  190POPC   C3721954   3.006   0.009  10.099 -0.0609 -0.2038  0.2201
  190POPC   H7X21955   2.901   0.030  10.128  0.2487 -0.3588  1.5698
  190POPC   H7Y21956   3.021  -0.090  10.148  2.2384  0.6154  1.3299
  190POPC   C3821957   3.002   0.015   9.949 -0.0262  0.0462  0.2459
  190POPC   H8X21958   3.109   0.021   9.918  0.3293  0.0100  1.4301
  190POPC   H8Y21959   2.953   0.109   9.914  0.9900  0.3860 -0.3101
  190POPC   C3921960   2.943  -0.110   9.875 -0.3969 -0.8366  0.3146
  190POPC   H9X21961   2.845  -0.135   9.921 -1.2871  0.3868 -0.8286
  190POPC   H9Y21962   3.020  -0.188   9.893  1.4839  0.8113 -0.2013
  190POPC  C31021963   2.929  -0.081   9.723  0.5140  0.3885  0.1918
  190POPC  H10X21964   2.857   0.004   9.718 -0.8509 -0.6654  1.1521
  190POPC  H10Y21965   2.895  -0.172   9.669 -0.5928  2.1270 -2.2241
  190POPC  C31121966   3.055  -0.029   9.651  0.1427  0.1155 -0.2570
  190POPC  H11X21967   3.138  -0.096   9.683 -0.3107  0.2005  1.1463
  190POPC  H11Y21968   3.073   0.073   9.691 -0.2185  0.6262 -1.3333
  190POPC  C31221969   3.032  -0.043   9.503  0.7791 -0.0882 -0.4537
  190POPC  H12X21970   2.941   0.018   9.482  1.3735  1.2889  0.7587
  190POPC  H12Y21971   3.003  -0.148   9.481  0.6994  0.2235 -1.8772
  190POPC  C31321972   3.144   0.009   9.418 -0.4290  0.0558 -0.7036
  190POPC  H13X21973   3.229  -0.060   9.436 -2.1123 -1.6954  1.0481
  190POPC  H13Y21974   3.178   0.112   9.440  1.6190 -0.9640  1.2934
  190POPC  C31421975   3.103  -0.002   9.271  0.6749 -0.0743 -0.5967
  190POPC  H14X21976   3.009   0.046   9.237  0.8041  0.3964 -0.2983
  190POPC  H14Y21977   3.100  -0.112   9.256 -1.4852 -0.0340 -0.7282
  190POPC  C31521978   3.210   0.069   9.179 -0.8831  0.2075  0.2954
  190POPC  H15X21979   3.305   0.021   9.210 -1.0100 -0.3482 -0.1571
  190POPC  H15Y21980   3.208   0.175   9.211 -4.5559 -0.3468  2.4807
  190POPC  C31621981   3.195   0.064   9.025 -0.1907  0.8373 -0.0320
  190POPC  H16X21982   3.274   0.123   8.975 -0.5244  1.3548  0.0452
  190POPC  H16Y21983   3.098   0.112   8.998  0.5353  2.4538  0.1555
  190POPC  H16Z21984   3.189  -0.040   8.986  1.8606  0.8493 -0.4665
  191POPC     N21985   2.622   1.437   6.165  0.1983 -0.4177  0.3250
  191POPC   C1221986   2.727   1.330   6.182 -0.4120  0.7349  0.3126
  191POPC  H12A21987   2.802   1.358   6.255  0.4808  1.2664 -0.7700
  191POPC  H12B21988   2.778   1.306   6.089  1.1407 -1.9850  1.7523
  191POPC   C1321989   2.677   1.547   6.081  0.1964  0.1226  0.2615
  191POPC  H13A21990   2.698   1.511   5.981  0.2796  1.3617 -0.1844
  191POPC  H13B21991   2.630   1.644   6.086  0.7004  0.4754 -1.2020
  191POPC  H13C21992   2.774   1.571   6.121 -0.1204 -0.6713  1.5486
  191POPC   C1421993   2.499   1.382   6.091  0.1107 -0.6093  0.3022
  191POPC  H14A21994   2.439   1.464   6.055  0.1795 -0.5619  0.2958
  191POPC  H14B21995   2.521   1.309   6.015  0.3438  0.7597 -0.9753
  191POPC  H14C21996   2.444   1.321   6.162  0.6022  0.1036  1.3307
  191POPC   C1521997   2.586   1.500   6.293 -0.2453  0.6019  0.5845
  191POPC  H15A21998   2.559   1.411   6.348  2.9739 -1.7147 -1.2225
  191POPC  H15B21999   2.499   1.564   6.288 -0.4981  0.2532  0.4224
  191POPC  H15C22000   2.671   1.542   6.344  1.3731 -0.5700 -0.9837
  191POPC   C1122001   2.673   1.193   6.227 -0.4218 -0.3402  0.5447
  191POPC  H11A22002   2.752   1.115   6.223  0.1281  0.1590  1.2755
  191POPC  H11B22003   2.597   1.163   6.152 -1.2544  0.1559  1.1694
  191POPC     P22004   2.706   1.211   6.486  0.0897  0.2983 -0.5791
  191POPC   O1322005   2.618   1.252   6.601  0.4675  0.0404  0.7853
  191POPC   O1422006   2.830   1.294   6.455 -0.8872  0.0413 -0.0480
  191POPC   O1222007   2.615   1.197   6.356  0.4792  0.3952  0.4113
  191POPC   O1122008   2.750   1.057   6.506  0.0169 -0.5458  0.4103
  191POPC    C122009   2.662   0.943   6.497 -0.3549  0.7143  0.2688
  191POPC    HA22010   2.713   0.885   6.417  2.8116  1.0099  1.8919
  191POPC    HB22011   2.557   0.966   6.470 -0.4684 -2.3734 -2.5315
  191POPC    C222012   2.666   0.858   6.630  0.8940  0.0712  0.1722
  191POPC    HS22013   2.594   0.774   6.624  1.6169 -0.4504 -2.0038
  191POPC   O2122014   2.644   0.939   6.747 -0.4612  0.1680  0.1460
  191POPC   C2122015   2.538   1.004   6.753 -0.1478 -0.0786 -0.2190
  191POPC   O2222016   2.434   0.987   6.688  0.3025  0.3581 -0.1063
  191POPC   C2222017   2.555   1.098   6.873  0.3872  0.4169 -0.7027
  191POPC   H2R22018   2.660   1.132   6.866  1.1353 -1.3705  1.0512
  191POPC   H2S22019   2.541   1.031   6.960 -1.0639 -1.4983 -2.2891
  191POPC    C322020   2.808   0.804   6.639  0.7997  0.1729  0.4134
  191POPC    HX22021   2.883   0.882   6.664  2.9021 -1.9584  1.1048
  191POPC    HY22022   2.833   0.776   6.534 -1.6394 -0.3612 -0.0811
  191POPC   O3122023   2.815   0.705   6.742  1.0039 -0.2170  0.3604
  191POPC   C3122024   2.780   0.585   6.707 -0.7549  0.0103  0.3598
  191POPC   O3222025   2.743   0.551   6.595  0.0595  0.5371 -0.1097
  191POPC   C3222026   2.784   0.491   6.825 -0.6284 -0.3717 -0.1486
  191POPC   H2X22027   2.785   0.389   6.781 -0.1072 -0.3551 -0.1764
  191POPC   H2Y22028   2.694   0.498   6.890 -1.3346  0.7331 -1.2081
  191POPC   C2322029   2.451   1.220   6.896 -0.6700 -0.0373  0.0513
  191POPC   H3R22030   2.351   1.177   6.916 -0.8029 -0.5995 -1.6845
  191POPC   H3S22031   2.448   1.267   6.795  0.4194 -2.5175 -1.2196
  191POPC   C2422032   2.501   1.300   7.014  0.0225  1.0223  0.3908
  191POPC   H4R22033   2.433   1.387   7.014  0.7532  1.6030  0.1973
  191POPC   H4S22034   2.608   1.331   7.016  0.2371  0.3651 -0.3847
  191POPC   C2522035   2.482   1.221   7.151  0.6782 -0.5382 -0.0566
  191POPC   H5R22036   2.537   1.125   7.160 -0.4397 -1.1021  1.0358
  191POPC   H5S22037   2.376   1.191   7.162  0.7350 -0.0837  2.2199
  191POPC   C2622038   2.512   1.314   7.280  0.2085  0.0694  0.1911
  191POPC   H6R22039   2.458   1.411   7.271  2.4345  1.4280  0.7731
  191POPC   H6S22040   2.620   1.337   7.269  0.2730  0.6027  1.7631
  191POPC   C2722041   2.470   1.236   7.415  0.0133  0.0994 -0.2916
  191POPC   H7R22042   2.544   1.259   7.494  0.0938 -0.3067 -0.2495
  191POPC   H7S22043   2.466   1.131   7.380 -1.5458 -0.6220  1.9105
  191POPC   C2822044   2.329   1.273   7.454 -0.1807 -0.0274 -0.2497
  191POPC   H8R22045   2.287   1.205   7.531 -0.2057  1.6928  1.3213
  191POPC   H8S22046   2.273   1.254   7.360  1.3117  0.0673 -1.1885
  191POPC   C2922047   2.312   1.418   7.503  0.1548  0.4027  0.5544
  191POPC   H9122048   2.343   1.493   7.429  0.7947 -1.3029 -0.9902
  191POPC  C21022049   2.277   1.456   7.631  0.6483  0.2271  0.4181
  191POPC  H10122050   2.268   1.560   7.665  0.1714  0.2425  0.2466
  191POPC  C21122051   2.254   1.355   7.745 -0.4678 -0.1725  0.6719
  191POPC  H11R22052   2.347   1.356   7.806 -0.6473  0.4276  0.9442
  191POPC  H11S22053   2.221   1.252   7.721  1.6742 -0.2033 -2.8628
  191POPC  C21222054   2.150   1.405   7.846 -0.1606  0.0268  0.1311
  191POPC  H12R22055   2.137   1.327   7.923 -0.5790 -0.7978 -0.7545
  191POPC  H12S22056   2.054   1.422   7.793  0.0609  0.1450 -0.2384
  191POPC  C21322057   2.192   1.541   7.903  0.2679 -0.3847 -0.1288
  191POPC  H13R22058   2.129   1.616   7.852  0.1532 -0.4346 -0.0625
  191POPC  H13S22059   2.302   1.553   7.890  0.2805  0.3778  0.6015
  191POPC  C21422060   2.169   1.540   8.058 -0.0059 -0.6174  0.1782
  191POPC  H14R22061   2.237   1.471   8.112 -0.8526 -0.4464  1.5054
  191POPC  H14S22062   2.064   1.506   8.068  0.0941 -0.6606  1.1639
  191POPC  C21522063   2.186   1.678   8.128 -0.0755  0.5043  0.2373
  191POPC  H15R22064   2.113   1.743   8.074  0.5559  0.4143 -0.7385
  191POPC  H15S22065   2.286   1.725   8.123  1.3141 -2.2047  0.9288
  191POPC  C21622066   2.148   1.664   8.274 -0.1499  0.0515  0.3043
  191POPC  H16R22067   2.206   1.574   8.305 -0.3841 -0.0778  0.3729
  191POPC  H16S22068   2.043   1.629   8.276 -1.6852  3.9992 -1.5089
  191POPC  C21722069   2.160   1.794   8.355 -0.0710  0.9094  0.2370
  191POPC  H17R22070   2.123   1.880   8.296 -1.3993  0.2738  0.1048
  191POPC  H17S22071   2.264   1.830   8.363 -0.0422  0.4154  3.1223
  191POPC  C21822072   2.100   1.785   8.489 -0.2585  0.4172 -1.0217
  191POPC  H18R22073   2.100   1.886   8.536 -1.0878  0.0520 -0.2002
  191POPC  H18S22074   2.174   1.728   8.550  0.8213  1.2072 -1.5628
  191POPC  H18T22075   2.000   1.742   8.510  0.1249  0.1554  0.4417
  191POPC   C3322076   2.918   0.518   6.901 -0.5114  0.4721  0.3516
  191POPC   H3X22077   2.908   0.612   6.958 -0.4597 -0.3006  1.6924
  191POPC   H3Y22078   3.003   0.514   6.829 -1.1857 -1.5592 -0.3988
  191POPC   C3422079   2.959   0.412   7.001 -0.8396  0.3100  0.5510
  191POPC   H4X22080   3.053   0.453   7.044 -0.4976  1.4082 -1.1651
  191POPC   H4Y22081   2.981   0.316   6.949  1.6766  1.4513 -0.6746
  191POPC   C3522082   2.842   0.381   7.107  0.7500  0.3228  0.6943
  191POPC   H5X22083   2.788   0.294   7.063 -0.1460  0.1908  2.0122
  191POPC   H5Y22084   2.761   0.456   7.115  0.5049  0.3321 -1.2878
  191POPC   C3622085   2.889   0.331   7.241  0.2189 -0.6145 -0.3019
  191POPC   H6X22086   2.999   0.327   7.229  0.2799 -0.2698  0.1191
  191POPC   H6Y22087   2.845   0.233   7.269 -2.8148  0.8021  0.3465
  191POPC   C3722088   2.863   0.437   7.352  0.0020  0.1528  0.5892
  191POPC   H7X22089   2.754   0.458   7.360  0.0831  1.2276 -0.7433
  191POPC   H7Y22090   2.912   0.529   7.312  1.0365 -0.2800  0.8241
  191POPC   C3822091   2.919   0.400   7.484  0.0744  0.5564  0.4564
  191POPC   H8X22092   3.027   0.429   7.484  0.6406 -1.3815  1.0153
  191POPC   H8Y22093   2.914   0.290   7.501  0.0441  0.4066 -0.5134
  191POPC   C3922094   2.846   0.473   7.597 -0.6526 -0.2385 -0.0089
  191POPC   H9X22095   2.736   0.471   7.581 -0.4786  1.6837 -1.9137
  191POPC   H9Y22096   2.864   0.583   7.590 -3.2429  0.2783  0.4425
  191POPC  C31022097   2.895   0.434   7.738  0.1715  0.1035  0.1190
  191POPC  H10X22098   3.002   0.464   7.746  0.2139 -0.4165  2.2236
  191POPC  H10Y22099   2.901   0.324   7.756  0.0401  0.0603 -0.0951
  191POPC  C31122100   2.815   0.503   7.845 -0.2789 -0.1266 -1.2930
  191POPC  H11X22101   2.715   0.459   7.862  0.4827 -1.6551 -0.5451
  191POPC  H11Y22102   2.806   0.608   7.809  0.2106  0.5381  0.4456
  191POPC  C31222103   2.880   0.485   7.983 -0.5675 -0.3146 -0.5333
  191POPC  H12X22104   2.982   0.528   7.976 -1.1588  0.8962 -2.3815
  191POPC  H12Y22105   2.906   0.377   7.989 -1.5537 -0.4950  0.7171
  191POPC  C31322106   2.801   0.533   8.102  0.0213  0.2536 -0.5322
  191POPC  H13X22107   2.708   0.473   8.104  1.1851 -1.6129 -0.0790
  191POPC  H13Y22108   2.773   0.640   8.095  0.5752  0.8438  3.4719
  191POPC  C31422109   2.882   0.525   8.234  0.1065 -0.0857  0.2982
  191POPC  H14X22110   2.964   0.597   8.213 -2.2523  2.6739  0.0247
  191POPC  H14Y22111   2.906   0.418   8.254  1.5227 -0.1889 -1.6388
  191POPC  C31522112   2.813   0.591   8.360  0.2402 -0.4575 -0.1568
  191POPC  H15X22113   2.781   0.695   8.341 -0.9656 -0.4684  1.5432
  191POPC  H15Y22114   2.895   0.598   8.434  1.2084 -0.0725 -1.2437
  191POPC  C31622115   2.691   0.527   8.433  0.3679 -0.3927  0.3693
  191POPC  H16X22116   2.633   0.595   8.499 -0.4494 -1.0772  0.3824
  191POPC  H16Y22117   2.720   0.436   8.490  1.3286  0.7975  1.8635
  191POPC  H16Z22118   2.608   0.501   8.363 -1.4349  0.6013  2.0145
  192POPC     N22119   2.262   4.864   6.668 -0.1026 -0.1898  0.2402
  192POPC   C1222120   2.117   4.882   6.628 -0.5158 -0.1119  0.0698
  192POPC  H12A22121   2.078   4.966   6.684  0.3192  0.7499 -0.6130
  192POPC  H12B22122   2.062   4.803   6.677 -0.1647 -0.2478  0.2514
  192POPC   C1322123   2.279   4.881   6.813  0.6440 -0.9652  0.2101
  192POPC  H13A22124   2.375   4.924   6.838 -0.1733  1.6362 -0.7521
  192POPC  H13B22125   2.213   4.963   6.839  0.8536 -0.8091  0.2472
  192POPC  H13C22126   2.255   4.790   6.865 -0.5610 -0.9373 -0.2631
  192POPC   C1422127   2.315   4.731   6.623  0.1504  0.0413 -0.2434
  192POPC  H14A22128   2.422   4.727   6.609  0.4747 -1.4736  2.0215
  192POPC  H14B22129   2.301   4.652   6.695  1.8374 -0.1890 -0.1161
  192POPC  H14C22130   2.268   4.693   6.534 -0.4419 -2.9736  1.2083
  192POPC   C1522131   2.340   4.978   6.607  0.0752 -0.5407 -0.1048
  192POPC  H15A22132   2.331   5.074   6.655 -0.3983 -0.0059 -1.2222
  192POPC  H15B22133   2.310   4.997   6.505  3.2792  0.1538 -1.0210
  192POPC  H15C22134   2.447   4.965   6.605  0.4709  2.0359  0.8661
  192POPC   C1122135   2.070   4.896   6.482 -0.8123 -0.1225 -0.1345
  192POPC  H11A22136   2.135   4.972   6.433 -2.7093  2.0748  0.5632
  192POPC  H11B22137   1.969   4.941   6.469 -1.6468 -2.4133 -2.3355
  192POPC     P22138   1.970   4.659   6.452  0.3906 -0.0326 -0.0405
  192POPC   O1322139   2.028   4.524   6.444 -0.0638 -0.3483  1.0925
  192POPC   O1422140   1.850   4.689   6.374  0.1570  0.8022  0.3943
  192POPC   O1222141   2.080   4.768   6.411 -0.5228 -0.2889  0.1869
  192POPC   O1122142   1.936   4.678   6.601  0.5678  0.1420 -0.2809
  192POPC    C122143   1.971   4.580   6.699 -0.6916 -0.0012  0.0406
  192POPC    HA22144   2.078   4.574   6.730 -1.0862 -2.6203  1.2128
  192POPC    HB22145   1.938   4.479   6.665 -0.2959  0.1705 -0.8677
  192POPC    C222146   1.897   4.595   6.838  0.5091 -0.2818  0.4369
  192POPC    HS22147   1.787   4.589   6.822  0.1685 -0.1540  2.5231
  192POPC   O2122148   1.926   4.725   6.893  0.0983  0.2969  0.2204
  192POPC   C2122149   1.829   4.791   6.954 -0.0267 -0.1867  0.0858
  192POPC   O2222150   1.712   4.752   6.959 -0.2251 -0.2803  0.5521
  192POPC   C2222151   1.886   4.916   7.020  0.2900  0.3415  0.0123
  192POPC   H2R22152   1.832   4.998   6.967  2.2526 -0.0622 -2.8949
  192POPC   H2S22153   1.997   4.924   7.019  0.2262  1.4830  0.3306
  192POPC    C322154   1.943   4.478   6.933  0.3544 -0.3894 -0.1159
  192POPC    HX22155   2.053   4.481   6.922  0.1722 -0.0714 -2.3162
  192POPC    HY22156   1.917   4.376   6.895  0.4007 -0.1223 -0.8897
  192POPC   O3122157   1.899   4.504   7.072  0.1707 -0.2574  0.1521
  192POPC   C3122158   1.771   4.457   7.082  0.0101  0.0401 -0.0326
  192POPC   O3222159   1.710   4.392   7.002  0.4658 -0.0221  0.3809
  192POPC   C3222160   1.720   4.488   7.224  0.0876 -0.0036  0.2776
  192POPC   H2X22161   1.610   4.469   7.225  0.2469 -1.0387 -0.4927
  192POPC   H2Y22162   1.731   4.597   7.244 -1.1367  0.2851 -0.5141
  192POPC   C2322163   1.846   4.928   7.165  0.2214  1.3010  0.3183
  192POPC   H3R22164   1.741   4.899   7.185 -0.0532  2.5542  0.7736
  192POPC   H3S22165   1.855   5.036   7.191  0.2775  1.1237  1.0592
  192POPC   C2422166   1.943   4.855   7.256  0.5843  0.4372  0.4015
  192POPC   H4R22167   2.049   4.878   7.233  0.5397  1.3316  1.0375
  192POPC   H4S22168   1.926   4.747   7.235 -1.7015  1.0450 -1.3070
  192POPC   C2522169   1.940   4.882   7.408  0.4832  0.2109  0.3405
  192POPC   H5R22170   1.961   4.988   7.433 -1.0085  0.8194 -0.8461
  192POPC   H5S22171   2.026   4.820   7.443 -0.3804 -1.2134  0.0115
  192POPC   C2622172   1.813   4.852   7.484  0.3643 -0.3360 -0.2044
  192POPC   H6R22173   1.771   4.754   7.450  0.6087  0.0063 -1.5454
  192POPC   H6S22174   1.739   4.932   7.463 -2.3229 -2.5739  0.1456
  192POPC   C2722175   1.837   4.861   7.637  0.7141 -0.3239 -0.0807
  192POPC   H7R22176   1.850   4.970   7.654 -0.5732  0.2830 -2.4891
  192POPC   H7S22177   1.933   4.821   7.675  0.8174  0.8792  0.9436
  192POPC   C2822178   1.723   4.810   7.724  0.0510  0.4592 -0.8815
  192POPC   H8R22179   1.753   4.812   7.831 -2.3794 -2.0434 -0.0220
  192POPC   H8S22180   1.706   4.702   7.701  0.3082  0.3801 -0.6996
  192POPC   C2922181   1.593   4.893   7.707 -0.0020  0.4153  0.4304
  192POPC   H9122182   1.554   4.897   7.604 -1.4246  1.1399  0.9695
  192POPC  C21022183   1.531   4.972   7.798 -0.0797  0.0169 -0.0262
  192POPC  H10122184   1.434   5.013   7.766 -0.3765 -0.1674  0.6257
  192POPC  C21122185   1.562   4.986   7.942 -0.2516 -0.3961 -0.1251
  192POPC  H11R22186   1.644   5.058   7.963  0.0992 -0.8114 -0.0509
  192POPC  H11S22187   1.590   4.890   7.990  3.2186 -0.0444 -1.1497
  192POPC  C21222188   1.429   5.032   8.009 -0.2142 -0.2235  0.5771
  192POPC  H12R22189   1.383   5.112   7.947 -0.0013 -1.0738 -0.7152
  192POPC  H12S22190   1.450   5.087   8.104 -0.2878  0.5875  0.1347
  192POPC  C21322191   1.324   4.927   8.038  1.1297 -0.6375  0.6787
  192POPC  H13R22192   1.303   4.867   7.947  0.7119  0.7132 -0.1413
  192POPC  H13S22193   1.233   4.986   8.062  1.2521 -0.3584  0.4571
  192POPC  C21422194   1.364   4.829   8.155  0.1574 -0.7171 -0.1032
  192POPC  H14R22195   1.468   4.846   8.193  0.7388 -0.7502 -1.6263
  192POPC  H14S22196   1.357   4.724   8.119  0.8182 -1.1078  0.8437
  192POPC  C21522197   1.271   4.830   8.281 -0.4523 -0.7614  0.5302
  192POPC  H15R22198   1.170   4.813   8.238 -0.4138  1.1234 -0.4043
  192POPC  H15S22199   1.266   4.934   8.320  1.6242 -0.6155  0.5084
  192POPC  C21622200   1.318   4.720   8.387  0.5070  0.4624 -0.1512
  192POPC  H16R22201   1.418   4.750   8.425  0.0620 -0.0246  1.4785
  192POPC  H16S22202   1.311   4.627   8.328 -0.6458  0.4377  0.0072
  192POPC  C21722203   1.208   4.702   8.497  0.6290 -0.2363  0.0133
  192POPC  H17R22204   1.232   4.612   8.557 -0.0250 -0.8946 -0.6963
  192POPC  H17S22205   1.118   4.683   8.435  1.3724  0.4134 -1.3146
  192POPC  C21822206   1.193   4.821   8.583  0.2275 -0.3489 -0.9859
  192POPC  H18R22207   1.113   4.810   8.660  0.9294  3.5022  0.4990
  192POPC  H18S22208   1.157   4.900   8.514 -0.8137 -0.6498 -0.8082
  192POPC  H18T22209   1.287   4.856   8.630 -0.2707  1.1478 -1.0477
  192POPC   C3322210   1.784   4.397   7.331  0.0842  0.2380 -0.0011
  192POPC   H3X22211   1.787   4.293   7.290  0.4434  1.2945 -2.9077
  192POPC   H3Y22212   1.721   4.411   7.421 -0.3000  0.1899 -0.2583
  192POPC   C3422213   1.931   4.426   7.363 -0.4013 -0.3757  0.1406
  192POPC   H4X22214   1.953   4.533   7.385  1.7698 -0.4135 -1.4236
  192POPC   H4Y22215   1.999   4.413   7.275 -0.5765  0.0143 -0.0547
  192POPC   C3522216   1.969   4.352   7.487  0.0936  0.1356 -0.7854
  192POPC   H5X22217   2.079   4.338   7.482  0.0179 -0.9696  0.2242
  192POPC   H5Y22218   1.941   4.245   7.484 -0.7793  0.2872  0.8753
  192POPC   C3622219   1.925   4.418   7.626 -0.2576  0.4630  0.2619
  192POPC   H6X22220   1.814   4.417   7.628 -0.2683 -1.8233  1.0038
  192POPC   H6Y22221   1.971   4.519   7.629  1.5458 -0.3406  0.9826
  192POPC   C3722222   1.980   4.335   7.743 -0.1040 -0.9685 -0.3728
  192POPC   H7X22223   2.091   4.331   7.735 -0.1517  0.5312 -2.7576
  192POPC   H7Y22224   1.937   4.233   7.746  0.2930 -1.1188  0.8169
  192POPC   C3822225   1.937   4.399   7.879 -0.7922  0.4541  0.1287
  192POPC   H8X22226   1.979   4.325   7.950  1.5289  0.6329 -0.9291
  192POPC   H8Y22227   1.826   4.397   7.882 -0.8412 -1.2879 -1.2093
  192POPC   C3922228   1.981   4.540   7.905 -0.8180 -0.1221 -0.0962
  192POPC   H9X22229   1.930   4.611   7.836  1.1023  2.7939  1.2953
  192POPC   H9Y22230   2.092   4.548   7.895 -0.3204 -1.0606  3.3316
  192POPC  C31022231   1.949   4.583   8.051  0.0224 -0.0972 -0.1969
  192POPC  H10X22232   2.020   4.666   8.074  1.2262 -0.1503 -3.1890
  192POPC  H10Y22233   1.968   4.498   8.119  0.2040 -1.1241 -1.5006
  192POPC  C31122234   1.801   4.626   8.066  0.7643  0.2400  0.7817
  192POPC  H11X22235   1.744   4.573   7.987  0.2936  2.1067 -0.1784
  192POPC  H11Y22236   1.799   4.731   8.029 -3.0922 -0.2429 -0.8425
  192POPC  C31222237   1.747   4.617   8.207 -0.1680 -0.8337  0.3533
  192POPC  H12X22238   1.650   4.671   8.218  0.7746  0.4262  3.8653
  192POPC  H12Y22239   1.819   4.656   8.282 -1.2201  0.4104  0.7619
  192POPC  C31322240   1.726   4.469   8.260  0.3444 -0.0047  0.1533
  192POPC  H13X22241   1.793   4.468   8.349 -1.1401  2.3754  1.4130
  192POPC  H13Y22242   1.755   4.397   8.181  0.0866  1.7671 -1.6562
  192POPC  C31422243   1.591   4.451   8.317  0.2491  0.0372 -0.1574
  192POPC  H14X22244   1.517   4.455   8.235 -0.7844  1.4680  0.8018
  192POPC  H14Y22245   1.568   4.532   8.389  1.3122  0.1406  0.0843
  192POPC  C31522246   1.585   4.321   8.396  0.2709  0.6105 -0.0405
  192POPC  H15X22247   1.650   4.242   8.353  0.9809  0.0860  1.8842
  192POPC  H15Y22248   1.481   4.283   8.391 -0.0384  1.5088 -3.5444
  192POPC  C31622249   1.625   4.328   8.543  0.1351 -0.0946 -0.4271
  192POPC  H16X22250   1.713   4.396   8.554  0.8014 -0.9690 -0.2540
  192POPC  H16Y22251   1.673   4.237   8.585  1.4206 -0.0824 -1.7600
  192POPC  H16Z22252   1.543   4.355   8.613  1.5899 -1.5526  1.9983
  193SOD    SOD22253   6.588   2.132   6.195  0.4064  0.3905 -0.1956
  194SOD    SOD22254   3.900   5.205  16.434 -0.4765 -0.1045 -0.3077
  195SOD    SOD22255   2.571   2.639   5.255  0.5013 -0.2703  0.7063
  196SOD    SOD22256   6.313   0.331   2.539 -0.1440 -0.7951 -0.0933
  197SOD    SOD22257   0.473   2.272   1.329  0.2068  0.0623 -0.5480
  198SOD    SOD22258   4.392   2.339   1.138 -0.2717 -0.7402  0.3393
  199SOD    SOD22259   2.694   3.070  15.221 -0.2103 -0.7039  0.5617
  200SOD    SOD22260   0.188   6.561  14.190  0.1323  0.2357 -0.3907
  201SOD    SOD22261   2.670   6.192   0.777 -0.5126 -1.0680 -0.0192
  202SOD    SOD22262   0.168   3.842  14.394 -0.3689 -0.0170 -0.1808
  203SOD    SOD22263   3.332   3.230   6.195 -0.3340 -0.1452  0.1080
  204SOD    SOD22264   0.911   0.847  11.392  0.1200  0.4355 -0.1309
  205SOD    SOD22265   3.916   3.535  17.398  0.4349 -0.1618 -0.1647
  206SOD    SOD22266   6.668   4.305  11.256 -0.0552 -0.0549 -0.4300
  207SOD    SOD22267   2.571   2.169   6.363  0.1976  0.4379 -0.1424
  208SOD    SOD22268   5.941   2.044  12.383  0.0244 -0.1797  0.0087
  209SOD    SOD22269   2.440   4.583   3.203 -0.4866  0.3665  0.1336
  210SOD    SOD22270   3.205   4.900  13.916 -0.0244  0.6141 -0.2999
  211SOD    SOD22271   0.143   4.113   2.010  0.0077  0.8639 -0.2291
  212SOD    SOD22272   0.827   4.979   1.187  0.2135  0.3611 -0.5920
  213SOD    SOD22273   2.935   0.504  14.893  0.0115 -0.0697  0.5702
  214SOD    SOD22274   2.136   2.851  13.781 -0.3996 -0.1756 -0.0878
  215SOD    SOD22275   4.378   4.082   2.240 -0.3613  0.0917 -0.2395
  216SOD    SOD22276   1.338   6.684  11.777 -0.5779  0.3167 -0.5535
  217SOD    SOD22277   3.351   4.589  12.612 -0.0998 -0.5536 -0.3060
  218SOD    SOD22278   2.397   5.684  12.844  0.2449 -0.2445 -0.1207
  219SOD    SOD22279   6.355   0.697   5.901  0.0634  0.5585 -0.0335
  220SOD    SOD22280   4.412   1.278   2.052 -0.3562 -0.7536 -0.0370
  221SOD    SOD22281   1.962   5.883   5.448  0.2880 -0.2847  0.2227
  222SOD    SOD22282   4.462   4.114   0.584  0.1949  0.0089  0.3659
  223SOD    SOD22283   4.769   3.532   5.372 -0.1818  0.1684 -0.1320
  224SOD    SOD22284   1.085   0.585  15.513 -0.5983  0.0348 -0.6661
  225SOD    SOD22285   0.845   0.335   6.945  0.2412 -0.3910 -0.0907
  226SOD    SOD22286   6.458   5.653  15.659  0.1235  0.5746  0.2503
  227SOD    SOD22287   3.031   2.978   5.398  0.1350  0.2230  0.0958
  228SOD    SOD22288   3.026   4.104  10.773  0.7249 -0.1969 -0.7907
  229SOD    SOD22289   1.844   0.767  13.236 -0.0824  0.3860  0.0922
  230SOD    SOD22290   6.264   5.251  11.077 -0.2721 -0.4706 -0.2074
  231SOD    SOD22291   0.995   5.928  16.903  0.2608  0.3031 -0.4939
  232SOD    SOD22292   0.623   6.338   6.654 -0.0315  0.4528  0.0863
  233SOD    SOD22293   2.236   5.037   0.560 -0.0435  0.0540  0.5047
  234SOD    SOD22294   0.241   2.265  11.413 -0.3090 -0.4090  0.0961
  235SOD    SOD22295   2.049   0.906   3.546  0.0193  0.1422 -0.2938
  236SOD    SOD22296   1.347   5.242  16.167  0.0810 -0.6443  0.8604
  237SOD    SOD22297   4.955   3.370  12.065 -0.1558  0.4490 -0.4306
  238SOD    SOD22298   0.962   4.192  13.999  0.0285 -0.3545  0.2635
  239SOD    SOD22299   2.121   3.429   1.527 -0.1554 -0.0915  0.2461
  240SOD    SOD22300   4.948   0.017   6.888 -0.2462 -0.7366 -0.6368
  241SOD    SOD22301   6.149   0.038  12.216  0.1315  0.0311  0.1773
  242SOD    SOD22302   2.970   0.196  15.624 -0.0520  0.3921 -0.0251
  243SOD    SOD22303   0.042   6.242  11.149 -0.0068  0.3076  0.0886
  244SOD    SOD22304   0.893   5.973   5.185  0.2762 -0.3233 -0.0088
  245SOD    SOD22305   3.044   0.898  17.006 -0.0505 -0.2041 -0.6271
  246SOD    SOD22306   0.022   4.990  11.898  0.2695 -0.2414 -0.0478
  247SOD    SOD22307   0.114   0.656   4.947 -0.0279 -0.2351  0.1093
  248SOD    SOD22308   6.695   0.468  10.828 -0.3516 -0.0446 -0.4755
  249SOD    SOD22309   6.018   4.238   6.577 -0.0388 -0.2375  0.0227
  250SOD    SOD22310   1.471   3.220  13.524 -0.2957  0.5435  0.0560
  251SOD    SOD22311   1.241   4.226   3.361  0.4340  0.2296 -0.1249
  252SOD    SOD22312   3.143   0.697   2.941 -0.0893 -0.1298  0.0537
  253SOD    SOD22313   4.465   0.794   0.715  0.2834  0.2862  0.1107
  254SOD    SOD22314   5.037   2.437   1.881  0.0467 -0.5527  0.3065
  255SOD    SOD22315   0.724   4.323   4.024 -0.6081  0.0172  0.3921
  256SOD    SOD22316   5.192   0.650   3.383 -0.0471 -0.2346  0.0796
  257SOD    SOD22317   1.136   4.397   0.256 -0.3954  0.6372  0.1259
  258SOD    SOD22318   2.799   5.574  10.891 -0.2460 -0.1241 -0.1899
  259SOD    SOD22319   5.318   1.022  11.623 -0.1842  0.5958 -0.0077
  260SOD    SOD22320   0.612   1.576   3.788 -0.0057  0.2212  0.4851
  261SOD    SOD22321   1.574   1.512   6.032 -0.1066 -0.2949  0.2016
  262SOD    SOD22322   5.149   6.286  14.419  0.4828 -0.4064 -0.1334
  263SOD    SOD22323   5.915   5.905  14.908  0.0853 -0.4741  0.5060
  264SOD    SOD22324   3.685   3.870  13.922  0.6869 -0.4937 -0.2225
  265SOD    SOD22325   0.793   0.314  17.058  0.0431  0.1594  0.1995
  266SOD    SOD22326   4.758   4.710   6.249 -0.5912 -0.0455  0.2148
  267SOD    SOD22327   1.134   0.036   4.061  0.1040  0.2384 -0.5000
  268SOD    SOD22328   5.265   3.477   1.050  0.1447 -0.5882  0.0810
  269SOD    SOD22329   6.010   2.708   2.726 -0.1137 -0.2667  0.1402
  270CLA    CLA22330   2.558   1.938   0.893 -0.2322 -0.4061 -0.0077
  271CLA    CLA22331   5.482   1.841  15.253  0.1485 -0.4679 -0.4877
  272CLA    CLA22332   6.227   3.417   0.988  0.1022  0.3840 -0.1329
  273CLA    CLA22333   0.358   3.433  17.311  0.3684  0.0652  0.1022
  274CLA    CLA22334   3.434   0.382  16.187 -0.3595 -0.1953 -0.0970
  275CLA    CLA22335   0.679   2.977  12.443 -0.0341 -0.2546  0.2689
  276CLA    CLA22336   1.420   0.323   0.189 -0.2802 -0.0544 -0.2275
  277CLA    CLA22337   6.388   2.265  15.843 -0.0661 -0.1048 -0.0993
  278CLA    CLA22338   4.428   0.452   1.089  0.3867  0.0259 -0.3852
  279CLA    CLA22339   1.885   3.424   1.649 -0.2386  0.0540 -0.1293
  280CLA    CLA22340   1.189   4.880  17.212 -0.2083 -0.3034 -0.4122
  281CLA    CLA22341   5.998   4.507  15.574  0.3470  0.3589 -0.4783
  282CLA    CLA22342   4.411   3.842   1.764 -0.0093  0.3672 -0.0358
  283CLA    CLA22343   4.216   2.642  14.291  0.1918 -0.2682  0.2461
  284CLA    CLA22344   1.540   2.194  11.931 -0.6804 -0.1425 -0.1801
  285CLA    CLA22345   3.002   0.320   4.208 -0.1104 -0.1613 -0.0281
  286CLA    CLA22346   6.223   1.430   2.769 -0.0376 -0.3665  0.1648
  287CLA    CLA22347   4.270   4.158  17.290 -0.0674 -0.1571 -0.0564
  288CLA    CLA22348   3.450   4.597   1.791  0.3069  0.5485 -0.0406
  289CLA    CLA22349   2.933   4.922  17.584 -0.2138 -0.4211  0.2114
  290CLA    CLA22350   0.171   4.400   4.453  0.3256  0.1435  0.1205
  291CLA    CLA22351   3.255   2.410  15.651 -0.0069  0.1927 -0.1218
  292CLA    CLA22352   4.700   2.565  17.523 -0.0238  0.4259  0.2236
  293CLA    CLA22353   6.373   6.409  14.278  0.0038  0.2273  0.1219
  294CLA    CLA22354   5.044   5.199  15.691 -0.3791  0.0864 -0.0496
  295CLA    CLA22355   4.486   0.111   4.761  0.2315 -0.0233  0.0410
  296CLA    CLA22356   6.055   5.720  16.041 -0.2958 -0.2464 -0.5966
  297CLA    CLA22357   0.943   4.430   0.688  0.0280 -0.0125 -0.1115
  298CLA    CLA22358   4.561   3.715   4.186 -0.0650 -0.2240  0.0940
  299CLA    CLA22359   5.283   5.864  13.280 -0.1748  0.2548 -0.1520
  300CLA    CLA22360   4.821   5.123   1.832  0.2754  0.0365 -0.2008
  301CLA    CLA22361   2.799   3.136  13.964  0.2689 -0.4438 -0.0036
  302CLA    CLA22362   1.322   1.014   2.987  0.3469 -0.1308 -0.2276
  303CLA    CLA22363   4.179   4.692  13.724  0.3062  0.3281  0.4581
  304CLA    CLA22364   1.844   3.568   3.753  0.0702  0.2390 -0.2696
  305CLA    CLA22365   0.784   1.617  14.455  0.1351 -0.1191 -0.5787
  306CLA    CLA22366   6.042   4.001   5.498  0.1728  0.1434  0.1711
  307CLA    CLA22367   4.693   3.841   3.114 -0.0232 -0.2722 -0.1839
  308CLA    CLA22368   1.370   3.403  11.085  0.1777  0.1881  0.4180
  309CLA    CLA22369   1.506   5.556  13.640 -0.2819 -0.2249  0.4587
  310CLA    CLA22370   5.686   0.432   3.214 -0.1643  0.3539  0.4067
  311CLA    CLA22371   4.114   5.987   3.079  0.1150  0.2399  0.0661
  312CLA    CLA22372   4.140   4.621   5.377  0.2067  0.5008 -0.2740
  313CLA    CLA22373   0.208   6.654   2.213  0.3452  0.1926 -0.2619
  314CLA    CLA22374   4.143   2.747   1.043 -0.1547 -0.0105  0.0155
  315CLA    CLA22375   0.284   1.994   3.852 -0.2910 -0.4910  0.1357
  316CLA    CLA22376   0.455   0.022   4.020  0.0355 -0.0444 -0.0119
  317CLA    CLA22377   4.870   2.364  12.035 -0.1128  0.0035  0.1287
  318CLA    CLA22378   4.987   6.704  13.500 -0.1605 -0.0166  0.0841
  319CLA    CLA22379   3.632   5.482  14.084  0.1062 -0.1599  0.2293
  320CLA    CLA22380   6.090   2.918   2.295 -0.1132  0.3172 -0.0571
  321CLA    CLA22381   4.435   2.590  13.624  0.3461  0.1548 -0.0405
  322CLA    CLA22382   1.694   6.495  14.846 -0.1333  0.0821  0.4700
  323TIP3   OH222383   0.752   1.158   2.071  0.6549 -0.4081 -0.3392
  323TIP3    H122384   0.824   1.100   2.096  0.3605 -0.2675  0.8909
  323TIP3    H222385   0.780   1.245   2.100  0.3499 -0.2174 -0.6144
  324TIP3   OH222386   2.713   6.244  16.815 -0.4509 -0.6330  0.2304
  324TIP3    H122387   2.732   6.150  16.813  0.4100 -0.4814  0.6256
  324TIP3    H222388   2.798   6.285  16.800 -0.7634  0.0869  0.4148
  325TIP3   OH222389   6.688   3.727  17.498 -0.2429  0.2599  0.3691
  325TIP3    H122390   6.687   3.750  17.405 -2.9129 -1.3748 -0.0989
  325TIP3    H222391   6.766   3.673  17.508 -1.0373 -1.3899 -1.4979
  326TIP3   OH222392   1.132   0.808   2.816  0.0617  0.1461 -0.7610
  326TIP3    H122393   1.196   0.865   2.859 -0.2807 -0.2683  0.3610
  326TIP3    H222394   1.164   0.719   2.832 -0.8645 -0.0787  0.0061
  327TIP3   OH222395   2.425   1.356   4.930  0.1232  0.2997  0.1855
  327TIP3    H122396   2.352   1.298   4.953 -1.2916  2.1649  0.6702
  327TIP3    H222397   2.404   1.386   4.841  1.3919 -0.6986 -0.4805
  328TIP3   OH222398   4.093   1.163  13.237 -0.4495  0.0809  0.7407
  328TIP3    H122399   4.018   1.145  13.293 -0.3547 -1.6384  0.3756
  328TIP3    H222400   4.110   1.256  13.249 -0.6778 -0.1324  3.2473
  329TIP3   OH222401   0.334   1.101  14.352 -0.1347  0.3401  0.0432
  329TIP3    H122402   0.343   1.006  14.345 -1.3854  0.2657 -1.2454
  329TIP3    H222403   0.423   1.134  14.355  0.3506 -0.8277 -0.7251
  330TIP3   OH222404   3.171   0.626   5.121 -0.1529  0.5907 -0.5302
  330TIP3    H122405   3.201   0.573   5.195  1.4234  1.1411 -0.7478
  330TIP3    H222406   3.091   0.668   5.152 -0.6530 -0.7827  0.1326
  331TIP3   OH222407   0.307   0.850  13.120 -0.3656 -0.2563  0.0640
  331TIP3    H122408   0.326   0.920  13.183 -0.8795 -0.2034  0.1623
  331TIP3    H222409   0.308   0.893  13.035  2.2081 -0.6547 -0.1960
  332TIP3   OH222410   5.362   2.341  14.351 -0.1368  0.0587 -0.1174
  332TIP3    H122411   5.376   2.435  14.367  1.2332 -0.1309 -0.0874
  332TIP3    H222412   5.382   2.300  14.435 -2.8383 -0.1326  0.5365
  333TIP3   OH222413   5.333   3.966   3.991  0.0075  0.0479 -0.3240
  333TIP3    H122414   5.301   3.944   3.903  0.7446  0.9814 -0.8543
  333TIP3    H222415   5.418   4.007   3.975  0.5403 -0.5431  0.9042
  334TIP3   OH222416   3.575   1.718   2.955  0.1629  0.3850 -0.5099
  334TIP3    H122417   3.610   1.639   2.995 -2.4768 -1.2720 -1.2233
  334TIP3    H222418   3.547   1.772   3.029 -0.7526 -0.7304 -0.0041
  335TIP3   OH222419   0.598   2.176  11.739  0.0644  0.3590  0.0982
  335TIP3    H122420   0.592   2.086  11.772 -0.0994  1.0711  2.1511
  335TIP3    H222421   0.683   2.180  11.696  0.1349 -0.7273  0.1025
  336TIP3   OH222422   2.377   6.674  16.983 -0.1236 -0.1168  0.3991
  336TIP3    H122423   2.452   6.681  16.924 -0.7404 -0.5828 -0.4653
  336TIP3    H222424   2.301   6.689  16.927 -0.6642  0.6252  1.3196
  337TIP3   OH222425   5.505   0.095   4.713 -0.2334 -0.0989 -0.2361
  337TIP3    H122426   5.476   0.179   4.747 -0.4447  0.7632 -2.3773
  337TIP3    H222427   5.576   0.068   4.771 -0.0827  1.6075  0.4132
  338TIP3   OH222428   4.678   2.913  11.995 -0.0055 -0.0066  0.0667
  338TIP3    H122429   4.606   2.957  11.950  0.3778 -0.2781 -0.8433
  338TIP3    H222430   4.636   2.838  12.038 -0.2000 -0.5226 -0.9714
  339TIP3   OH222431   5.789   5.129   0.033  0.3900 -0.2985 -0.3828
  339TIP3    H122432   5.778   5.124  -0.062  0.1492  0.3338 -0.4002
  339TIP3    H222433   5.858   5.066   0.054 -0.5426 -1.4871 -0.7912
  340TIP3   OH222434   3.453   3.924   4.820  0.4575  0.1151  0.1824
  340TIP3    H122435   3.418   3.952   4.905 -1.6386 -1.8988  0.0915
  340TIP3    H222436   3.408   3.979   4.756 -0.2151 -0.3470  0.2455
  341TIP3   OH222437   3.856   3.392  12.021  0.0054  0.0076  0.0390
  341TIP3    H122438   3.905   3.323  11.975  0.1364  1.1516 -1.6432
  341TIP3    H222439   3.810   3.346  12.091  3.7105 -1.1150  2.0320
  342TIP3   OH222440   6.095   1.636   0.734 -0.0577  0.8866 -0.2673
  342TIP3    H122441   6.080   1.730   0.749  0.3060  0.7397  1.1987
  342TIP3    H222442   6.114   1.601   0.821  0.8804 -0.3673 -0.9452
  343TIP3   OH222443   1.322   6.620   4.112  0.2497  0.0922 -0.5289
  343TIP3    H122444   1.398   6.639   4.058  1.0387 -0.5878  0.2991
  343TIP3    H222445   1.326   6.525   4.126 -1.4121 -0.1463 -1.4154
  344TIP3   OH222446   2.410   2.101   1.821  0.0759  0.0254  0.2435
  344TIP3    H122447   2.476   2.050   1.868 -0.9753 -1.6391  0.0159
  344TIP3    H222448   2.450   2.118   1.735  1.1039  1.1145  0.9038
  345TIP3   OH222449   2.267   0.480  17.395 -0.3675  0.0401 -0.5798
  345TIP3    H122450   2.227   0.554  17.350  1.0054  1.7175  0.8130
  345TIP3    H222451   2.197   0.445  17.451 -0.7526  0.9714 -0.4582
  346TIP3   OH222452   2.052   3.073  13.745 -0.3840  0.2376  0.0926
  346TIP3    H122453   2.117   3.142  13.730  0.2742  0.1174  2.0695
  346TIP3    H222454   1.987   3.114  13.803 -1.6717  0.1107 -1.2210
  347TIP3   OH222455   1.750   2.327   1.084  0.0608  0.5830 -0.3402
  347TIP3    H122456   1.771   2.401   1.027 -1.3760  1.1925 -0.1189
  347TIP3    H222457   1.697   2.364   1.154 -0.9433 -0.7036 -0.3761
  348TIP3   OH222458   0.371   1.938   2.538 -0.0731 -0.5018  0.3656
  348TIP3    H122459   0.354   1.852   2.500 -1.2405 -0.1335  0.0106
  348TIP3    H222460   0.432   1.979   2.477 -0.4446 -0.6315 -0.0966
  349TIP3   OH222461   4.685   5.339  10.857  0.3011  0.3583  0.3594
  349TIP3    H122462   4.739   5.271  10.817  1.2466  0.0090  2.1405
  349TIP3    H222463   4.611   5.350  10.797  0.0991 -2.2610  0.0500
  350TIP3   OH222464   0.470   3.360   6.085  0.0247  0.3888 -0.4712
  350TIP3    H122465   0.479   3.453   6.105  0.4736  0.1316  0.6540
  350TIP3    H222466   0.451   3.356   5.992  1.7270  1.5402 -0.9112
  351TIP3   OH222467   2.831   6.511  16.175 -0.1303  0.6229 -0.4838
  351TIP3    H122468   2.893   6.564  16.126 -0.1907 -0.7037 -2.0746
  351TIP3    H222469   2.767   6.481  16.110 -0.1275 -1.3166  0.3352
  352TIP3   OH222470   2.516   6.486  14.023  0.2969  0.6764  0.2515
  352TIP3    H122471   2.490   6.562  14.076 -1.4565  0.1039  0.2944
  352TIP3    H222472   2.446   6.477  13.958  1.3474  0.1025 -0.8472
  353TIP3   OH222473   0.351   1.650  15.068  0.3155  0.1023  0.0656
  353TIP3    H122474   0.395   1.717  15.016  0.3730 -0.6123 -0.8290
  353TIP3    H222475   0.338   1.691  15.154 -0.8856  1.7727 -0.8547
  354TIP3   OH222476   5.051   5.632  14.252  0.0830 -0.4403  0.3610
  354TIP3    H122477   5.039   5.672  14.338 -2.2226 -1.1864  0.4652
  354TIP3    H222478   5.061   5.706  14.193  1.2971  0.0928  1.2022
  355TIP3   OH222479   1.221   3.112   0.723  0.1345 -0.1798 -0.0451
  355TIP3    H122480   1.306   3.067   0.728 -0.3357 -1.0071  0.9100
  355TIP3    H222481   1.157   3.042   0.724 -0.5939  0.4787  0.2123
  356TIP3   OH222482   0.684   6.171  11.477  0.2354  0.4220  0.1517
  356TIP3    H122483   0.746   6.214  11.419  0.5122  0.0492  0.1639
  356TIP3    H222484   0.736   6.143  11.552 -0.3772  2.1893  1.3022
  357TIP3   OH222485   6.478   6.565  10.657 -0.1577  0.3298  0.0035
  357TIP3    H122486   6.494   6.590  10.748 -0.0454 -0.9409  0.3546
  357TIP3    H222487   6.491   6.470  10.656 -1.0079  0.2079 -1.1569
  358TIP3   OH222488   5.883   6.577  12.927 -0.2440 -0.6118  0.1090
  358TIP3    H122489   5.957   6.563  12.985  0.6958 -0.7920 -1.0879
  358TIP3    H222490   5.810   6.532  12.969  0.4906 -1.0104  0.9777
  359TIP3   OH222491   4.624   3.662  14.391 -0.7175 -0.0002 -0.1835
  359TIP3    H122492   4.695   3.620  14.341 -1.3422 -1.3098 -0.0119
  359TIP3    H222493   4.612   3.747  14.349  0.5123 -0.0267 -0.6256
  360TIP3   OH222494   5.336   2.988   3.724 -0.4470  0.4619 -0.0578
  360TIP3    H122495   5.244   2.963   3.718 -0.4288  0.2650  0.4033
  360TIP3    H222496   5.341   3.072   3.678 -0.9782  0.7584  0.3979
  361TIP3   OH222497   2.814   0.473  15.376 -0.1645 -0.1126 -0.0017
  361TIP3    H122498   2.892   0.437  15.417  0.1747 -0.6115 -1.0556
  361TIP3    H222499   2.813   0.565  15.404  1.0854  0.0339 -0.3818
  362TIP3   OH222500   2.587   4.601   2.986 -0.1612  0.3402  0.4118
  362TIP3    H122501   2.602   4.511   2.959 -0.0189 -0.0742  1.8074
  362TIP3    H222502   2.673   4.634   3.009 -0.5087 -0.0805  2.5390
  363TIP3   OH222503   5.898   5.269   2.229 -0.3330 -0.3853 -0.2836
  363TIP3    H122504   5.895   5.348   2.283 -0.6635 -0.0545 -0.7743
  363TIP3    H222505   5.973   5.221   2.262 -0.7102 -0.3456  0.6780
  364TIP3   OH222506   0.286   1.082  13.343  0.0905 -0.5309  0.2921
  364TIP3    H122507   0.275   1.144  13.271  0.4625  0.0010  0.6803
  364TIP3    H222508   0.200   1.042  13.354 -0.4902  0.8142  0.8288
  365TIP3   OH222509   5.617   2.365   0.778  0.1505 -0.3112  0.1749
  365TIP3    H122510   5.643   2.329   0.863 -0.0202  0.9354  0.7816
  365TIP3    H222511   5.525   2.340   0.769 -0.0113  0.0839  0.6657
  366TIP3   OH222512   4.104   2.604  14.701  0.3498 -0.6589 -0.7362
  366TIP3    H122513   4.065   2.550  14.633 -0.6572 -0.3755 -0.3930
  366TIP3    H222514   4.030   2.644  14.747  0.9675 -1.1674  0.7959
  367TIP3   OH222515   1.786   4.539   2.528 -0.3397  0.5405 -0.0986
  367TIP3    H122516   1.702   4.521   2.487  0.1279 -0.6086 -0.5839
  367TIP3    H222517   1.850   4.492   2.474  0.5303  0.8379  0.6518
  368TIP3   OH222518   1.489   1.219  15.655 -0.2787 -0.5256  0.1214
  368TIP3    H122519   1.470   1.263  15.738  0.4552 -0.1601  0.1037
  368TIP3    H222520   1.495   1.291  15.591 -0.6384 -0.7865 -0.2094
  369TIP3   OH222521   6.712   5.451  17.523 -0.2719 -0.3911 -0.3330
  369TIP3    H122522   6.789   5.399  17.545 -0.2225  0.3775  1.5264
  369TIP3    H222523   6.746   5.540  17.515 -0.9722 -0.0300  0.6356
  370TIP3   OH222524   6.623   2.815   1.155 -0.5450 -0.2774  0.1622
  370TIP3    H122525   6.660   2.795   1.241 -0.5069  1.7832  0.6723
  370TIP3    H222526   6.586   2.903   1.165 -0.3813  0.0743 -1.9913
  371TIP3   OH222527   5.783   4.861  15.365 -0.3943  0.1234 -0.5099
  371TIP3    H122528   5.735   4.787  15.402 -1.5967  1.5132  0.8679
  371TIP3    H222529   5.875   4.835  15.367 -0.8494 -1.6370 -0.8724
  372TIP3   OH222530   4.476   2.521   5.863  0.0643  0.0015  0.2881
  372TIP3    H122531   4.498   2.444   5.916  1.4168 -0.7799 -1.3039
  372TIP3    H222532   4.458   2.485   5.776 -4.7558  0.9350  0.6474
  373TIP3   OH222533   4.541   3.441   5.377  0.1009  0.5296 -0.3229
  373TIP3    H122534   4.467   3.501   5.370 -0.1669  0.2038 -0.2796
  373TIP3    H222535   4.519   3.368   5.321 -0.3621 -0.3332  0.9379
  374TIP3   OH222536   0.151   4.384  14.544 -0.0461 -0.7323 -0.1481
  374TIP3    H122537   0.073   4.331  14.558 -1.0260  0.5044 -0.6965
  374TIP3    H222538   0.119   4.474  14.541  1.4839 -0.1448  0.1813
  375TIP3   OH222539   6.262   4.415  15.420 -0.5058  0.3762 -0.5177
  375TIP3    H122540   6.317   4.393  15.495 -0.1630  1.6317 -0.3748
  375TIP3    H222541   6.174   4.424  15.456 -0.5321 -0.0596 -0.4656
  376TIP3   OH222542   0.386   6.065  12.163  0.1216 -0.3023  0.4792
  376TIP3    H122543   0.386   5.986  12.110  0.4722 -0.3125  0.4928
  376TIP3    H222544   0.443   6.126  12.117  0.4557 -0.3241  0.8610
  377TIP3   OH222545   5.658   5.572   2.774 -0.1894  0.2304 -0.1727
  377TIP3    H122546   5.696   5.486   2.755  0.0257  0.5816 -1.4216
  377TIP3    H222547   5.627   5.604   2.689  0.7126  1.8549  0.0739
  378TIP3   OH222548   0.197   3.971   0.093  0.0963  0.3478  0.0526
  378TIP3    H122549   0.218   3.927   0.010 -0.2471 -1.0689  0.6847
  378TIP3    H222550   0.105   3.994   0.086  0.2282  0.8115 -0.2036
  379TIP3   OH222551   4.421   6.291  13.115 -0.3297 -0.2841 -0.2763
  379TIP3    H122552   4.439   6.368  13.061  0.3294 -0.7137 -0.6714
  379TIP3    H222553   4.505   6.271  13.157 -0.2457 -1.3771 -0.9435
  380TIP3   OH222554   5.602   1.341   1.472  0.6409 -0.0158 -0.2154
  380TIP3    H122555   5.523   1.289   1.483 -0.0476  1.2403  1.0581
  380TIP3    H222556   5.625   1.369   1.560  2.7040 -0.5916 -0.5033
  381TIP3   OH222557   6.582   6.250   3.736  0.0587  0.6256 -0.1839
  381TIP3    H122558   6.663   6.206   3.761 -0.3234 -0.5104 -0.8935
  381TIP3    H222559   6.522   6.233   3.808  0.0992  0.5089 -0.1781
  382TIP3   OH222560   1.660   1.193  12.704  0.5488  0.1577  0.0229
  382TIP3    H122561   1.713   1.255  12.654 -0.5574  1.6044  0.5723
  382TIP3    H222562   1.575   1.236  12.713  0.1697 -0.8296  1.6379
  383TIP3   OH222563   0.194   5.785  13.377 -0.6797  0.1724 -0.3815
  383TIP3    H122564   0.240   5.866  13.360 -0.8966  0.5806  0.8678
  383TIP3    H222565   0.155   5.797  13.464 -2.2590 -0.5524 -0.9505
  384TIP3   OH222566   6.214   0.613   3.499  0.4235 -0.1233  0.0032
  384TIP3    H122567   6.301   0.580   3.477  1.9054  1.9737  2.1287
  384TIP3    H222568   6.153   0.547   3.465  2.6923 -0.7647 -3.2186
  385TIP3   OH222569   5.965   3.800   3.849  0.1517  0.3521 -1.0631
  385TIP3    H122570   5.870   3.799   3.851  0.0052 -1.1199  3.4903
  385TIP3    H222571   5.989   3.892   3.856 -1.0600  0.6101 -0.0450
  386TIP3   OH222572   4.609   6.329  15.547  0.2475 -0.1695 -0.1024
  386TIP3    H122573   4.565   6.273  15.611 -1.1687  0.4251 -0.5145
  386TIP3    H222574   4.649   6.268  15.485  0.5777 -0.7340  0.6522
  387TIP3   OH222575   1.989   1.749   4.379  0.2321 -0.2797  0.3981
  387TIP3    H122576   1.990   1.689   4.453  2.1969 -1.4009 -0.4383
  387TIP3    H222577   1.955   1.831   4.414 -1.1104 -1.4385  1.9368
  388TIP3   OH222578   1.451   1.550   3.421  0.7656  0.2740  0.0627
  388TIP3    H122579   1.508   1.585   3.353  1.6403  0.8323  1.0542
  388TIP3    H222580   1.511   1.515   3.487  0.0955  2.3830  1.9484
  389TIP3   OH222581   3.235   1.326  14.453  0.0862  0.7486  0.6112
  389TIP3    H122582   3.303   1.283  14.400 -1.6350  0.1978 -1.2844
  389TIP3    H222583   3.195   1.255  14.502 -2.0039  0.2439 -1.6621
  390TIP3   OH222584   0.224   0.321  14.511 -0.9011  0.2889 -0.0074
  390TIP3    H122585   0.277   0.244  14.529 -0.2005  0.9106  0.6719
  390TIP3    H222586   0.276   0.371  14.447 -0.9716  0.5894  0.1689
  391TIP3   OH222587   3.863   0.190   4.093 -0.4463 -0.4744  0.1930
  391TIP3    H122588   3.784   0.169   4.143  0.8580 -1.9321  1.7782
  391TIP3    H222589   3.887   0.108   4.050  0.3582 -0.1259 -0.0513
  392TIP3   OH222590   2.647   0.977  17.184 -0.5273  0.4905  0.1549
  392TIP3    H122591   2.733   0.995  17.147 -0.2743  0.1965  0.5867
  392TIP3    H222592   2.597   1.057  17.170  0.2369  1.1576  1.0833
  393TIP3   OH222593   6.222   5.420   5.061 -0.1711  0.6540 -0.0726
  393TIP3    H122594   6.259   5.470   5.134  0.8996 -1.0782  0.6193
  393TIP3    H222595   6.258   5.332   5.071 -1.7010 -0.1864 -1.4697
  394TIP3   OH222596   1.218   3.571   1.884 -0.4162  0.0882 -0.2363
  394TIP3    H122597   1.182   3.597   1.968 -1.0104  1.1117 -0.7841
  394TIP3    H222598   1.293   3.630   1.871  1.0120 -1.4802  0.5258
  395TIP3   OH222599   6.457   4.488  15.594 -0.1678 -0.0503  0.0021
  395TIP3    H122600   6.419   4.574  15.612  0.2076  0.2352 -0.5406
  395TIP3    H222601   6.494   4.459  15.677 -1.7312 -0.4287  0.6093
  396TIP3   OH222602   4.598   5.018  15.970 -0.5403  0.8178 -0.5076
  396TIP3    H122603   4.535   4.998  16.040  0.0885  0.7392  0.0400
  396TIP3    H222604   4.602   5.114  15.969  0.1478  0.8085  0.2079
  397TIP3   OH222605   3.497   0.068  14.122 -0.1269 -0.2966 -0.1202
  397TIP3    H122606   3.502   0.017  14.203 -0.8166 -0.2018 -0.0132
  397TIP3    H222607   3.422   0.127  14.135  1.0801  1.2838  0.0711
  398TIP3   OH222608   3.579   4.430   0.408  0.6025  0.3327  0.3247
  398TIP3    H122609   3.502   4.471   0.368  0.3874  0.9639  1.3612
  398TIP3    H222610   3.545   4.384   0.484  1.2559  0.6991  0.8488
  399TIP3   OH222611   2.541   1.789   1.537 -0.2380  0.0933  0.0806
  399TIP3    H122612   2.566   1.758   1.449 -2.7478 -1.5576 -0.1345
  399TIP3    H222613   2.464   1.738   1.560 -0.3619  1.3265  2.8028
  400TIP3   OH222614   0.618   2.986   0.990 -0.4335 -0.1327  0.2127
  400TIP3    H122615   0.564   2.995   1.069  0.4388 -0.0849  0.8208
  400TIP3    H222616   0.688   3.050   1.002  0.4032 -0.9842 -0.0043
  401TIP3   OH222617   1.148   1.577   5.209  0.3919 -0.0688 -0.2116
  401TIP3    H122618   1.231   1.595   5.252 -0.3129 -0.4711  1.4103
  401TIP3    H222619   1.102   1.661   5.206  0.6150  0.0410 -0.5760
  402TIP3   OH222620   4.769   1.554   5.472  0.2516  0.0599 -0.2359
  402TIP3    H122621   4.685   1.567   5.428 -1.9015 -1.6318  2.9643
  402TIP3    H222622   4.767   1.615   5.546  1.8100 -0.0723 -0.0506
  403TIP3   OH222623   6.139   1.042  11.372  0.0184 -0.0045  0.2086
  403TIP3    H122624   6.195   1.119  11.378 -0.5279  0.7220 -2.5752
  403TIP3    H222625   6.195   0.973  11.338 -0.1185 -0.0398  0.0490
  404TIP3   OH222626   0.138   0.794  15.153 -0.3561  0.6481 -0.5625
  404TIP3    H122627   0.142   0.789  15.058 -0.2668  1.5092 -0.6119
  404TIP3    H222628   0.210   0.738  15.183  0.1572  1.0511 -1.0248
  405TIP3   OH222629   5.135   0.604  14.150 -0.1187 -0.8949 -0.0040
  405TIP3    H122630   5.143   0.578  14.242  2.0880  1.7489  0.7229
  405TIP3    H222631   5.193   0.545  14.103  1.1908 -0.3635  0.8653
  406TIP3   OH222632   1.713   6.419  12.994 -0.3948  0.3058  0.5532
  406TIP3    H122633   1.751   6.374  12.918 -0.9875  1.5698 -0.5371
  406TIP3    H222634   1.777   6.487  13.016 -1.1746  1.3166 -0.1912
  407TIP3   OH222635   1.744   1.977   2.342 -0.0555 -0.3493 -0.2012
  407TIP3    H122636   1.736   1.997   2.249  1.6846 -2.1119 -0.8108
  407TIP3    H222637   1.677   1.911   2.358 -0.2634 -0.1475 -0.2415
  408TIP3   OH222638   0.461   5.821   3.528  0.1192 -0.4788  0.0334
  408TIP3    H122639   0.458   5.889   3.461  0.9694 -0.4916 -0.0273
  408TIP3    H222640   0.460   5.868   3.611 -2.6192 -0.5020  0.0983
  409TIP3   OH222641   4.176   3.731  12.017  0.5148  0.4513  0.3969
  409TIP3    H122642   4.190   3.751  11.925 -0.9608  2.2423  0.4967
  409TIP3    H222643   4.086   3.761  12.035  1.3105  1.6830  2.7750
  410TIP3   OH222644   0.708   6.340  12.324 -0.4093  0.0160  0.1357
  410TIP3    H122645   0.647   6.401  12.282 -2.3508 -3.1067 -1.9994
  410TIP3    H222646   0.652   6.283  12.377  1.2638 -0.2965  1.6592
  411TIP3   OH222647   4.614   5.118   2.755  0.0569  0.9118  0.2981
  411TIP3    H122648   4.666   5.194   2.780  1.0123  1.1421 -2.0977
  411TIP3    H222649   4.554   5.151   2.689 -0.6564 -0.0942  0.4278
  412TIP3   OH222650   4.216   0.566  17.601  0.4752 -0.3619  0.4937
  412TIP3    H122651   4.285   0.505  17.626  0.9510  0.2700  0.7474
  412TIP3    H222652   4.228   0.579  17.507  1.1807  0.3259  0.6724
  413TIP3   OH222653   2.896   4.639   3.499  0.2091 -0.2561 -0.4705
  413TIP3    H122654   2.832   4.569   3.514 -0.5786  0.3676 -0.8679
  413TIP3    H222655   2.875   4.673   3.413  0.0202  1.0462  0.0678
  414TIP3   OH222656   6.306   4.631   0.403 -0.1424 -0.6046  0.1626
  414TIP3    H122657   6.395   4.595   0.403 -0.4589 -1.4362 -0.6854
  414TIP3    H222658   6.255   4.568   0.352 -1.1885 -0.0545  0.5065
  415TIP3   OH222659   5.357   0.338  17.539  0.3126  0.2916  0.2044
  415TIP3    H122660   5.328   0.270  17.600 -0.5669  0.2901 -0.1938
  415TIP3    H222661   5.432   0.379  17.582  1.5605 -1.6258 -0.0045
  416TIP3   OH222662   3.048   6.682  15.714  0.0043  0.1726  0.6715
  416TIP3    H122663   3.099   6.650  15.640 -1.7652 -1.2878 -0.0009
  416TIP3    H222664   3.100   6.659  15.791  1.8059  1.5935 -0.0409
  417TIP3   OH222665   6.217   5.616  17.017  0.2586 -0.2067 -0.6582
  417TIP3    H122666   6.179   5.540  17.062  1.4490  0.5337  1.8137
  417TIP3    H222667   6.150   5.684  17.024  1.2735  0.6465  2.3780
  418TIP3   OH222668   5.234   6.174   4.532  0.3296  0.1336  0.1252
  418TIP3    H122669   5.226   6.115   4.607  0.1152 -0.9568 -0.7214
  418TIP3    H222670   5.320   6.214   4.541 -0.7579  2.2849  2.5120
  419TIP3   OH222671   5.841   3.628   5.318 -0.4616 -0.5846  0.1895
  419TIP3    H122672   5.900   3.660   5.249 -3.0207  2.7071 -0.7983
  419TIP3    H222673   5.881   3.657   5.400  0.3311 -0.3013 -0.2867
  420TIP3   OH222674   2.631   2.481  17.370  0.1321  1.0463  0.4799
  420TIP3    H122675   2.567   2.425  17.413  0.2801  1.0855  0.7512
  420TIP3    H222676   2.640   2.557  17.428 -1.2317  2.1215 -0.6236
  421TIP3   OH222677   2.903   1.791   6.103  0.5624  0.0563  0.0795
  421TIP3    H122678   2.910   1.804   6.009  0.4589  0.1353  0.0823
  421TIP3    H222679   2.915   1.878   6.140  1.2883 -0.0787  0.1780
  422TIP3   OH222680   2.348   2.787  15.449  0.7786 -0.5155  0.4296
  422TIP3    H122681   2.351   2.791  15.353  1.7594 -0.2085  0.4559
  422TIP3    H222682   2.287   2.857  15.473  0.8631 -0.3029  0.0447
  423TIP3   OH222683   5.660   2.600  16.932  0.6072 -0.0957  0.5598
  423TIP3    H122684   5.713   2.665  16.977  1.1242  0.3872 -0.7192
  423TIP3    H222685   5.570   2.621  16.957  0.9820 -1.7550  3.8656
  424TIP3   OH222686   6.676   5.960   1.016 -0.3251  0.0580 -0.0345
  424TIP3    H122687   6.733   5.988   1.088 -0.1311 -0.3504 -0.0257
  424TIP3    H222688   6.655   5.869   1.036 -0.5173  0.0350 -0.3381
  425TIP3   OH222689   1.711   6.606   5.869  0.4896 -0.3653 -0.0827
  425TIP3    H122690   1.684   6.544   5.801  1.2781 -0.2225 -0.5325
  425TIP3    H222691   1.799   6.580   5.893  0.5900  0.1929  0.1845
  426TIP3   OH222692   0.377   1.502  13.011 -0.7449 -0.1929  0.1484
  426TIP3    H122693   0.320   1.453  12.953 -0.4231  0.0017 -0.3350
  426TIP3    H222694   0.427   1.560  12.953 -1.9592  1.5873  0.7935
  427TIP3   OH222695   5.064   5.824   1.569  0.1976  0.2347 -0.3168
  427TIP3    H122696   5.017   5.764   1.627 -0.1536  2.1279  1.4840
  427TIP3    H222697   5.121   5.873   1.628  1.7380  0.5249 -1.9711
  428TIP3   OH222698   5.777   2.880  16.178  0.1853 -0.2172  0.1951
  428TIP3    H122699   5.705   2.902  16.119 -0.6480  0.4057  1.4113
  428TIP3    H222700   5.742   2.894  16.265  1.7003 -0.2099  0.8311
  429TIP3   OH222701   5.987   0.129  12.338 -0.3074  0.0517  0.1158
  429TIP3    H122702   5.894   0.111  12.356 -0.0876 -0.9251  0.3071
  429TIP3    H222703   6.023   0.152  12.424 -0.2010 -0.3269  0.1703
  430TIP3   OH222704   3.807   3.072  13.977  0.0594 -0.0481  0.0058
  430TIP3    H122705   3.802   3.060  13.882  0.5910 -1.4613  0.1381
  430TIP3    H222706   3.892   3.036  14.001  0.5635  1.6104  0.8581
  431TIP3   OH222707   6.701   5.706  13.938 -0.2993 -0.6911  0.4251
  431TIP3    H122708   6.613   5.728  13.969  0.2423  0.4958  1.1515
  431TIP3    H222709   6.687   5.631  13.880 -1.8174 -0.3675  0.3326
  432TIP3   OH222710   2.669   6.356   4.547 -0.2736  0.0583 -0.2411
  432TIP3    H122711   2.615   6.383   4.473 -0.0411  1.4321  0.0684
  432TIP3    H222712   2.606   6.323   4.611 -0.3995 -2.1866 -1.4152
  433TIP3   OH222713   5.631   0.966   0.861  0.3133  0.7600  0.3454
  433TIP3    H122714   5.578   1.035   0.900  0.1387  0.7973  0.0428
  433TIP3    H222715   5.599   0.885   0.902 -0.6865  0.6665 -0.5874
  434TIP3   OH222716   3.433   6.527   6.592 -0.1462  0.0583  0.5076
  434TIP3    H122717   3.425   6.580   6.513  1.5225 -0.1469  0.1598
  434TIP3    H222718   3.439   6.591   6.663 -0.4202  0.2691  0.3423
  435TIP3   OH222719   1.681   6.088  16.248  0.4002  0.2764 -0.2190
  435TIP3    H122720   1.656   6.073  16.157 -0.2486 -0.0213 -0.0014
  435TIP3    H222721   1.641   6.173  16.270  0.4050  0.2638 -0.1615
  436TIP3   OH222722   0.649   5.422  11.516 -0.3984 -0.3534 -0.1224
  436TIP3    H122723   0.604   5.504  11.536  0.2090  0.5618 -2.2134
  436TIP3    H222724   0.741   5.447  11.503 -0.2604 -1.2901 -1.1050
  437TIP3   OH222725   0.336   4.330   3.817  0.2986  0.5903 -1.0503
  437TIP3    H122726   0.391   4.313   3.741 -1.2078 -0.4060 -1.9704
  437TIP3    H222727   0.321   4.425   3.814 -0.0197  0.5193 -2.2043
  438TIP3   OH222728   5.404   4.278  12.082  0.3395  0.0763  0.5168
  438TIP3    H122729   5.493   4.260  12.113  0.9810  2.0678 -0.0269
  438TIP3    H222730   5.401   4.241  11.994  0.9655  0.7890  0.1794
  439TIP3   OH222731   0.066   6.351  16.029  0.2896  0.2700  0.0286
  439TIP3    H122732   0.009   6.287  15.985  0.1477  0.6080 -0.2783
  439TIP3    H222733   0.108   6.300  16.099  0.7109 -0.3354 -0.6484
  440TIP3   OH222734   1.508   0.804  12.437  0.1597  0.1875  0.7646
  440TIP3    H122735   1.604   0.802  12.435  0.1432 -1.0550 -1.2121
  440TIP3    H222736   1.486   0.806  12.530  2.0870  0.1719  1.2619
  441TIP3   OH222737   0.979   2.507   1.115  0.5083 -0.1742  0.5750
  441TIP3    H122738   0.934   2.540   1.038 -1.8703  0.5776  2.1638
  441TIP3    H222739   1.011   2.421   1.090 -1.8642 -0.7626 -0.7138
  442TIP3   OH222740   6.261   4.844   1.700 -0.1404 -0.4340  0.4740
  442TIP3    H122741   6.292   4.934   1.696  1.9694 -1.0769  0.8367
  442TIP3    H222742   6.284   4.807   1.615 -2.4965 -0.2481 -0.3133
  443TIP3   OH222743   5.300   2.048   2.676 -0.3234  0.0896  0.0165
  443TIP3    H122744   5.297   2.126   2.732  1.0497  0.2773 -0.1567
  443TIP3    H222745   5.216   2.049   2.629 -0.2277  1.5817 -0.1507
  444TIP3   OH222746   1.658   5.009  11.236 -0.5979  0.9040  0.2433
  444TIP3    H122747   1.648   4.921  11.273  1.3142  0.2220 -0.7164
  444TIP3    H222748   1.636   5.000  11.144 -1.4400  1.6969  0.3518
  445TIP3   OH222749   1.920   1.073  16.653 -0.3488  0.4896  0.7325
  445TIP3    H122750   1.978   1.148  16.666  0.4848 -0.2314  1.2832
  445TIP3    H222751   1.966   1.000  16.694 -0.6567 -0.5464 -0.6787
  446TIP3   OH222752   3.623   5.205  14.742  0.1155 -0.0630  0.0294
  446TIP3    H122753   3.705   5.232  14.701 -0.1662  0.9464  0.1022
  446TIP3    H222754   3.571   5.169  14.671  0.2898  0.1108 -0.1886
  447TIP3   OH222755   2.605   5.731  12.741  0.5302  0.8049  0.2206
  447TIP3    H122756   2.577   5.779  12.663 -0.2155  1.1192  0.6674
  447TIP3    H222757   2.701   5.737  12.739  0.5691  0.1861 -1.0411
  448TIP3   OH222758   4.764   6.187  12.320  0.4447  0.1706 -0.4703
  448TIP3    H122759   4.678   6.172  12.280  0.7648  0.6275 -1.3309
  448TIP3    H222760   4.743   6.231  12.403 -0.2041 -0.6446 -0.1805
  449TIP3   OH222761   5.499   0.958   2.809  0.3019  0.2313 -0.2039
  449TIP3    H122762   5.545   0.987   2.731 -1.6288  0.5673 -1.2881
  449TIP3    H222763   5.517   1.025   2.875  0.0353  1.2046 -1.1011
  450TIP3   OH222764   0.587   2.972   3.097  0.5546  0.2829 -0.0479
  450TIP3    H122765   0.637   2.975   3.178  0.8870  0.9847 -0.2652
  450TIP3    H222766   0.648   3.005   3.030  1.0554 -2.3798 -1.0179
  451TIP3   OH222767   1.775   2.396   3.251  0.0202 -0.9624 -0.4117
  451TIP3    H122768   1.719   2.443   3.313  0.3309 -1.2079  0.0556
  451TIP3    H222769   1.811   2.464   3.195  0.7531 -0.5883  0.4881
  452TIP3   OH222770   0.226   3.467   1.360 -0.2575 -0.0007  0.1411
  452TIP3    H122771   0.173   3.516   1.298 -1.4819 -0.6548  0.6320
  452TIP3    H222772   0.255   3.532   1.424 -0.6308  0.3256 -0.0217
  453TIP3   OH222773   5.937   6.271  15.574 -0.1216  0.1992  0.4450
  453TIP3    H122774   5.923   6.330  15.500 -0.6990 -0.0122  0.3804
  453TIP3    H222775   5.881   6.305  15.643  1.3139  1.1138  1.2150
  454TIP3   OH222776   3.489   0.490  15.140  0.5227  0.1275 -0.0979
  454TIP3    H122777   3.440   0.472  15.220  3.6740  0.5139  2.0754
  454TIP3    H222778   3.441   0.561  15.098 -1.6681 -0.6409  0.9447
  455TIP3   OH222779   6.606   1.991   4.087 -0.2350  0.2253  0.7320
  455TIP3    H122780   6.682   1.935   4.098 -1.7000 -1.6401  2.0970
  455TIP3    H222781   6.631   2.073   4.130  1.3771  0.0868  0.1309
  456TIP3   OH222782   0.073   2.122   0.284 -0.5167  0.4236  0.7598
  456TIP3    H122783   0.015   2.128   0.208 -0.1914  1.2665  0.5679
  456TIP3    H222784   0.159   2.148   0.250  0.1789 -1.5775  0.8443
  457TIP3   OH222785   3.117   0.300  13.786 -0.4824 -0.1273  0.7503
  457TIP3    H122786   3.055   0.229  13.773 -2.2451  1.2599  1.1323
  457TIP3    H222787   3.145   0.291  13.877 -1.4733  0.2030  1.1068
  458TIP3   OH222788   5.443   1.975   0.599  0.5569  0.1413 -0.2925
  458TIP3    H122789   5.414   1.956   0.510  1.2364 -0.6176 -0.3651
  458TIP3    H222790   5.538   1.977   0.594  0.5889  0.6809  0.3083
  459TIP3   OH222791   1.360   2.143  16.177 -0.6043  0.4094  0.0557
  459TIP3    H122792   1.436   2.183  16.135 -0.4479  0.0656  0.0091
  459TIP3    H222793   1.286   2.197  16.150 -0.3485  0.8679  0.2722
  460TIP3   OH222794   1.022   2.270   0.963  0.5731  0.1931  0.1393
  460TIP3    H122795   1.088   2.253   0.895  1.4303  0.6395  0.8418
  460TIP3    H222796   0.952   2.207   0.944  1.8080 -1.2654  0.2059
  461TIP3   OH222797   0.692   6.410  14.914 -0.4461 -0.9167  0.3367
  461TIP3    H122798   0.600   6.398  14.893 -0.8013  0.8061  0.7621
  461TIP3    H222799   0.721   6.481  14.856  0.5939 -1.3899  0.2546
  462TIP3   OH222800   1.158   6.381   3.263 -0.0661  0.4996 -0.2285
  462TIP3    H122801   1.081   6.410   3.214  0.0620  2.0675  0.4574
  462TIP3    H222802   1.163   6.439   3.338  0.5788 -0.9490  0.9015
  463TIP3   OH222803   3.708   3.663  17.454 -0.3691  0.3201  0.3071
  463TIP3    H122804   3.701   3.746  17.407 -0.5198  0.3643  0.4024
  463TIP3    H222805   3.621   3.651  17.492  0.5008  1.7141  2.9795
  464TIP3   OH222806   1.529   3.262  12.166  0.4323  0.0835 -0.9133
  464TIP3    H122807   1.454   3.309  12.201  1.4113  0.2623  1.0814
  464TIP3    H222808   1.526   3.278  12.072 -0.0048  3.0716 -0.4783
  465TIP3   OH222809   4.541   2.189  16.371  0.1342 -0.1664  0.0786
  465TIP3    H122810   4.524   2.105  16.329 -0.5084  0.5946 -1.2467
  465TIP3    H222811   4.636   2.196  16.375  0.2326 -0.0513 -1.7444
  466TIP3   OH222812   4.674   0.279   0.975 -0.3086 -0.7462  0.5349
  466TIP3    H122813   4.603   0.341   0.989 -0.3044 -0.8164  0.8739
  466TIP3    H222814   4.657   0.242   0.888  0.6891  1.0404 -0.4777
  467TIP3   OH222815   0.951   2.653  14.483 -0.8027  0.2009 -0.3759
  467TIP3    H122816   0.975   2.561  14.473  0.7211  0.4346  0.7473
  467TIP3    H222817   1.016   2.689  14.543 -0.4770  2.3960 -1.9139
  468TIP3   OH222818   2.606   0.118   4.921 -0.5275  0.2970  0.9738
  468TIP3    H122819   2.514   0.112   4.895  0.1116 -0.9382 -1.3012
  468TIP3    H222820   2.625   0.035   4.964  0.3741 -1.1770 -1.9812
  469TIP3   OH222821   4.466   6.129   2.064 -0.2728  0.4610  0.1962
  469TIP3    H122822   4.539   6.073   2.090 -0.6574 -0.0640  0.1497
  469TIP3    H222823   4.479   6.210   2.113  1.4068  1.1052 -1.2110
  470TIP3   OH222824   4.488   6.560   4.392 -0.1019  0.0239 -0.0910
  470TIP3    H122825   4.432   6.541   4.467 -1.0974  0.1928 -0.7659
  470TIP3    H222826   4.429   6.559   4.317  0.8186  0.1430 -0.8421
  471TIP3   OH222827   6.622   2.193   0.076 -0.9114 -0.4162 -0.1694
  471TIP3    H122828   6.570   2.265   0.041  0.1624  0.3499 -0.2414
  471TIP3    H222829   6.558   2.133   0.114 -1.7975  0.8697  0.4332
  472TIP3   OH222830   4.325   4.570   1.175 -0.4154  0.1466 -0.0953
  472TIP3    H122831   4.383   4.624   1.121 -0.4068 -0.8314 -1.1222
  472TIP3    H222832   4.237   4.601   1.154 -0.3608  0.3993  0.0489
  473TIP3   OH222833   5.451   1.759  10.637  0.0211  0.3925 -0.3229
  473TIP3    H122834   5.412   1.754  10.724  0.2232 -1.1556 -0.2993
  473TIP3    H222835   5.385   1.723  10.578  1.8501 -3.9388 -0.0801
  474TIP3   OH222836   0.142   5.147   5.074  0.0379 -0.2135 -0.0733
  474TIP3    H122837   0.182   5.148   5.162  2.6237  1.2041 -1.1478
  474TIP3    H222838   0.126   5.055   5.056  1.9009 -0.7766  0.9105
  475TIP3   OH222839   3.823   0.689  11.034 -0.1617  0.2809  0.3338
  475TIP3    H122840   3.899   0.667  10.981  0.7407  0.4707  1.5003
  475TIP3    H222841   3.757   0.623  11.011  0.7289 -0.5340  0.0687
  476TIP3   OH222842   2.752   4.958   0.571 -0.0221  0.5725 -0.3701
  476TIP3    H122843   2.757   5.046   0.609  0.2338 -0.0282  1.0429
  476TIP3    H222844   2.673   4.960   0.517  0.5726  1.9913 -1.2495
  477TIP3   OH222845   5.233   0.444  11.998  0.0712  0.2961 -0.4960
  477TIP3    H122846   5.258   0.524  11.952 -1.2328  0.6117 -0.6788
  477TIP3    H222847   5.161   0.470  12.055  0.3361 -0.5289  0.2418
  478TIP3   OH222848   5.416   0.754   2.980  0.3924 -0.0860  0.2708
  478TIP3    H122849   5.446   0.811   2.908 -0.2388 -0.2771 -0.1477
  478TIP3    H222850   5.493   0.745   3.036  0.6210  0.8486  0.1253
  479TIP3   OH222851   2.438   5.721  15.777 -0.0752 -0.7194 -0.0163
  479TIP3    H122852   2.527   5.742  15.748  0.4848 -2.4636  0.3080
  479TIP3    H222853   2.430   5.766  15.861 -0.8835  2.4607 -1.6528
  480TIP3   OH222854   4.892   0.291  15.671  0.2947  0.0706  0.0221
  480TIP3    H122855   4.883   0.228  15.600 -1.8054  0.8734 -0.4833
  480TIP3    H222856   4.835   0.258  15.740 -0.9668  1.4307 -0.3092
  481TIP3   OH222857   2.132   0.170  12.854  0.9942 -0.9876 -0.0393
  481TIP3    H122858   2.164   0.190  12.942  1.7383 -0.9801 -0.3092
  481TIP3    H222859   2.200   0.201  12.795 -0.2125  0.4907 -0.7201
  482TIP3   OH222860   1.112   3.731  16.653  0.2968 -0.0077  0.2482
  482TIP3    H122861   1.111   3.689  16.739  1.6013 -0.5447  0.0241
  482TIP3    H222862   1.021   3.756  16.638  0.0622  0.2425  1.8450
  483TIP3   OH222863   1.574   6.369   5.114  0.2638  0.0380 -0.1555
  483TIP3    H122864   1.667   6.391   5.113  0.6398 -1.4613 -0.5649
  483TIP3    H222865   1.539   6.413   5.037  0.6823  0.3964 -0.1485
  484TIP3   OH222866   5.922   5.341  14.070 -0.5494  0.0907  0.1937
  484TIP3    H122867   5.905   5.420  14.017 -1.1533  0.1878  0.5205
  484TIP3    H222868   5.988   5.293  14.020 -1.8478 -0.3397 -1.1943
  485TIP3   OH222869   3.568   1.110  12.835 -0.4264  0.2291  0.3367
  485TIP3    H122870   3.586   1.159  12.755 -0.1625 -1.1245 -0.4605
  485TIP3    H222871   3.501   1.047  12.810 -0.9004  0.2875  1.3973
  486TIP3   OH222872   0.749   5.803  15.939 -0.0636  0.0461  0.2761
  486TIP3    H122873   0.671   5.816  15.886 -0.5136 -0.9150  0.6807
  486TIP3    H222874   0.816   5.775  15.877 -0.8262 -1.9791  0.2733
  487TIP3   OH222875   4.897   4.073   4.913 -0.3466 -0.2087 -0.1537
  487TIP3    H122876   4.938   4.034   4.990  1.6427  0.5190 -0.7771
  487TIP3    H222877   4.864   4.158   4.944  0.1656 -0.0535 -0.0358
  488TIP3   OH222878   0.130   4.296   0.520 -0.0063 -0.2394 -0.2534
  488TIP3    H122879   0.181   4.308   0.601 -0.2599  0.5239 -0.2011
  488TIP3    H222880   0.060   4.236   0.545 -0.4592  0.4922  0.2632
  489TIP3   OH222881   6.072   0.079  15.347 -0.5799 -0.2810  0.0102
  489TIP3    H122882   6.158   0.057  15.311 -1.0081 -1.7420 -0.2019
  489TIP3    H222883   6.059   0.017  15.419 -1.5806 -0.2926 -0.1638
  490TIP3   OH222884   2.620   1.569   3.545 -0.3244  0.1507 -0.1175
  490TIP3    H122885   2.653   1.629   3.612 -1.0813 -0.1380  0.5330
  490TIP3    H222886   2.606   1.624   3.468  0.1249  0.5750  0.0978
  491TIP3   OH222887   5.930   4.072  16.860  0.3839 -0.1931  0.2098
  491TIP3    H122888   5.951   3.982  16.885  1.9016  0.2309  0.5718
  491TIP3    H222889   5.873   4.104  16.930  1.9553 -0.0672  1.4927
  492TIP3   OH222890   4.372   0.008   2.342 -0.2146  0.9825 -0.2668
  492TIP3    H122891   4.320  -0.022   2.268  0.4056 -0.6438 -0.0759
  492TIP3    H222892   4.351   0.101   2.349 -0.8949  0.9987 -1.9677
  493TIP3   OH222893   1.463   6.238   5.661  0.7931  0.1125 -0.1156
  493TIP3    H122894   1.374   6.207   5.678  0.8029 -0.0368 -0.3342
  493TIP3    H222895   1.488   6.196   5.578  1.2592 -0.2692  0.2080
  494TIP3   OH222896   0.614   0.693   0.400 -0.4414 -0.7443 -0.0314
  494TIP3    H122897   0.532   0.694   0.351 -0.4716  1.2207 -0.0317
  494TIP3    H222898   0.637   0.600   0.408 -0.9411 -1.2082 -2.9026
  495TIP3   OH222899   0.071   2.492   1.309  0.7603  0.5976 -0.3470
  495TIP3    H122900   0.089   2.527   1.221 -1.5702  3.6516  0.2414
  495TIP3    H222901  -0.024   2.484   1.313  0.6904  1.8154  2.2979
  496TIP3   OH222902   4.428   3.274   5.201 -0.1240 -0.8227  0.0080
  496TIP3    H122903   4.371   3.205   5.167 -0.0658 -1.5794  1.3638
  496TIP3    H222904   4.427   3.342   5.133 -1.3870 -1.4954 -0.6871
  497TIP3   OH222905   1.901   2.369   0.489 -0.2873 -0.0936 -0.3490
  497TIP3    H122906   1.812   2.385   0.522  0.4105  1.3948  0.9607
  497TIP3    H222907   1.938   2.305   0.551 -0.4150 -0.6674 -0.8586
  498TIP3   OH222908   3.758   5.655   6.025  0.3561  0.0871 -0.1424
  498TIP3    H122909   3.833   5.672   6.082  0.2082 -1.1967  0.4600
  498TIP3    H222910   3.684   5.693   6.073  0.3835 -0.0935  0.0452
  499TIP3   OH222911   3.113   4.021  10.984  0.3380  0.0536 -0.2213
  499TIP3    H122912   3.087   3.993  11.072  1.2104  1.3898  0.4813
  499TIP3    H222913   3.192   4.073  10.996  1.5917 -1.2845 -2.0090
  500TIP3   OH222914   2.156   5.085  14.785  0.5492  0.2158  0.0731
  500TIP3    H122915   2.220   5.139  14.831  0.8596 -0.7459  0.7995
  500TIP3    H222916   2.072   5.107  14.825  0.9216 -1.2801  1.8186
  501TIP3   OH222917   1.965   6.483  15.454 -0.2684 -0.6421  0.1047
  501TIP3    H122918   1.891   6.426  15.434  0.0563 -0.7526 -0.8697
  501TIP3    H222919   1.936   6.570  15.431 -0.7070 -0.4171  1.4386
  502TIP3   OH222920   2.328   3.193   1.883 -0.3445 -0.8824 -0.5203
  502TIP3    H122921   2.253   3.150   1.923 -0.5305  0.1888  0.3534
  502TIP3    H222922   2.301   3.214   1.794 -0.6445 -1.5477 -0.5886
  503TIP3   OH222923   4.899   0.312  11.213 -0.3652 -0.1405  0.1544
  503TIP3    H122924   4.863   0.395  11.183  1.2314  1.0082  1.2781
  503TIP3    H222925   4.994   0.324  11.207 -0.0950 -1.6156  1.0552
  504TIP3   OH222926   4.129   0.908   4.538  0.2372  0.3281 -0.3480
  504TIP3    H122927   4.102   0.983   4.485 -1.6401  1.3070  1.8023
  504TIP3    H222928   4.061   0.842   4.521 -0.7695  0.8979  1.2337
  505TIP3   OH222929   6.211   3.400  13.522 -0.2870  0.1758  0.5610
  505TIP3    H122930   6.179   3.457  13.591 -1.7584 -0.9552  0.8713
  505TIP3    H222931   6.166   3.317  13.537  2.1341 -1.2686  0.4456
  506TIP3   OH222932   5.973   2.278  12.714 -0.5165 -0.0166  0.1723
  506TIP3    H122933   5.948   2.367  12.736 -0.7990 -0.2724  0.9053
  506TIP3    H222934   5.931   2.261  12.630 -1.9052 -0.0501  0.8482
  507TIP3   OH222935   2.344   4.626   4.637 -0.3889  0.1805  0.6825
  507TIP3    H122936   2.309   4.610   4.725 -1.7185  3.5734  0.9192
  507TIP3    H222937   2.310   4.712   4.613  1.3062  0.1052 -2.5207
  508TIP3   OH222938   0.111   6.501  13.514  0.2248  0.0444 -0.1488
  508TIP3    H122939   0.167   6.575  13.491  0.3412  0.0535  0.1618
  508TIP3    H222940   0.058   6.532  13.587 -1.3516  0.5777 -1.4568
  509TIP3   OH222941   0.904   1.028   6.058  0.2571 -0.5827 -0.7094
  509TIP3    H122942   0.851   1.023   5.979 -0.0190 -1.9824 -0.4681
  509TIP3    H222943   0.899   1.120   6.085 -1.2411 -0.4852 -1.2296
  510TIP3   OH222944   5.000   0.988   0.994  0.0752 -0.0862  0.4938
  510TIP3    H122945   5.088   1.015   0.966 -0.2936  1.5255  0.7857
  510TIP3    H222946   5.005   0.989   1.090  0.3465 -2.2224  0.5617
  511TIP3   OH222947   0.439   1.063  13.921 -0.5537 -0.1208 -0.1903
  511TIP3    H122948   0.467   1.120  13.849 -2.0541 -0.9367 -1.5006
  511TIP3    H222949   0.375   1.115  13.969  0.2702  0.3396  0.4185
  512TIP3   OH222950   0.919   0.537  13.994  0.0195 -0.3599 -0.5297
  512TIP3    H122951   0.961   0.620  14.017 -2.0689  0.5177  0.3926
  512TIP3    H222952   0.854   0.560  13.928  0.5483 -1.5823 -1.5131
  513TIP3   OH222953   5.293   0.038  11.846 -0.0903  0.6856 -0.6006
  513TIP3    H122954   5.278   0.105  11.779  1.4540  1.0704 -0.5979
  513TIP3    H222955   5.382   0.054  11.877  0.0497 -0.9110 -0.0621
  514TIP3   OH222956   0.234   0.414  13.980 -0.2982  0.4138  0.2191
  514TIP3    H122957   0.268   0.326  13.997 -1.8562 -0.4339 -0.8015
  514TIP3    H222958   0.293   0.450  13.914 -1.4831 -1.1726 -1.8131
  515TIP3   OH222959   2.628   4.279   0.011 -0.0816 -0.0542 -0.1666
  515TIP3    H122960   2.691   4.307  -0.054  0.1031 -0.3120 -0.1005
  515TIP3    H222961   2.580   4.359   0.034 -0.4837 -0.0494 -0.9755
  516TIP3   OH222962   3.305   5.329   0.699 -0.1910  0.0281  0.9251
  516TIP3    H122963   3.279   5.343   0.608 -0.8166 -1.8138  0.7855
  516TIP3    H222964   3.382   5.273   0.694  0.9033  1.4208  1.5058
  517TIP3   OH222965   3.913   4.718   0.914  0.4521 -0.1852  0.1917
  517TIP3    H122966   4.002   4.728   0.948  0.1332 -0.2834  1.0960
  517TIP3    H222967   3.897   4.623   0.916  0.2413 -0.1484  0.2540
  518TIP3   OH222968   4.465   2.961   2.957 -0.3497 -0.2762  0.0881
  518TIP3    H122969   4.461   2.987   3.049 -0.7242  0.9453 -0.2487
  518TIP3    H222970   4.409   3.025   2.912 -0.7540 -1.2880 -0.8945
  519TIP3   OH222971   3.008   0.378   2.278 -0.1699 -0.3131 -0.0573
  519TIP3    H122972   3.072   0.323   2.323 -0.7989 -0.6187  0.4764
  519TIP3    H222973   3.026   0.363   2.185  2.0208  1.3562  0.0254
  520TIP3   OH222974   1.507   4.121  16.066  0.4746 -0.6913  0.1199
  520TIP3    H122975   1.448   4.051  16.094  0.2844 -1.0273 -1.0764
  520TIP3    H222976   1.455   4.201  16.075  0.1375 -0.8865 -0.0497
  521TIP3   OH222977   4.707   0.805  17.492 -0.5940  0.0301  0.0577
  521TIP3    H122978   4.714   0.874  17.425 -0.9318 -2.2239 -2.4820
  521TIP3    H222979   4.785   0.751  17.479 -1.0137 -0.8520  1.0620
  522TIP3   OH222980   4.453   4.587  16.122 -0.0359  0.0187  0.4611
  522TIP3    H122981   4.477   4.500  16.153  2.6751  0.6731  0.4864
  522TIP3    H222982   4.468   4.644  16.197  3.1491  1.1137 -0.8211
  523TIP3   OH222983   6.407   3.933   0.835 -0.3583  0.1952 -0.4336
  523TIP3    H122984   6.452   3.908   0.755  0.1290 -0.3406 -0.0001
  523TIP3    H222985   6.338   3.867   0.846 -2.0632  1.6704 -1.7240
  524TIP3   OH222986   6.598   0.362   4.088 -0.1702  0.4428 -1.0500
  524TIP3    H122987   6.590   0.281   4.038  0.8094  0.2649 -0.9387
  524TIP3    H222988   6.691   0.369   4.108 -0.7415 -0.7473  2.7945
  525TIP3   OH222989   0.445   4.052   5.833 -0.2805  0.1214 -0.2160
  525TIP3    H122990   0.419   4.144   5.834  0.5248  0.4135 -1.8485
  525TIP3    H222991   0.524   4.049   5.888 -1.6958 -0.1187  1.9058
  526TIP3   OH222992   0.068   4.805  12.038 -0.1567 -0.0222 -0.6414
  526TIP3    H122993  -0.001   4.747  12.070 -0.1752  0.5279  0.3347
  526TIP3    H222994   0.130   4.812  12.110  0.0729  0.8218 -0.9054
  527TIP3   OH222995   3.922   3.460  13.419  0.2978 -0.3021  0.6128
  527TIP3    H122996   3.869   3.491  13.346  0.0457 -0.4155  0.7462
  527TIP3    H222997   3.859   3.445  13.490  0.3176 -1.6977  0.3657
  528TIP3   OH222998   0.220   4.059  12.866  0.3177  0.1034 -0.0036
  528TIP3    H122999   0.261   4.039  12.950  0.4823 -1.8125 -0.4895
  528TIP3    H223000   0.171   4.139  12.881  1.6367  0.6921  1.4752
  529TIP3   OH223001   0.344   3.407   1.039 -0.3339  0.1155  0.6024
  529TIP3    H123002   0.419   3.366   1.082 -1.0357  0.0883  1.8605
  529TIP3    H223003   0.339   3.495   1.078  0.7663  1.2382 -1.5926
  530TIP3   OH223004   0.714   3.495  16.082 -0.2613  0.1405 -0.0853
  530TIP3    H123005   0.809   3.484  16.080 -0.4619 -3.3760  1.7942
  530TIP3    H223006   0.683   3.452  16.003 -0.3659  0.0970 -0.0200
  531TIP3   OH223007   5.766   3.005   1.563  0.7259 -0.1800  0.5888
  531TIP3    H123008   5.754   2.987   1.656 -0.1136  0.3222  0.5918
  531TIP3    H223009   5.859   2.988   1.547  0.8123 -0.5761  1.4436
  532TIP3   OH223010   3.583   5.291  13.256  0.3680  0.0147 -0.5015
  532TIP3    H123011   3.637   5.363  13.221 -0.0084  0.2654 -0.5659
  532TIP3    H223012   3.545   5.250  13.179  1.1723 -0.7257 -0.5137
  533TIP3   OH223013   4.490   3.888   1.073  0.2447  0.2510 -0.0452
  533TIP3    H123014   4.556   3.947   1.109 -1.7841  3.3608 -1.0544
  533TIP3    H223015   4.516   3.875   0.982 -0.4488  1.4848 -0.4456
  534TIP3   OH223016   2.832   4.322   5.360  0.1693 -0.2956  0.0711
  534TIP3    H123017   2.810   4.229   5.354  0.0075 -0.2075 -0.8558
  534TIP3    H223018   2.921   4.323   5.395  0.7357 -0.8757 -1.2512
  535TIP3   OH223019   2.945   0.622  13.628  0.1628 -0.1406 -0.2857
  535TIP3    H123020   3.003   0.662  13.693  0.9849 -0.5625 -0.7304
  535TIP3    H223021   2.883   0.569  13.678  1.5707 -1.4781  0.1192
  536TIP3   OH223022   5.588   4.249  16.199  0.3994 -0.0077  0.3073
  536TIP3    H123023   5.551   4.226  16.284 -2.3973  0.1592 -0.7537
  536TIP3    H223024   5.613   4.341  16.207  0.6135 -0.1299  1.0753
  537TIP3   OH223025   3.237   3.333  10.407 -0.1133 -0.0953  0.3591
  537TIP3    H123026   3.311   3.393  10.397  0.5772 -0.9031  0.4950
  537TIP3    H223027   3.245   3.300  10.496 -0.1990 -0.7570  0.1232
  538TIP3   OH223028   5.269   4.534   2.129  0.1508 -0.0973 -0.6441
  538TIP3    H123029   5.336   4.600   2.113 -0.5840  1.0897  0.9434
  538TIP3    H223030   5.262   4.529   2.224  0.0484 -2.3667 -0.7041
  539TIP3   OH223031   4.130   2.474  10.987  0.0160  0.4873  0.5892
  539TIP3    H123032   4.055   2.480  10.928  0.4607  0.1074 -0.0309
  539TIP3    H223033   4.182   2.552  10.967  0.1798  0.3447  0.4524
  540TIP3   OH223034   2.354   4.373  17.147 -0.2021 -0.1299 -0.0413
  540TIP3    H123035   2.293   4.306  17.178  1.9490 -1.4332  1.6930
  540TIP3    H223036   2.300   4.451  17.134 -2.4054 -1.5373  0.2014
  541TIP3   OH223037   0.373   6.255  10.751 -0.1662 -0.2517 -0.1770
  541TIP3    H123038   0.463   6.285  10.760 -0.5996  0.8585  0.8305
  541TIP3    H223039   0.322   6.318  10.801 -1.3220 -1.8440  0.7483
  542TIP3   OH223040   3.440   4.444  17.281 -0.0760  0.0542  0.8424
  542TIP3    H123041   3.390   4.470  17.359  0.2184  1.5778  0.5493
  542TIP3    H223042   3.373   4.417  17.218 -0.3329 -0.9283  1.5037
  543TIP3   OH223043   2.130   4.821  14.654 -0.8678 -0.0669  0.4032
  543TIP3    H123044   2.173   4.903  14.676  0.7417 -0.0736 -2.2719
  543TIP3    H223045   2.184   4.754  14.696 -0.5377  0.1202  0.2814
  544TIP3   OH223046   5.250   3.443   6.897  0.1428 -0.0115 -0.2159
  544TIP3    H123047   5.290   3.502   6.832 -0.6195  2.2469  1.2390
  544TIP3    H223048   5.292   3.358   6.881  2.1038  1.1435 -1.7515
  545TIP3   OH223049   0.691   0.842   5.448 -0.1584 -0.6004 -0.2766
  545TIP3    H123050   0.701   0.877   5.537  1.0226  1.4112 -1.1376
  545TIP3    H223051   0.753   0.769   5.443  1.1773  0.4819 -0.0095
  546TIP3   OH223052   3.572   5.510   3.649 -0.1508 -0.3592  0.2466
  546TIP3    H123053   3.615   5.594   3.634 -2.5242  1.4668  2.7028
  546TIP3    H223054   3.530   5.489   3.565 -0.4364  1.5136 -0.1109
  547TIP3   OH223055   3.967   5.851   3.310 -0.3797  0.4614 -0.2600
  547TIP3    H123056   4.003   5.918   3.251  1.3121 -2.0599 -2.3489
  547TIP3    H223057   3.907   5.801   3.255  0.2752 -1.2014  0.4789
  548TIP3   OH223058   5.751   5.281   2.635 -0.1694 -0.0845  0.2548
  548TIP3    H123059   5.684   5.240   2.691 -1.4346  2.6820  0.9359
  548TIP3    H223060   5.734   5.244   2.548 -1.1993 -1.0083  0.8132
  549TIP3   OH223061   3.393   5.829  16.961  0.1784 -0.1919 -0.0291
  549TIP3    H123062   3.452   5.902  16.981 -1.0187  0.4853  1.1774
  549TIP3    H223063   3.362   5.800  17.046 -2.2381  0.3246 -0.6628
  550TIP3   OH223064   4.104   2.820   6.691  0.7994 -0.1509 -0.4453
  550TIP3    H123065   4.031   2.759   6.685  1.5217 -1.3409  1.6844
  550TIP3    H223066   4.168   2.787   6.629 -0.3172  0.7743 -2.1701
  551TIP3   OH223067   2.456   4.163  14.510 -0.5773  0.2292  0.5682
  551TIP3    H123068   2.461   4.205  14.596 -0.3500 -0.5806  0.9614
  551TIP3    H223069   2.367   4.182  14.480 -0.4989  0.9320  0.7634
  552TIP3   OH223070   1.487   4.528   5.827  0.3141 -0.1157  0.3197
  552TIP3    H123071   1.528   4.496   5.907  0.4080 -1.4979 -0.2463
  552TIP3    H223072   1.553   4.584   5.787  0.7430 -0.4193  0.5952
  553TIP3   OH223073   3.201   1.598  14.387 -0.3019  0.0499  0.4308
  553TIP3    H123074   3.200   1.502  14.391  1.0474  0.0230  0.7062
  553TIP3    H223075   3.270   1.623  14.449 -0.2867  1.1727 -0.0217
  554TIP3   OH223076   2.426   2.649   5.445 -0.7906  0.0803  0.2333
  554TIP3    H123077   2.502   2.644   5.503 -0.7172 -2.3200  0.0378
  554TIP3    H223078   2.360   2.696   5.495 -0.1219 -0.3352  1.5517
  555TIP3   OH223079   3.292   6.218   1.041 -0.4622  0.2363  0.7551
  555TIP3    H123080   3.337   6.208   1.125 -1.0244 -0.0656  1.0282
  555TIP3    H223081   3.319   6.305   1.010 -1.3330  0.9620  1.9351
  556TIP3   OH223082   1.231   1.262   0.768  0.3030  0.2964  0.6305
  556TIP3    H123083   1.171   1.272   0.694  0.6549  1.0072  0.4344
  556TIP3    H223084   1.296   1.331   0.756  0.2922  0.5104  1.6805
  557TIP3   OH223085   5.962   3.166   1.394  0.0672  0.1476  0.1426
  557TIP3    H123086   6.037   3.132   1.442  0.4804  0.0477 -0.5541
  557TIP3    H223087   5.908   3.209   1.460  0.4044 -0.3566  0.7551
  558TIP3   OH223088   2.788   5.345   5.025  0.6404 -0.2129 -0.1679
  558TIP3    H123089   2.741   5.263   5.037 -0.2061  0.2720 -0.1430
  558TIP3    H223090   2.824   5.339   4.936  0.6839 -0.6478 -0.1257
  559TIP3   OH223091   5.189   6.162  11.996 -0.5199 -0.5476 -0.0270
  559TIP3    H123092   5.186   6.083  12.050  0.7814  0.0549  0.9494
  559TIP3    H223093   5.241   6.137  11.920 -1.2499 -1.0079 -0.3913
  560TIP3   OH223094   4.840   1.167   2.007 -0.0644 -0.0621  0.8076
  560TIP3    H123095   4.777   1.150   1.936  0.1820 -2.6287  1.1189
  560TIP3    H223096   4.838   1.262   2.018 -1.5603  0.2274 -1.3054
  561TIP3   OH223097   3.883   4.008  17.261 -0.1776  0.5692 -0.1388
  561TIP3    H123098   3.912   3.990  17.351 -0.6363  2.6763  0.4966
  561TIP3    H223099   3.903   4.101  17.248 -2.3181  0.9309 -1.3287
  562TIP3   OH223100   3.534   5.499   4.913 -0.0798  0.2699 -0.0124
  562TIP3    H123101   3.480   5.434   4.958  2.3165 -0.1176  2.5712
  562TIP3    H223102   3.499   5.584   4.941 -1.0810  0.0747 -0.6471
  563TIP3   OH223103   0.636   6.268   3.267 -0.3314  0.6212 -0.0633
  563TIP3    H123104   0.611   6.179   3.244 -1.9223  1.5743 -2.4628
  563TIP3    H223105   0.599   6.282   3.354 -0.7928 -0.7861 -0.0137
  564TIP3   OH223106   4.306   3.938  11.782 -0.2464  0.3843 -0.0217
  564TIP3    H123107   4.225   3.962  11.828 -1.4431  0.9650 -2.3164
  564TIP3    H223108   4.278   3.908  11.696  1.9714  0.2718 -0.7841
  565TIP3   OH223109   4.121   6.305  14.909  0.0433 -0.5721 -0.2319
  565TIP3    H123110   4.158   6.380  14.861 -1.6012  0.1732 -0.4355
  565TIP3    H223111   4.087   6.343  14.990  0.8242 -1.4422  0.5178
  566TIP3   OH223112   0.468   5.200   6.492  0.3894  0.1552 -0.4793
  566TIP3    H123113   0.417   5.120   6.485  1.3617 -0.4677 -0.5835
  566TIP3    H223114   0.554   5.172   6.525  0.8560  1.0956 -0.8416
  567TIP3   OH223115   1.661   2.286  13.034  0.2043  0.1685  0.2406
  567TIP3    H123116   1.668   2.366  13.087 -0.0714 -0.0029  0.5374
  567TIP3    H223117   1.593   2.306  12.970  0.5214  0.3680 -0.0316
  568TIP3   OH223118   4.933   4.164   3.520 -0.0611 -0.0415  0.1159
  568TIP3    H123119   4.907   4.115   3.442  2.5608 -1.5821  0.1175
  568TIP3    H223120   5.003   4.222   3.490 -0.4067  0.8376  0.9491
  569TIP3   OH223121   2.335   3.295   0.721  0.5441 -0.1481 -0.0337
  569TIP3    H123122   2.360   3.336   0.804  2.7009  0.9744 -1.1531
  569TIP3    H223123   2.388   3.215   0.718  2.6210  1.1935 -1.4905
  570TIP3   OH223124   1.517   1.982   1.504  0.2635 -0.5937 -0.1687
  570TIP3    H123125   1.521   2.002   1.410 -1.1823  0.5549 -0.0108
  570TIP3    H223126   1.522   2.067   1.547 -0.4442 -0.9935  0.7422
  571TIP3   OH223127   5.903   2.912  14.925 -0.3229 -0.4361 -0.1932
  571TIP3    H123128   5.815   2.948  14.936 -1.0175 -2.6724  3.1895
  571TIP3    H223129   5.934   2.896  15.014  2.8642 -1.3168 -1.3107
  572TIP3   OH223130   5.390   1.131   5.209 -0.3299 -0.7217  0.4293
  572TIP3    H123131   5.459   1.080   5.166  1.3736  2.7596 -1.3206
  572TIP3    H223132   5.322   1.141   5.142  0.4132  1.1358 -0.1097
  573TIP3   OH223133   5.099   2.716   4.194  0.5135  0.5573 -0.2502
  573TIP3    H123134   5.173   2.660   4.172  0.5236 -0.1918  1.5252
  573TIP3    H223135   5.022   2.665   4.169  0.5414 -0.0072  0.7593
  574TIP3   OH223136   6.312   2.009   3.203  0.1152  0.2603  0.0551
  574TIP3    H123137   6.285   2.084   3.150 -0.0572  1.2014  1.4267
  574TIP3    H223138   6.338   1.942   3.139  0.8778  1.6993 -1.1937
  575TIP3   OH223139   3.972   2.336   2.256 -0.4934  0.3183  0.0628
  575TIP3    H123140   3.996   2.353   2.165  1.2251 -1.0134  0.2126
  575TIP3    H223141   3.886   2.295   2.251 -0.3170  0.0467 -0.9771
  576TIP3   OH223142   0.725   3.709   3.841 -0.2718  0.3162  0.1452
  576TIP3    H123143   0.803   3.686   3.890 -0.5181  1.8755  1.3593
  576TIP3    H223144   0.655   3.711   3.906 -0.6594  2.1812 -0.2427
  577TIP3   OH223145   2.875   2.351   3.156  0.0449 -0.0340 -0.0170
  577TIP3    H123146   2.952   2.396   3.121  0.5415  0.5013  1.6492
  577TIP3    H223147   2.839   2.303   3.081  1.6890  0.1224 -0.9627
  578TIP3   OH223148   6.430   0.170  11.981 -0.1249 -0.1592 -0.6309
  578TIP3    H123149   6.461   0.241  12.038  0.1653 -0.5528 -0.2924
  578TIP3    H223150   6.502   0.154  11.921  0.4033 -1.1296  0.2082
  579TIP3   OH223151   5.027   3.327  12.787  0.9204  0.0196 -0.0187
  579TIP3    H123152   5.100   3.336  12.848  1.5288 -0.6733 -0.6151
  579TIP3    H223153   5.059   3.267  12.720 -0.6321 -1.3169  0.3590
  580TIP3   OH223154   2.211   2.676   6.380 -0.5394 -0.3023  0.2699
  580TIP3    H123155   2.207   2.692   6.286  2.2219 -0.1480  0.0814
  580TIP3    H223156   2.253   2.590   6.388 -0.3347 -0.1216  1.3476
  581TIP3   OH223157   5.410   6.357  11.153 -0.0237  0.2292  0.1559
  581TIP3    H123158   5.341   6.394  11.098  0.7738 -0.4024 -1.3298
  581TIP3    H223159   5.475   6.426  11.161  0.5526 -0.1621 -0.9751
  582TIP3   OH223160   3.077   4.619   2.232  0.1122  1.0035  0.5199
  582TIP3    H123161   3.093   4.691   2.171  2.0866  0.5702  0.4660
  582TIP3    H223162   3.119   4.543   2.190 -0.2374  0.2620  1.4909
  583TIP3   OH223163   5.432   2.673   1.822  0.0889 -0.7438  0.3097
  583TIP3    H123164   5.423   2.733   1.748 -0.1150  0.7601  1.5286
  583TIP3    H223165   5.527   2.666   1.836  0.0949 -0.4365  0.4065
  584TIP3   OH223166   4.513   5.875  17.512 -0.4189  0.4703  0.2225
  584TIP3    H123167   4.514   5.796  17.566  0.5598 -0.0534 -0.5250
  584TIP3    H223168   4.507   5.842  17.422 -2.1818  1.3285 -0.0123
  585TIP3   OH223169   2.620   2.619   0.160  0.2412  0.3533 -0.5238
  585TIP3    H123170   2.574   2.597   0.079  0.8541 -1.6425 -0.3869
  585TIP3    H223171   2.710   2.594   0.143  0.2978 -0.5026  0.9011
  586TIP3   OH223172   5.565   6.263   0.345 -0.1176 -0.3348 -0.2035
  586TIP3    H123173   5.593   6.325   0.412 -1.0105  0.4126 -0.4985
  586TIP3    H223174   5.470   6.272   0.342 -0.1464 -0.7962 -1.1344
  587TIP3   OH223175   1.791   6.483   2.315 -0.2320  0.1227  0.7125
  587TIP3    H123176   1.743   6.477   2.397 -1.6805 -0.0399 -0.1073
  587TIP3    H223177   1.806   6.577   2.303  1.1733  0.0528  1.8009
  588TIP3   OH223178   5.360   0.316   5.445  0.9877  0.1090  0.4065
  588TIP3    H123179   5.313   0.233   5.449 -1.3687  1.2451 -1.4573
  588TIP3    H223180   5.348   0.355   5.531  0.5911 -0.6800  0.7206
  589TIP3   OH223181   5.155   5.811   0.597 -0.6705  0.3904 -0.2154
  589TIP3    H123182   5.067   5.775   0.608 -0.4028  0.0003  0.6685
  589TIP3    H223183   5.167   5.869   0.672  0.7967 -1.5407  1.1443
  590TIP3   OH223184   3.437   2.220   3.486  0.0519  0.2453 -0.3224
  590TIP3    H123185   3.477   2.242   3.402  0.2439  0.3166 -0.2125
  590TIP3    H223186   3.342   2.229   3.471 -0.1051 -2.1450 -1.2523
  591TIP3   OH223187   1.579   0.983   4.647 -0.0667 -0.0813 -0.6145
  591TIP3    H123188   1.559   1.038   4.571  1.4762 -0.3361 -1.2413
  591TIP3    H223189   1.650   1.030   4.692  0.4908 -0.9817 -0.5277
  592TIP3   OH223190   3.635   0.558   4.650 -0.1283  0.4636 -0.1357
  592TIP3    H123191   3.669   0.609   4.724  0.4424  1.5092 -1.0843
  592TIP3    H223192   3.545   0.535   4.676  0.0076  0.9486  0.8069
  593TIP3   OH223193   1.516   4.611  11.977 -0.2137  0.5987  0.2307
  593TIP3    H123194   1.465   4.592  11.898 -0.5469  1.5362  0.2069
  593TIP3    H223195   1.598   4.649  11.944  0.4950 -0.8440  0.2718
  594TIP3   OH223196   1.844   0.125   2.559 -0.4951 -0.0603 -0.1781
  594TIP3    H123197   1.772   0.170   2.604 -0.1011  2.0124 -1.5014
  594TIP3    H223198   1.920   0.143   2.614 -1.0297 -3.1819  1.8306
  595TIP3   OH223199   4.394   3.910  14.712  0.2549 -0.0134  0.1682
  595TIP3    H123200   4.377   3.967  14.787 -1.2088  0.7247 -0.6664
  595TIP3    H223201   4.477   3.940  14.677  0.4395  0.3234  0.8817
  596TIP3   OH223202   2.091   1.791   3.132 -0.0316  0.1499  0.2800
  596TIP3    H123203   2.089   1.699   3.104  1.2481 -0.1166  1.0233
  596TIP3    H223204   2.006   1.826   3.103  0.0909 -0.8364 -1.4165
  597TIP3   OH223205   4.138   0.907   1.121  0.4094  0.1050  0.1547
  597TIP3    H123206   4.047   0.879   1.110  0.8071 -1.0267 -0.5131
  597TIP3    H223207   4.176   0.842   1.179  1.3061 -0.6758 -1.2397
  598TIP3   OH223208   3.522   0.044  12.448 -0.1983 -0.3216 -0.1381
  598TIP3    H123209   3.584  -0.012  12.402  0.3993  1.0324 -1.0643
  598TIP3    H223210   3.576   0.106  12.497 -0.7595  1.0996 -1.2308
  599TIP3   OH223211   3.766   3.995   1.093  0.1072 -0.1478  0.2169
  599TIP3    H123212   3.797   4.083   1.073  1.2908 -0.5644  0.1651
  599TIP3    H223213   3.820   3.966   1.167 -2.5394  0.4340  2.5388
  600TIP3   OH223214   5.059   1.524  16.139  0.9004 -0.0271 -0.0248
  600TIP3    H123215   5.149   1.491  16.146  0.4430 -0.9501  2.5587
  600TIP3    H223216   5.023   1.515  16.227 -1.4163  1.3170 -0.7461
  601TIP3   OH223217   0.993   3.396   5.865 -0.2949 -0.3082 -0.0722
  601TIP3    H123218   1.037   3.395   5.950 -0.8019 -2.0594  0.2155
  601TIP3    H223219   1.029   3.472   5.820  0.6493  0.1322  1.3688
  602TIP3   OH223220   1.334   0.621  17.164  0.3284  0.3268  0.4789
  602TIP3    H123221   1.381   0.590  17.087  0.1917  2.5752 -0.5852
  602TIP3    H223222   1.402   0.645  17.227  0.5234  0.6384  0.1529
  603TIP3   OH223223   3.974   0.887  16.335  0.2833 -0.5698 -0.9292
  603TIP3    H123224   3.936   0.854  16.253 -0.8949  0.8501 -1.0056
  603TIP3    H223225   4.011   0.810  16.377 -0.8800 -1.6905 -1.8678
  604TIP3   OH223226   6.118   4.840   4.168  0.2253 -0.4862  0.1905
  604TIP3    H123227   6.030   4.819   4.198 -0.3510  2.0704  0.5283
  604TIP3    H223228   6.170   4.762   4.189 -1.4104 -1.0997  2.3508
  605TIP3   OH223229   3.706   2.028  14.128  0.1977  0.3244 -0.5793
  605TIP3    H123230   3.795   2.003  14.153  0.2687  1.2221  0.0868
  605TIP3    H223231   3.717   2.077  14.046  0.3726  0.8459 -0.2491
  606TIP3   OH223232   3.257   0.564   1.000  0.2836  0.5755 -0.3950
  606TIP3    H123233   3.245   0.552   0.906  0.1342 -0.3451 -0.2699
  606TIP3    H223234   3.232   0.655   1.016  0.4543  0.7821 -1.2658
  607TIP3   OH223235   2.421   3.672  16.632 -0.0747 -0.1369  0.1992
  607TIP3    H123236   2.437   3.656  16.539  0.4207  0.2014  0.2198
  607TIP3    H223237   2.431   3.767  16.642 -0.0351 -0.1832  0.6153
  608TIP3   OH223238   3.753   5.570  12.855  0.1103 -0.7720 -0.4181
  608TIP3    H123239   3.779   5.501  12.916  1.1836 -1.0660 -1.1572
  608TIP3    H223240   3.760   5.651  12.905  0.1854 -1.0758  0.0724
  609TIP3   OH223241   2.839   3.067  11.970  0.7916 -0.4738  0.2477
  609TIP3    H123242   2.758   3.019  11.954  1.3540 -1.0915 -0.8451
  609TIP3    H223243   2.886   3.063  11.887  1.5936  0.5635  0.6293
  610TIP3   OH223244   3.126   4.618   1.133  0.1018  0.1356 -0.3782
  610TIP3    H123245   3.072   4.593   1.208  0.7497  1.0987  0.4374
  610TIP3    H223246   3.064   4.653   1.068 -0.3434  0.5135  0.2426
  611TIP3   OH223247   5.976   5.762   2.293 -0.0408 -0.3333  0.1857
  611TIP3    H123248   5.973   5.847   2.248  1.8542  0.1842  0.9156
  611TIP3    H223249   5.953   5.698   2.226 -1.4137  0.7368 -0.3999
  612TIP3   OH223250   2.831   0.992   4.780  0.6833 -0.0798 -0.1514
  612TIP3    H123251   2.825   0.896   4.785 -1.0531 -0.1318 -1.9802
  612TIP3    H223252   2.744   1.023   4.806  1.2434  1.0306  0.4836
  613TIP3   OH223253   2.194   0.519  12.584  0.4027  0.4620 -0.5606
  613TIP3    H123254   2.145   0.565  12.516  1.7072  0.6346 -1.4272
  613TIP3    H223255   2.197   0.580  12.658 -1.4031  0.1037 -0.1388
  614TIP3   OH223256   6.294   0.284  15.774  0.6975 -0.2119 -0.7239
  614TIP3    H123257   6.357   0.323  15.715 -0.5383  0.5570 -1.5875
  614TIP3    H223258   6.346   0.248  15.846  1.9532  2.7536 -0.0149
  615TIP3   OH223259   0.243   6.367   2.342  0.2009 -0.3152  0.0116
  615TIP3    H123260   0.274   6.454   2.319  2.9367 -1.0540  0.6012
  615TIP3    H223261   0.289   6.308   2.282 -1.3666 -1.4136 -0.1767
  616TIP3   OH223262   2.775   5.448  12.262  0.0566  0.0767  0.1200
  616TIP3    H123263   2.808   5.510  12.327 -1.2214  0.8705  0.0461
  616TIP3    H223264   2.689   5.421  12.295 -0.3824  0.0911 -0.9704
  617TIP3   OH223265   4.267   0.239  17.540  0.1143  0.7659  0.8284
  617TIP3    H123266   4.211   0.190  17.601 -0.9385 -0.0724 -0.7468
  617TIP3    H223267   4.297   0.173  17.477  0.6056  1.7316  0.0336
  618TIP3   OH223268   2.669   5.229  17.470 -0.2904  0.2457 -0.0094
  618TIP3    H123269   2.578   5.215  17.444  0.5324 -2.8228 -1.8862
  618TIP3    H223270   2.669   5.220  17.565 -1.7501 -1.6181 -0.1330
  619TIP3   OH223271   3.451   0.119   2.579 -0.5884  1.0909  0.2049
  619TIP3    H123272   3.537   0.135   2.540 -0.3940 -0.5780 -0.1263
  619TIP3    H223273   3.400   0.077   2.509 -1.5350  1.6401  0.5406
  620TIP3   OH223274   1.113   0.873   2.350 -0.3442  0.2373  0.6425
  620TIP3    H123275   1.164   0.842   2.275  0.1140  0.9500  0.6459
  620TIP3    H223276   1.177   0.919   2.405 -0.9745  1.0830  0.6850
  621TIP3   OH223277   3.049   0.345  13.284 -0.2968  0.3838  0.2672
  621TIP3    H123278   3.063   0.251  13.273  0.2832  0.6493 -1.7117
  621TIP3    H223279   3.095   0.366  13.365 -1.8635 -1.2835  1.6601
  622TIP3   OH223280   1.843   6.318  13.767 -0.0444 -0.7901 -0.0291
  622TIP3    H123281   1.893   6.318  13.849 -0.7838  0.6382  0.4399
  622TIP3    H223282   1.753   6.304  13.794 -0.5041  1.1517 -0.4423
  623TIP3   OH223283   1.058   0.819   3.107 -0.4084  0.1571  0.3202
  623TIP3    H123284   0.994   0.883   3.141  1.2681  2.1499 -0.0960
  623TIP3    H223285   1.105   0.866   3.038  0.5795 -1.7165 -0.3423
  624TIP3   OH223286   2.726   0.622   3.905 -0.4709 -0.1450 -0.7338
  624TIP3    H123287   2.757   0.565   3.836 -1.0679 -2.3054  0.6939
  624TIP3    H223288   2.795   0.620   3.971  0.1662  2.0121 -1.2574
  625TIP3   OH223289   3.733   4.029   4.910 -0.9680 -0.0136 -0.3810
  625TIP3    H123290   3.652   3.981   4.896  0.7865 -2.4730 -3.2886
  625TIP3    H223291   3.773   3.988   4.987 -1.8939  0.4228  0.3488
  626TIP3   OH223292   6.546   5.529   4.110 -0.3399  0.3493 -0.5543
  626TIP3    H123293   6.475   5.480   4.151 -0.7573 -0.3323 -2.0104
  626TIP3    H223294   6.568   5.478   4.032 -0.0248  1.9082 -1.5373
  627TIP3   OH223295   2.149   2.638  16.256  0.2072  0.7570 -0.6861
  627TIP3    H123296   2.102   2.721  16.243 -3.3531 -0.9666 -0.1044
  627TIP3    H223297   2.160   2.631  16.351  0.2813  0.4514 -0.7180
  628TIP3   OH223298   2.054   3.158  15.845  0.1262 -0.4718 -0.7650
  628TIP3    H123299   1.963   3.186  15.854 -0.3052 -1.2329 -2.4116
  628TIP3    H223300   2.102   3.239  15.823 -0.0716 -0.0116  0.4255
  629TIP3   OH223301   1.328   0.063   0.034 -0.2800  0.0052  0.9333
  629TIP3    H123302   1.253   0.112  -0.001  0.7785  1.0769  0.0862
  629TIP3    H223303   1.365   0.120   0.101 -0.5052 -0.7450  1.7122
  630TIP3   OH223304   3.828   6.397  14.844  0.5278  0.6305  0.3447
  630TIP3    H123305   3.882   6.393  14.765  0.6828  0.3820  0.4634
  630TIP3    H223306   3.851   6.480  14.885 -0.7585  1.5722 -0.7323
  631TIP3   OH223307   2.541   4.778   6.321 -0.1101 -0.2850 -0.1205
  631TIP3    H123308   2.602   4.767   6.248 -0.1904  0.6122 -0.3383
  631TIP3    H223309   2.462   4.733   6.293  0.4799 -1.5733  0.2190
  632TIP3   OH223310   1.570   3.822  14.816  0.1442  0.2211  0.3058
  632TIP3    H123311   1.483   3.851  14.789  0.3884 -0.8662 -1.9267
  632TIP3    H223312   1.555   3.735  14.853  0.3511 -0.5070 -1.2235
  633TIP3   OH223313   3.835   2.507   5.947 -0.1587  0.7750  0.1362
  633TIP3    H123314   3.910   2.466   5.992 -1.1281 -0.7459  0.4509
  633TIP3    H223315   3.826   2.593   5.988 -0.7098 -0.3598  2.5919
  634TIP3   OH223316   5.380   5.103  14.421  0.0541 -0.2428  0.0869
  634TIP3    H123317   5.437   5.078  14.348  1.9471 -0.1781  1.4688
  634TIP3    H223318   5.439   5.146  14.483 -1.2443 -1.3885  2.2022
  635TIP3   OH223319   3.295   4.118   5.489 -0.3245  0.3238 -0.3249
  635TIP3    H123320   3.303   4.080   5.576 -0.8787  2.7498  0.8795
  635TIP3    H223321   3.385   4.142   5.465 -0.3843  1.3888  0.4580
  636TIP3   OH223322   2.954   5.970  15.549  0.3598 -0.0183 -0.2851
  636TIP3    H123323   2.877   5.961  15.494 -0.0082 -0.9399  0.3400
  636TIP3    H223324   2.969   6.064  15.556 -1.0876  0.2105  0.0795
  637TIP3   OH223325   4.835   0.755   5.670  0.2426 -0.7958 -0.3977
  637TIP3    H123326   4.918   0.712   5.691  0.8473  0.5855  0.2228
  637TIP3    H223327   4.792   0.765   5.755 -0.0013 -0.4405 -0.5628
  638TIP3   OH223328   3.129   0.121   0.211  0.0070 -0.6623  0.9118
  638TIP3    H123329   3.084   0.042   0.182 -1.0290  0.0500  0.5066
  638TIP3    H223330   3.222   0.103   0.196 -0.0107 -2.5098  2.5702
  639TIP3   OH223331   0.902   4.489  16.132 -0.0510  0.0182 -0.1132
  639TIP3    H123332   0.913   4.421  16.066  0.4679 -0.9482  0.9382
  639TIP3    H223333   0.853   4.446  16.203 -0.4908  0.9936  0.1999
  640TIP3   OH223334   1.128   5.006   5.369 -0.5930  0.2862  0.3060
  640TIP3    H123335   1.070   5.075   5.399 -1.9466 -0.4061 -0.6129
  640TIP3    H223336   1.083   4.924   5.393 -0.0324 -0.2660 -0.4764
  641TIP3   OH223337   2.656   0.453   1.397 -0.2190 -0.5465  0.4067
  641TIP3    H123338   2.747   0.482   1.400  0.0531 -1.3837  0.3095
  641TIP3    H223339   2.616   0.494   1.474  0.3465 -0.5423  0.7042
  642TIP3   OH223340   3.417   4.603  14.174 -0.0625  0.6474  0.2872
  642TIP3    H123341   3.508   4.617  14.147 -0.3453 -1.8441 -2.5324
  642TIP3    H223342   3.422   4.537  14.244  0.3099 -1.9332 -2.0196
  643TIP3   OH223343   5.656   4.522  12.928  0.7480 -0.3824  0.3065
  643TIP3    H123344   5.594   4.532  12.855 -0.0682  0.9728  1.1360
  643TIP3    H223345   5.615   4.457  12.985  0.8938 -0.6944  0.0589
  644TIP3   OH223346   2.804   4.934   5.193 -0.1783 -0.1430  0.1577
  644TIP3    H123347   2.751   4.920   5.115  0.0295  1.0630 -0.2243
  644TIP3    H223348   2.858   4.855   5.200 -0.2770 -0.3137 -0.8554
  645TIP3   OH223349   0.781   0.402  13.010 -0.5169 -0.2493  0.2789
  645TIP3    H123350   0.797   0.417  12.917 -1.3914 -2.0752 -0.2127
  645TIP3    H223351   0.776   0.307  13.018 -2.0335 -0.0738  1.8981
  646TIP3   OH223352   0.037   6.621   1.652 -0.2342  0.0981  0.4528
  646TIP3    H123353  -0.018   6.556   1.696  0.9069 -0.9537  0.3944
  646TIP3    H223354  -0.013   6.646   1.574 -0.6117 -0.8884  0.3597
  647TIP3   OH223355   3.759   6.137  10.914 -0.4096 -0.2258  0.1117
  647TIP3    H123356   3.749   6.176  10.827 -2.6484 -0.6538  0.1059
  647TIP3    H223357   3.722   6.049  10.905  0.4616 -0.7244  1.2015
  648TIP3   OH223358   4.927   0.172  14.437  0.2933 -0.2673  0.0843
  648TIP3    H123359   4.849   0.217  14.403 -0.0284 -0.1516  0.9453
  648TIP3    H223360   4.986   0.243  14.461  0.5234 -0.3490 -0.2404
  649TIP3   OH223361   2.293   2.240   5.987 -0.2747 -0.1723  0.2325
  649TIP3    H123362   2.235   2.189   5.931  0.6973  0.2163 -1.1712
  649TIP3    H223363   2.286   2.329   5.954  0.7062 -0.0301  0.3926
  650TIP3   OH223364   1.419   1.586  11.248 -0.0260  0.4288 -0.3749
  650TIP3    H123365   1.397   1.511  11.192  0.0754 -0.1743  0.3734
  650TIP3    H223366   1.514   1.595  11.241  0.0623 -0.0497  0.1952
  651TIP3   OH223367   6.249   0.677  14.174  0.5544 -0.1234 -0.2393
  651TIP3    H123368   6.302   0.607  14.138  0.1496 -0.5964  0.0714
  651TIP3    H223369   6.206   0.638  14.250  0.8555  0.6494  0.3479
  652TIP3   OH223370   3.418   1.710   3.371  0.8297 -0.3815 -0.3137
  652TIP3    H123371   3.391   1.754   3.452  0.1996  0.2979 -0.8775
  652TIP3    H223372   3.425   1.618   3.395  1.5685 -0.0815  0.7444
  653TIP3   OH223373   2.820   3.740  12.030 -0.0346  0.5610  0.3226
  653TIP3    H123374   2.848   3.711  12.116 -0.0335  1.4180  0.6245
  653TIP3    H223375   2.813   3.835  12.038  3.1762  1.0975 -1.5158
  654TIP3   OH223376   0.481   4.420   2.218  0.2866  0.1870  0.0318
  654TIP3    H123377   0.557   4.451   2.267  0.2259  0.2930  0.0579
  654TIP3    H223378   0.519   4.380   2.139  0.3960 -0.1704  0.2632
  655TIP3   OH223379   2.935   0.432  17.068  0.1543  0.5893 -0.2117
  655TIP3    H123380   2.946   0.371  17.142  0.5736  1.4704  0.4627
  655TIP3    H223381   2.852   0.405  17.028  0.0291 -0.0507  0.4434
  656TIP3   OH223382   3.620   0.239  11.972 -0.0475  0.5139 -0.1343
  656TIP3    H123383   3.593   0.291  12.048 -1.6820 -0.6530  0.1465
  656TIP3    H223384   3.604   0.148  11.999  2.3948 -0.1676 -0.7193
  657TIP3   OH223385   5.606   4.236  14.945 -0.2719 -0.1801 -0.2243
  657TIP3    H123386   5.555   4.312  14.974 -1.8526 -1.2490 -0.0630
  657TIP3    H223387   5.697   4.263  14.955 -0.7875  1.1602  1.2928
  658TIP3   OH223388   1.359   2.695   3.975  0.3137 -0.1060 -0.0782
  658TIP3    H123389   1.370   2.764   4.041 -0.1063 -0.4696  0.3794
  658TIP3    H223390   1.439   2.642   3.983  1.0703  0.8474 -1.0718
  659TIP3   OH223391   1.447   4.452  14.947  0.0287  0.2024 -0.0588
  659TIP3    H123392   1.362   4.480  14.979 -0.0550 -0.7614  0.6233
  659TIP3    H223393   1.493   4.533  14.926 -0.7965  0.7628  0.2377
  660TIP3   OH223394   3.072   2.030  12.017 -0.5836 -0.1699 -0.7613
  660TIP3    H123395   2.991   2.076  12.039 -0.5198  0.0627 -1.0147
  660TIP3    H223396   3.054   1.939  12.040 -0.7585 -0.0434 -0.3946
  661TIP3   OH223397   4.043   2.898  13.546 -0.6109  0.3895 -0.1452
  661TIP3    H123398   4.100   2.904  13.469  0.3133  0.0618  0.4943
  661TIP3    H223399   4.103   2.893  13.620 -1.4097 -2.2502  0.4215
  662TIP3   OH223400   5.041   1.662   2.950  0.0721  0.0748 -0.5634
  662TIP3    H123401   5.042   1.754   2.923 -1.7458  1.5975  3.6796
  662TIP3    H223402   5.102   1.659   3.024 -1.3112 -1.6260  0.5870
  663TIP3   OH223403   0.077   2.140   4.225  0.2055 -0.1154 -0.6454
  663TIP3    H123404   0.082   2.183   4.310 -2.1668  0.0074 -0.5102
  663TIP3    H223405   0.155   2.083   4.223  1.4690  1.4617  0.6530
  664TIP3   OH223406   4.841   5.588   0.092 -0.4241  0.4823 -0.0502
  664TIP3    H123407   4.877   5.516   0.144  0.6283 -0.7212 -2.2988
  664TIP3    H223408   4.915   5.645   0.075 -1.0180  1.5210  0.7513
  665TIP3   OH223409   5.168   1.801   3.891 -0.3770 -0.1326 -0.2218
  665TIP3    H123410   5.117   1.788   3.971  0.4578 -0.8779  0.2013
  665TIP3    H223411   5.247   1.748   3.903  1.2846  2.1980 -0.1745
  666TIP3   OH223412   5.492   5.186   2.724 -0.0109 -0.2311  0.0468
  666TIP3    H123413   5.460   5.097   2.707 -1.3903  0.2851 -0.1951
  666TIP3    H223414   5.466   5.204   2.814 -0.5895  0.2614 -0.2099
  667TIP3   OH223415   0.728   6.412  11.872  0.1505  0.3379  0.2233
  667TIP3    H123416   0.822   6.395  11.864 -0.0695 -1.9105  1.7079
  667TIP3    H223417   0.698   6.421  11.781  1.2775 -2.3616 -0.5193
  668TIP3   OH223418   1.191   0.761  16.811 -0.8218 -0.4799  0.5065
  668TIP3    H123419   1.243   0.841  16.801 -1.1216 -0.2638  0.6501
  668TIP3    H223420   1.208   0.711  16.731  0.1922 -0.7575  0.8926
  669TIP3   OH223421   1.248   3.330  14.271  0.7633  0.3243 -0.0012
  669TIP3    H123422   1.261   3.245  14.228  0.7926  1.5595 -2.5910
  669TIP3    H223423   1.165   3.363  14.236  2.8853  3.3394 -2.7638
  670TIP3   OH223424   4.061   4.376  13.783  0.1558 -0.2814 -0.2832
  670TIP3    H123425   4.054   4.462  13.743  0.0159 -0.1376  0.0449
  670TIP3    H223426   4.124   4.388  13.855 -1.6553  0.1335  1.2974
  671TIP3   OH223427   3.653   2.588  14.946  0.1541 -0.1716 -0.2736
  671TIP3    H123428   3.610   2.542  14.874 -1.0023  0.3049  0.0798
  671TIP3    H223429   3.687   2.519  15.002 -0.1661 -0.5710 -0.5648
  672TIP3   OH223430   3.973   3.400  11.223  0.0152 -0.0918  0.0783
  672TIP3    H123431   3.930   3.322  11.259 -2.4284 -0.0594 -2.3982
  672TIP3    H223432   3.972   3.387  11.128  0.6022  2.4227 -0.3534
  673TIP3   OH223433   3.225   5.822  14.128 -0.2482 -0.2909 -0.0482
  673TIP3    H123434   3.282   5.891  14.093 -0.3198 -0.1837  0.0435
  673TIP3    H223435   3.283   5.766  14.179 -0.3267  0.1727  0.5645
  674TIP3   OH223436   4.712   4.858   1.948  0.2894  0.1070 -0.0156
  674TIP3    H123437   4.702   4.953   1.942 -0.2766  0.0181 -0.6581
  674TIP3    H223438   4.772   4.835   1.877 -0.6426 -0.1508 -0.7499
  675TIP3   OH223439   2.746   2.450  11.336  0.0228 -0.1355  0.8810
  675TIP3    H123440   2.681   2.495  11.281 -0.3790 -0.0548  1.4092
  675TIP3    H223441   2.765   2.369  11.289  1.0255  0.7385 -0.2627
  676TIP3   OH223442   5.327   3.695   1.009 -0.1972  0.1832 -0.2074
  676TIP3    H123443   5.288   3.780   1.029 -0.3219  0.6281 -2.1997
  676TIP3    H223444   5.386   3.712   0.936  0.7745 -1.2143  0.2163
  677TIP3   OH223445   6.506   2.286   4.787  0.7570 -0.4004 -0.6680
  677TIP3    H123446   6.476   2.374   4.766 -1.1807 -0.7909  0.2578
  677TIP3    H223447   6.602   2.292   4.784  0.6859  1.8454 -0.1858
  678TIP3   OH223448   0.517   3.083  14.660  0.5126  0.0968 -0.1227
  678TIP3    H123449   0.483   3.087  14.571 -0.7883 -2.4124  0.1689
  678TIP3    H223450   0.453   3.132  14.712  1.1875  1.4260 -0.5034
  679TIP3   OH223451   0.248   2.737  15.235 -0.0050  0.0368  0.1853
  679TIP3    H123452   0.241   2.830  15.213  1.4142 -0.1914 -1.4875
  679TIP3    H223453   0.252   2.735  15.331  0.2165  1.7102  0.2448
  680TIP3   OH223454   1.138   6.027   4.785 -0.0120  0.2176  0.5974
  680TIP3    H123455   1.082   6.104   4.792 -0.1184  0.0543  1.7019
  680TIP3    H223456   1.077   5.953   4.792  0.1529  0.0266  0.0845
  681TIP3   OH223457   2.290   0.124   2.947  0.0364 -0.0682 -0.2870
  681TIP3    H123458   2.345   0.111   2.869 -0.0018 -1.4575 -0.1071
  681TIP3    H223459   2.331   0.071   3.015 -0.8031 -0.1124  0.2057
  682TIP3   OH223460   2.302   3.510  13.011  0.1208  0.2777 -0.1085
  682TIP3    H123461   2.223   3.501  12.958 -1.4133  0.8065  1.9633
  682TIP3    H223462   2.294   3.596  13.052  0.7871 -0.4737  1.6745
  683TIP3   OH223463   4.098   4.503   3.561 -0.5448  0.3482  0.2183
  683TIP3    H123464   4.101   4.598   3.574  0.3550  0.4873 -0.8945
  683TIP3    H223465   4.182   4.481   3.520 -0.6059 -0.9852  0.7321
  684TIP3   OH223466   6.552   2.129  15.178  0.7358 -0.0842 -0.1095
  684TIP3    H123467   6.478   2.077  15.210  0.0047  0.2230 -1.2391
  684TIP3    H223468   6.627   2.096  15.228 -0.0376 -0.8705  0.5857
  685TIP3   OH223469   3.827   3.810   5.812  0.3870  0.0559  0.4372
  685TIP3    H123470   3.850   3.736   5.756  1.2346  2.1097 -2.1606
  685TIP3    H223471   3.890   3.806   5.884  1.5549 -0.7950 -0.5794
  686TIP3   OH223472   0.701   6.703   3.214 -0.0202  0.1725  0.3411
  686TIP3    H123473   0.684   6.782   3.265 -1.3758  0.9003 -1.1813
  686TIP3    H223474   0.625   6.647   3.231 -0.3294  0.2889 -0.5977
  687TIP3   OH223475   1.496   6.520   3.676 -0.0488 -0.5402  0.0824
  687TIP3    H123476   1.454   6.605   3.660  0.2865 -0.5343 -0.8264
  687TIP3    H223477   1.428   6.455   3.657  0.4452 -0.5516 -1.9298
  688TIP3   OH223478   1.378   3.662  16.717 -0.3462 -0.6287 -0.7549
  688TIP3    H123479   1.299   3.705  16.684 -1.9106 -2.2319  0.7060
  688TIP3    H223480   1.365   3.569  16.697  1.0624 -0.9579 -0.2565
  689TIP3   OH223481   0.372   5.514  17.624 -0.2743  0.3948  0.0419
  689TIP3    H123482   0.382   5.507  17.529 -2.3032  0.2774 -0.2007
  689TIP3    H223483   0.296   5.460  17.644 -0.6050  1.3825  1.5617
  690TIP3   OH223484   4.369   0.102  13.698 -0.6940 -0.5639 -0.3432
  690TIP3    H123485   4.407   0.033  13.752 -0.9426 -1.4382 -1.2464
  690TIP3    H223486   4.441   0.162  13.680 -0.4999 -0.5208  0.5388
  691TIP3   OH223487   0.250   3.875  17.468 -0.2325 -0.2946  0.7579
  691TIP3    H123488   0.192   3.882  17.393  0.4508  2.1329  0.3716
  691TIP3    H223489   0.313   3.806  17.444 -1.0398 -0.7348 -0.1347
  692TIP3   OH223490   2.270   6.076  14.557 -0.1705 -0.4425  0.6247
  692TIP3    H123491   2.249   5.984  14.545 -0.1565 -0.2372 -1.3033
  692TIP3    H223492   2.320   6.100  14.479 -0.5370  1.2902  0.8724
  693TIP3   OH223493   4.723   2.489   3.305 -0.8583  0.1546  0.1618
  693TIP3    H123494   4.797   2.493   3.245  0.8078 -0.3007  2.0714
  693TIP3    H223495   4.663   2.427   3.264  0.7915 -1.1235 -0.4629
  694TIP3   OH223496   0.578   2.172  13.070  0.1024  0.9242  0.2918
  694TIP3    H123497   0.568   2.261  13.037  0.5453  0.6161 -0.7305
  694TIP3    H223498   0.662   2.172  13.117  0.1112  1.0380  0.2745
  695TIP3   OH223499   3.673   6.588   5.046  0.2933 -0.0887 -0.6250
  695TIP3    H123500   3.696   6.608   4.955 -0.8465 -0.5160 -1.0182
  695TIP3    H223501   3.755   6.598   5.093  0.8538  0.3950 -1.6569
  696TIP3   OH223502   2.461   2.246   5.401 -0.0325  0.6077  0.3395
  696TIP3    H123503   2.419   2.297   5.470  0.0512 -0.7323  1.4279
  696TIP3    H223504   2.458   2.156   5.432  1.8222  0.2039 -0.4853
  697TIP3   OH223505   6.076   1.274  15.685 -0.2781 -0.2593 -0.8952
  697TIP3    H123506   6.058   1.203  15.623  1.4251 -1.2294 -0.3466
  697TIP3    H223507   6.087   1.351  15.629 -1.2104 -0.5985 -1.5811
  698TIP3   OH223508   4.920   6.475   3.774 -0.3415 -0.2531  0.2790
  698TIP3    H123509   4.943   6.531   3.848 -2.5834  0.8889  0.2253
  698TIP3    H223510   4.861   6.410   3.811 -1.3375  0.2219 -0.4335
  699TIP3   OH223511   2.812   1.498  15.547 -0.5802  0.2433  0.3748
  699TIP3    H123512   2.805   1.403  15.536  0.6846  0.1807 -0.0914
  699TIP3    H223513   2.819   1.532  15.458  0.4469  0.6214  0.5789
  700TIP3   OH223514   2.703   1.901   3.018 -0.1444  0.1795 -0.3510
  700TIP3    H123515   2.788   1.864   2.996  0.1698  1.5601 -1.7476
  700TIP3    H223516   2.640   1.835   2.989  0.4286 -0.1260 -0.9494
  701TIP3   OH223517   1.511   4.963  17.165 -0.0582  0.3223 -0.4057
  701TIP3    H123518   1.551   4.903  17.228 -0.2133 -0.8152 -1.3602
  701TIP3    H223519   1.420   4.971  17.193 -0.1402 -0.2195 -0.5100
  702TIP3   OH223520   5.682   3.120  13.031  0.5211 -0.7714  0.1361
  702TIP3    H123521   5.613   3.056  13.047  0.3163 -1.2752 -2.3397
  702TIP3    H223522   5.638   3.205  13.036 -0.0081 -1.0242 -0.1294
  703TIP3   OH223523   3.541   2.242  12.038 -0.4775 -0.0114  0.1640
  703TIP3    H123524   3.607   2.174  12.047  0.6977  1.1198  0.4064
  703TIP3    H223525   3.474   2.203  11.982 -0.6532 -1.9264  1.6042
  704TIP3   OH223526   5.372   4.911   2.662 -0.2431 -0.6442  0.4164
  704TIP3    H123527   5.444   4.849   2.655 -0.6212 -1.0568  0.1660
  704TIP3    H223528   5.332   4.892   2.747  0.2196 -0.1019  0.7698
  705TIP3   OH223529   4.315   4.929   0.060 -0.3903 -0.4336 -0.1333
  705TIP3    H123530   4.407   4.911   0.078 -0.7267 -2.9333 -0.5564
  705TIP3    H223531   4.315   5.016   0.020  1.7499 -0.3231 -0.0024
  706TIP3   OH223532   2.524   3.023   0.731 -0.4171  0.1531  0.4778
  706TIP3    H123533   2.613   3.055   0.744  0.4191 -2.2559  1.3235
  706TIP3    H223534   2.525   2.982   0.644  0.1192 -2.0818  1.4586
  707TIP3   OH223535   5.079   3.011  13.756 -0.0066  0.0965 -0.3155
  707TIP3    H123536   5.172   3.028  13.741 -0.1102 -0.7080 -2.0230
  707TIP3    H223537   5.035   3.047  13.679 -1.1474  0.6626  0.5754
  708TIP3   OH223538   2.807   4.371   3.462  0.1260  0.4366  0.6846
  708TIP3    H123539   2.792   4.305   3.529 -0.2440  0.5466  0.7090
  708TIP3    H223540   2.903   4.379   3.457  0.1970 -0.7061  0.0847
  709TIP3   OH223541   6.638   5.416   0.985  0.6571 -0.0090  0.2998
  709TIP3    H123542   6.674   5.341   1.032  0.7665  0.7443  1.4382
  709TIP3    H223543   6.545   5.417   1.008  0.8546  0.7904  1.1077
  710TIP3   OH223544   2.931   3.809   6.037  0.2602  0.4557  0.0783
  710TIP3    H123545   2.908   3.809   5.945 -1.1382  0.5362  0.4065
  710TIP3    H223546   2.868   3.750   6.078  1.5534 -0.4594  0.8418
  711TIP3   OH223547   3.032   4.123  12.124 -0.0201 -0.2194  0.7979
  711TIP3    H123548   2.950   4.076  12.111  0.2693 -0.8648  1.2963
  711TIP3    H223549   3.084   4.103  12.046  0.4637 -1.5032  1.4175
  712TIP3   OH223550   6.688   3.754  15.329  0.4626  0.5569 -0.2451
  712TIP3    H123551   6.722   3.778  15.416  0.1798  0.7881 -0.1975
  712TIP3    H223552   6.599   3.725  15.346  0.2458  1.0491 -0.5155
  713TIP3   OH223553   3.905   0.725  16.697  0.1576  0.4020  0.0299
  713TIP3    H123554   3.943   0.810  16.674  1.5778  0.5298  2.4623
  713TIP3    H223555   3.927   0.713  16.790 -2.5263 -1.3256  0.5654
  714TIP3   OH223556   2.076   4.766   3.305 -0.4182 -0.3290 -0.0845
  714TIP3    H123557   1.992   4.805   3.281 -1.1993 -2.1780 -0.5813
  714TIP3    H223558   2.126   4.767   3.223 -0.0211  0.5735  0.1594
  715TIP3   OH223559   0.491   4.717   1.489 -0.3861 -0.3720  0.3283
  715TIP3    H123560   0.410   4.684   1.529 -1.7390 -0.9811 -2.6038
  715TIP3    H223561   0.475   4.710   1.395  1.9896  2.2532 -0.4047
  716TIP3   OH223562   4.898   3.490   3.626  0.8886  0.5989 -1.2033
  716TIP3    H123563   4.930   3.426   3.563 -0.1392 -1.3140  0.1000
  716TIP3    H223564   4.804   3.472   3.632  0.5391  2.3534 -0.8834
  717TIP3   OH223565   6.182   1.885  17.296 -0.1637 -0.2687  0.1419
  717TIP3    H123566   6.222   1.800  17.310 -0.5871 -0.6042 -0.6388
  717TIP3    H223567   6.161   1.917  17.384  2.2203  0.1320  0.6281
  718TIP3   OH223568   3.037   3.630  15.856  0.2914 -0.6153 -0.5125
  718TIP3    H123569   3.101   3.607  15.923  1.7079  0.3928 -1.4594
  718TIP3    H223570   2.968   3.677  15.903 -0.2816 -2.5157  0.6652
  719TIP3   OH223571   4.747   1.084  13.054 -0.5337 -0.5987  0.4213
  719TIP3    H123572   4.741   1.036  13.136 -0.9195 -1.1375  0.0859
  719TIP3    H223573   4.661   1.072  13.013  0.3703 -2.3407 -1.1475
  720TIP3   OH223574   2.863   4.483   6.177 -0.0708 -0.2250 -0.2703
  720TIP3    H123575   2.769   4.499   6.174  0.2045  3.0803  2.2589
  720TIP3    H223576   2.880   4.458   6.268  1.6655  1.0837 -0.1813
  721TIP3   OH223577   5.475   4.588   5.257  0.6464 -0.6022 -0.3364
  721TIP3    H123578   5.541   4.531   5.297  2.0368 -0.2635 -1.9845
  721TIP3    H223579   5.402   4.530   5.236  0.5199 -1.0488  1.2378
  722TIP3   OH223580   3.447   3.786  10.957 -0.0878 -0.5782  0.2303
  722TIP3    H123581   3.459   3.876  10.987 -2.0054 -0.1358 -0.2147
  722TIP3    H223582   3.530   3.764  10.916  0.3473  1.0646  0.1450
  723TIP3   OH223583   2.552   2.989  12.200  0.8693  0.2133 -0.5496
  723TIP3    H123584   2.529   2.903  12.164 -0.8941  0.5916 -0.4014
  723TIP3    H223585   2.480   3.046  12.173  1.4459  1.3837  0.3241
  724TIP3   OH223586   0.950   3.019   4.191  0.1387 -0.1701  0.5254
  724TIP3    H123587   0.908   3.021   4.105 -0.3684  1.6226  0.7768
  724TIP3    H223588   1.044   3.016   4.172  0.0087 -1.0390 -0.0570
  725TIP3   OH223589   6.411   6.565  13.017 -0.3735  0.5696 -0.2657
  725TIP3    H123590   6.466   6.598  13.088  0.5765  0.7449 -1.0636
  725TIP3    H223591   6.417   6.632  12.949  1.7539 -1.2340 -1.9993
  726TIP3   OH223592   6.507   5.270  17.589  0.0251  0.0349  0.6548
  726TIP3    H123593   6.493   5.197  17.528 -2.9875  0.1564  1.0504
  726TIP3    H223594   6.570   5.327  17.544 -0.8290 -0.7080 -1.6455
  727TIP3   OH223595   1.344   5.594  16.871 -0.2270 -0.3165 -0.4831
  727TIP3    H123596   1.385   5.680  16.878 -1.8668  0.3285  4.0440
  727TIP3    H223597   1.417   5.533  16.877  0.6094  0.8243  2.2261
  728TIP3   OH223598   1.722   3.955  12.546 -0.1907 -0.0076 -0.2661
  728TIP3    H123599   1.721   4.043  12.586 -0.0398 -0.1375  0.0299
  728TIP3    H223600   1.757   3.969  12.458 -2.1665  0.5441 -1.0067
  729TIP3   OH223601   3.286   2.115   5.598 -0.0563 -0.1972  0.1512
  729TIP3    H123602   3.193   2.096   5.609  0.2275 -1.5795  0.3345
  729TIP3    H223603   3.314   2.055   5.529  1.0764 -1.0471  1.3225
  730TIP3   OH223604   4.842   5.803  11.680  0.0790  0.6449  0.4412
  730TIP3    H123605   4.901   5.822  11.754  0.2934  0.9749  0.1848
  730TIP3    H223606   4.871   5.861  11.610 -1.6303  2.0470  0.8261
  731TIP3   OH223607   4.305   0.909  16.342  0.3324 -0.0348 -0.1067
  731TIP3    H123608   4.219   0.951  16.337  0.8831  1.0052 -1.8823
  731TIP3    H223609   4.313   0.881  16.433 -2.3837 -1.2575 -0.1533
  732TIP3   OH223610   4.967   1.265   4.767  0.1926 -0.1572  0.4223
  732TIP3    H123611   4.906   1.192   4.760  0.9212 -0.6322 -1.7158
  732TIP3    H223612   5.053   1.227   4.749  0.9364  0.7996  1.7712
  733TIP3   OH223613   2.280   3.622  11.169 -0.1008  0.4395 -0.0208
  733TIP3    H123614   2.222   3.698  11.162  0.4465  0.7583 -1.5001
  733TIP3    H223615   2.222   3.548  11.182 -0.6549  1.0769  1.3593
  734TIP3   OH223616   0.829   3.093  14.747 -0.2672 -0.3274  0.0841
  734TIP3    H123617   0.781   3.012  14.737 -0.0284 -0.4383 -0.1752
  734TIP3    H223618   0.883   3.099  14.668  0.2942 -0.3086  0.4634
  735TIP3   OH223619   2.541   5.761  14.362 -0.2918  0.1434  0.7691
  735TIP3    H123620   2.515   5.699  14.430  2.5767 -1.5651  0.4656
  735TIP3    H223621   2.500   5.728  14.282 -0.4280 -0.2118  0.9840
  736TIP3   OH223622   0.772   2.146  17.388 -0.1965 -0.3215 -0.0700
  736TIP3    H123623   0.714   2.144  17.464  0.3670  1.0637  0.4287
  736TIP3    H223624   0.788   2.054  17.367 -1.7214 -0.7220  0.4283
  737TIP3   OH223625   6.539   4.551   0.632  0.0135  0.4063  0.2039
  737TIP3    H123626   6.621   4.550   0.681  0.3101  1.8434 -0.2046
  737TIP3    H223627   6.548   4.625   0.572 -0.0245 -1.6870 -2.5690
  738TIP3   OH223628   0.953   4.595  11.498 -0.2381  0.0962 -0.4497
  738TIP3    H123629   0.959   4.524  11.563  1.5656  0.6020 -0.0162
  738TIP3    H223630   0.880   4.569  11.442 -1.2037 -0.8753  1.1624
  739TIP3   OH223631   0.380   3.000   5.602 -0.1926  0.6066  0.1176
  739TIP3    H123632   0.463   3.046   5.588 -1.5552  2.7142 -1.7798
  739TIP3    H223633   0.355   2.968   5.516 -0.9291 -0.8290  0.8336
  740TIP3   OH223634   1.492   5.612   1.843  0.0708 -0.0441 -0.7498
  740TIP3    H123635   1.476   5.704   1.824  2.8003  0.3662 -1.5174
  740TIP3    H223636   1.497   5.607   1.938 -1.1567  0.3573 -0.6489
  741TIP3   OH223637   5.882   4.921   6.646 -0.1342  0.7605  0.3222
  741TIP3    H123638   5.972   4.898   6.622 -0.4852  0.3943 -0.7002
  741TIP3    H223639   5.876   5.015   6.629  0.5679  1.1834  2.1365
  742TIP3   OH223640   6.538   2.312  14.787 -0.2243  0.4925  0.5263
  742TIP3    H123641   6.467   2.248  14.792  0.9372 -0.7815  1.6109
  742TIP3    H223642   6.525   2.367  14.864 -1.9077  2.4000 -1.0178
  743TIP3   OH223643   1.609   2.031  15.821  0.0259  0.0207 -0.1737
  743TIP3    H123644   1.673   2.007  15.887  0.7693  0.8064 -0.5855
  743TIP3    H223645   1.641   1.991  15.740 -0.1211  0.2357 -0.3399
  744TIP3   OH223646   5.308   1.117  17.410 -0.8137  0.1084  0.6111
  744TIP3    H123647   5.278   1.080  17.493 -0.0433  0.3838  1.0207
  744TIP3    H223648   5.229   1.152  17.369 -1.2025 -0.0596  1.2126
  745TIP3   OH223649   0.294   1.655  14.579 -0.0112  0.2896 -0.7356
  745TIP3    H123650   0.301   1.736  14.629  0.2537  1.0365 -1.9317
  745TIP3    H223651   0.200   1.640  14.570 -0.1465  1.9248 -2.7046
  746TIP3   OH223652   5.743   2.233  15.654  0.0562  0.0578 -0.7770
  746TIP3    H123653   5.746   2.199  15.565  0.5228 -1.2882 -0.2719
  746TIP3    H223654   5.833   2.261  15.671  0.0659 -0.0974 -0.5761
  747TIP3   OH223655   0.608   2.817  13.468  0.0554 -0.0529 -0.2323
  747TIP3    H123656   0.514   2.832  13.468 -0.1724 -1.2094 -1.8259
  747TIP3    H223657   0.636   2.838  13.378  1.2835  0.0930  0.1634
  748TIP3   OH223658   3.052   2.500   2.557  0.3866 -0.0133 -0.0181
  748TIP3    H123659   3.099   2.576   2.524  0.8178  0.2194  1.0838
  748TIP3    H223660   2.988   2.537   2.618  0.3128 -0.4960  0.1974
  749TIP3   OH223661   5.965   0.829  11.957  0.4997 -0.0554 -0.3638
  749TIP3    H123662   6.015   0.877  11.891 -1.4750 -0.1584 -2.0444
  749TIP3    H223663   5.875   0.830  11.924 -0.0529 -2.7056  0.7987
  750TIP3   OH223664   4.431   3.152  17.180 -0.0496 -0.3903 -0.1159
  750TIP3    H123665   4.403   3.175  17.269 -0.7971 -1.0066 -0.1790
  750TIP3    H223666   4.524   3.132  17.188 -0.0317 -0.0933  0.4588
  751TIP3   OH223667   2.619   5.244  15.416 -0.1014  0.2683  0.2758
  751TIP3    H123668   2.602   5.262  15.509 -0.6967 -0.6119  0.3551
  751TIP3    H223669   2.648   5.153  15.415  1.8432  0.8492 -0.1990
  752TIP3   OH223670   2.363   4.246   5.556  0.2686  0.2577 -0.1139
  752TIP3    H123671   2.387   4.283   5.471 -0.0696  0.0323 -0.3107
  752TIP3    H223672   2.366   4.151   5.543 -0.6755  0.2199 -0.1406
  753TIP3   OH223673   5.747   2.180  11.554 -0.9752  0.3046  0.1804
  753TIP3    H123674   5.749   2.273  11.577 -2.8428  0.5738 -0.4898
  753TIP3    H223675   5.752   2.180  11.458 -0.9360 -0.2863  0.1821
  754TIP3   OH223676   5.517   3.381  13.049 -0.2882 -0.0297 -0.3435
  754TIP3    H123677   5.554   3.412  12.966  0.6535 -0.2535 -0.0245
  754TIP3    H223678   5.495   3.461  13.097  1.3018  0.1824  0.1105
  755TIP3   OH223679   4.632   4.205   0.431  0.3824 -0.4957  0.0641
  755TIP3    H123680   4.649   4.234   0.341 -1.1643 -1.3352 -0.5289
  755TIP3    H223681   4.696   4.253   0.484  0.9136  0.4838 -1.4056
  756TIP3   OH223682   1.801   0.634   6.255  0.1680 -0.0975 -0.0956
  756TIP3    H123683   1.872   0.573   6.235  2.0221  2.3091 -1.4087
  756TIP3    H223684   1.783   0.620   6.348  0.0185 -3.0217 -0.4676
  757TIP3   OH223685   5.324   1.910  13.669 -0.3174  0.2170  0.5155
  757TIP3    H123686   5.288   1.962  13.740 -1.8810 -0.0672 -0.0427
  757TIP3    H223687   5.254   1.850  13.645  1.1256 -1.6083  0.5766
  758TIP3   OH223688   2.251   1.496  16.640  1.2514 -0.5613  0.5356
  758TIP3    H123689   2.203   1.496  16.723  4.1808 -0.0191  2.3610
  758TIP3    H223690   2.260   1.588  16.617 -3.1209 -0.6431 -2.8461
  759TIP3   OH223691   2.174   2.632  16.924 -0.6399  0.0515 -0.1534
  759TIP3    H123692   2.187   2.719  16.961  1.4193 -1.0694  2.0465
  759TIP3    H223693   2.078   2.621  16.923 -0.9114  1.0570  2.8864
  760TIP3   OH223694   4.449   4.657  12.493 -0.1455 -0.0090 -0.3419
  760TIP3    H123695   4.490   4.674  12.578  0.1897  1.9495 -0.8384
  760TIP3    H223696   4.374   4.716  12.490 -1.0463 -1.1311 -0.8324
  761TIP3   OH223697   2.325   3.081  13.068  0.5319  0.3492 -0.2036
  761TIP3    H123698   2.271   3.121  13.000  1.2175  1.3701 -0.1527
  761TIP3    H223699   2.292   2.991  13.074  0.0087  0.4426 -1.4016
  762TIP3   OH223700   6.542   5.808   1.518  0.5091  0.0866  0.2623
  762TIP3    H123701   6.481   5.871   1.557  2.0212  1.8264 -0.0543
  762TIP3    H223702   6.497   5.777   1.439 -1.3925 -1.3470  1.7957
  763TIP3   OH223703   1.925   1.608  15.188  0.6140  0.5255 -0.1775
  763TIP3    H123704   1.986   1.538  15.165 -0.3599 -0.3326 -0.1871
  763TIP3    H223705   1.925   1.666  15.112 -0.6717 -0.9522 -1.3482
  764TIP3   OH223706   1.100   0.960  11.284  0.2111 -0.2552  0.2292
  764TIP3    H123707   1.101   1.005  11.199 -0.2944 -0.7140 -0.0234
  764TIP3    H223708   1.187   0.977  11.321  0.5595 -0.3496 -0.5341
  765TIP3   OH223709   1.982   5.885  12.953 -0.2399 -0.3084  0.1358
  765TIP3    H123710   1.903   5.922  12.913 -0.4532  0.3199  1.1220
  765TIP3    H223711   1.996   5.938  13.031  1.0513 -0.5459  0.0722
  766TIP3   OH223712   5.024   3.248   0.649 -0.0004 -0.7809  0.1338
  766TIP3    H123713   4.985   3.191   0.582 -1.7432 -0.7722  1.0679
  766TIP3    H223714   4.979   3.332   0.637  0.5534 -0.4256  0.5337
  767TIP3   OH223715   1.808   6.518  15.729  0.3181 -0.0060 -0.1248
  767TIP3    H123716   1.770   6.443  15.683 -0.9257  0.0794  0.7261
  767TIP3    H223717   1.877   6.479  15.784 -0.1508 -0.4983  0.1243
  768TIP3   OH223718   2.035   4.674   6.017 -0.1230 -0.1245  0.8095
  768TIP3    H123719   2.119   4.705   6.048  0.3815 -1.8475  1.2815
  768TIP3    H223720   2.006   4.612   6.083 -0.0164 -2.2943 -1.0498
  769TIP3   OH223721   4.751   4.391  11.125  0.0995  0.5854 -0.2413
  769TIP3    H123722   4.808   4.320  11.153 -1.2370 -1.1109 -1.5317
  769TIP3    H223723   4.784   4.468  11.171 -0.1150 -1.3333  3.5841
  770TIP3   OH223724   2.929   0.665  13.364  0.5011  0.3238  0.3688
  770TIP3    H123725   2.844   0.699  13.336  0.8745 -0.2321 -1.6360
  770TIP3    H223726   2.919   0.648  13.458 -1.6185  0.2012  0.1604
  771TIP3   OH223727   3.986   5.131   4.136 -0.5414 -0.0829 -0.2636
  771TIP3    H123728   3.940   5.212   4.114  1.2363  0.6310 -1.5636
  771TIP3    H223729   4.013   5.095   4.051 -1.3228 -2.0722  0.2908
  772TIP3   OH223730   6.576   5.417  11.609 -0.3846  0.4141  0.2873
  772TIP3    H123731   6.630   5.364  11.668  0.6521  0.0502 -0.9365
  772TIP3    H223732   6.637   5.480  11.571 -0.8981  0.2787 -0.8002
  773TIP3   OH223733   1.279   3.023   0.086  0.8208  0.2435 -0.2883
  773TIP3    H123734   1.214   2.995   0.022  1.2109  1.6432 -1.3493
  773TIP3    H223735   1.234   3.089   0.139  1.4578  1.5798 -1.3397
  774TIP3   OH223736   6.008   1.049  15.567 -0.7643 -0.2611 -0.0272
  774TIP3    H123737   5.920   1.021  15.544 -0.5370 -2.1751  1.2330
  774TIP3    H223738   6.064   0.976  15.539  0.5261  1.1836 -1.3853
  775TIP3   OH223739   6.439   2.247  11.339 -0.0448  0.0410 -0.7319
  775TIP3    H123740   6.478   2.211  11.259 -1.6309 -0.7228 -1.1888
  775TIP3    H223741   6.403   2.332  11.312  0.5568  0.3724 -0.5068
  776TIP3   OH223742   2.910   1.317  14.556  0.0129 -0.0166 -0.2378
  776TIP3    H123743   2.891   1.409  14.539 -1.9254 -0.7687 -2.6670
  776TIP3    H223744   2.991   1.300  14.509 -0.0591  0.2719 -0.4703
  777TIP3   OH223745   4.172   5.585   3.366 -0.2902  0.5632 -0.5628
  777TIP3    H123746   4.259   5.563   3.400 -0.2718  1.1963 -0.1754
  777TIP3    H223747   4.168   5.681   3.370 -0.7156  0.5864 -1.3116
  778TIP3   OH223748   0.981   1.514  14.259 -0.1793 -0.3947  0.2851
  778TIP3    H123749   0.901   1.557  14.288  1.2760  1.8950  1.2176
  778TIP3    H223750   1.005   1.560  14.178  1.0351  0.1215  0.9115
  779TIP3   OH223751   3.911   4.598  11.453 -0.1600  0.2438 -0.3672
  779TIP3    H123752   3.868   4.639  11.379  2.1383  1.2542 -1.2413
  779TIP3    H223753   3.905   4.662  11.524 -1.9605 -0.5371  0.2357
  780TIP3   OH223754   3.025   1.076   6.930 -0.0080 -0.5757  0.3256
  780TIP3    H123755   3.008   1.160   6.887  0.7116 -0.8205 -0.4561
  780TIP3    H223756   3.039   1.014   6.859 -1.7081 -1.6595  0.8606
  781TIP3   OH223757   1.249   6.259   0.812  0.2815  0.7562  0.3836
  781TIP3    H123758   1.231   6.244   0.719  0.8540  1.2345  0.1930
  781TIP3    H223759   1.184   6.206   0.858 -1.3718  2.1351 -0.2827
  782TIP3   OH223760   4.431   4.334   0.647  0.1309  0.3978 -0.1089
  782TIP3    H123761   4.457   4.406   0.588  0.9863  1.1207  1.1099
  782TIP3    H223762   4.375   4.376   0.712  0.5125 -0.0688  0.5265
  783TIP3   OH223763   2.755   5.425  13.238 -0.0570  0.3011 -0.1083
  783TIP3    H123764   2.770   5.469  13.154 -2.2270 -0.2289 -0.8263
  783TIP3    H223765   2.748   5.332  13.216  0.9385 -0.0421  0.9097
  784TIP3   OH223766   5.915   3.985  17.484 -0.1023  0.2923  0.6002
  784TIP3    H123767   5.867   3.956  17.561  0.4754  0.0610  0.8830
  784TIP3    H223768   5.882   4.072  17.466 -1.4761 -0.3077  0.0655
  785TIP3   OH223769   1.892   2.656   4.668  0.4810 -0.7076  0.9876
  785TIP3    H123770   1.845   2.578   4.637  0.4966 -0.5941  0.6741
  785TIP3    H223771   1.980   2.624   4.687  0.0537 -1.0994  2.3901
  786TIP3   OH223772   5.168   6.134   5.001  0.2981 -0.3232 -0.0929
  786TIP3    H123773   5.087   6.162   5.045  0.5966  0.5392 -0.0704
  786TIP3    H223774   5.205   6.215   4.965  2.2895 -0.3105  1.7773
  787TIP3   OH223775   5.914   0.062   5.450  0.0974 -0.2891 -0.5381
  787TIP3    H123776   5.892   0.126   5.518 -0.9309 -0.0235 -1.1037
  787TIP3    H223777   6.003   0.035   5.471  0.3551  0.9388  0.0186
  788TIP3   OH223778   2.325   2.095   4.040 -0.2404  0.8104 -0.3081
  788TIP3    H123779   2.292   2.117   3.953  1.2541  1.8835 -0.6624
  788TIP3    H223780   2.356   2.179   4.075 -0.1070  0.2588  0.9399
  789TIP3   OH223781   2.027   0.064   3.014  0.2070 -0.2128  0.2787
  789TIP3    H123782   1.999  -0.023   3.044 -0.0865 -0.2457 -0.0756
  789TIP3    H223783   2.118   0.052   2.989  0.4465 -0.1907  1.1132
  790TIP3   OH223784   6.161   2.266  14.331 -0.3250 -0.2710  0.2384
  790TIP3    H123785   6.128   2.349  14.296 -1.2919 -0.9898 -0.6215
  790TIP3    H223786   6.091   2.203  14.312  0.0750 -1.1421  1.5356
  791TIP3   OH223787   0.924   1.888  14.349 -0.1148  0.2911  0.3073
  791TIP3    H123788   0.939   1.941  14.427 -0.9196  1.4980 -0.3216
  791TIP3    H223789   0.872   1.814  14.381  1.0447 -0.1769  1.2022
  792TIP3   OH223790   2.674   6.048   1.571 -0.0457  0.2859 -0.7391
  792TIP3    H123791   2.625   6.126   1.599 -1.6425 -0.4877 -1.2274
  792TIP3    H223792   2.631   5.976   1.617  1.2556 -0.3548 -0.4790
  793TIP3   OH223793   5.315   6.248   0.151  0.0984 -0.2052 -0.3986
  793TIP3    H123794   5.338   6.248   0.058 -1.9831  0.0535 -0.9760
  793TIP3    H223795   5.277   6.161   0.165 -0.5304  0.1199 -0.0619
  794TIP3   OH223796   0.140   0.734   4.551 -0.1449  0.2926  0.4131
  794TIP3    H123797   0.101   0.724   4.464  1.2905  0.7644 -0.3050
  794TIP3    H223798   0.232   0.711   4.540  0.5645  2.4033  1.2953
  795TIP3   OH223799   2.002   3.774  17.035  0.5861 -0.4628 -0.2688
  795TIP3    H123800   1.916   3.798  17.001  0.4835 -1.6595 -0.8965
  795TIP3    H223801   1.985   3.703  17.097  1.1972 -1.3530 -1.1044
  796TIP3   OH223802   0.701   3.790  14.778 -0.0752  0.1941 -0.2926
  796TIP3    H123803   0.787   3.828  14.796 -0.8767  0.8890  2.5819
  796TIP3    H223804   0.684   3.734  14.854 -1.6818 -0.8434 -1.3741
  797TIP3   OH223805   0.430   5.955   2.879 -0.0432  0.0677 -0.2445
  797TIP3    H123806   0.510   5.904   2.869 -0.0147  0.2298 -0.8953
  797TIP3    H223807   0.446   6.035   2.828 -0.7455 -0.0549 -0.6780
  798TIP3   OH223808   2.100   3.588  16.797  1.1018  0.5309  0.0951
  798TIP3    H123809   2.140   3.609  16.713 -0.9242  1.9512 -0.6075
  798TIP3    H223810   2.100   3.671  16.845  2.2947 -0.2718  1.5626
  799TIP3   OH223811   5.167   0.955   5.452  0.0152  0.7979  0.3645
  799TIP3    H123812   5.143   0.863   5.461 -0.5550  0.9429  0.3781
  799TIP3    H223813   5.237   0.956   5.388  1.9612  0.0588  2.3724
  800TIP3   OH223814   0.817   5.841  15.441 -0.2424  0.2731 -0.0261
  800TIP3    H123815   0.899   5.792  15.444  0.0104  0.7055  0.3262
  800TIP3    H223816   0.808   5.867  15.350 -0.3699 -0.4076 -0.2122
  801TIP3   OH223817   2.712   6.245  14.721 -0.5332  0.9176 -0.2984
  801TIP3    H123818   2.764   6.234  14.801 -0.0491  1.4178 -0.5388
  801TIP3    H223819   2.627   6.205  14.743 -1.2133  3.0276  1.2974
  802TIP3   OH223820   4.664   3.425   4.435 -0.6452  0.0629 -0.0691
  802TIP3    H123821   4.717   3.458   4.362  0.4127  0.4275  0.8312
  802TIP3    H223822   4.690   3.480   4.510 -0.4706 -1.3864  0.9666
  803TIP3   OH223823   0.340   0.723   1.560  0.0604  0.3269 -0.0514
  803TIP3    H123824   0.245   0.728   1.556  0.0443  0.9960  0.6738
  803TIP3    H223825   0.369   0.811   1.536  0.5974 -0.3866 -2.1763
  804TIP3   OH223826   6.461   3.526   0.537 -0.1993 -0.0233  0.0044
  804TIP3    H123827   6.400   3.599   0.551 -0.1677 -0.1882  1.0522
  804TIP3    H223828   6.404   3.450   0.525 -0.2479  0.2339 -1.6234
  805TIP3   OH223829   4.680   3.407  11.391 -0.1975  0.4298 -0.1016
  805TIP3    H123830   4.678   3.312  11.382  0.5904  0.2008  1.6127
  805TIP3    H223831   4.660   3.423  11.483 -0.4039  1.9363 -0.3749
  806TIP3   OH223832   0.996   0.463   0.911 -0.4196  0.0837  0.2707
  806TIP3    H123833   1.067   0.403   0.887  0.3530  1.6954 -1.7458
  806TIP3    H223834   0.937   0.461   0.836 -0.6490  1.4049  0.3979
  807TIP3   OH223835   1.841   3.703   4.041  0.3006  0.6527 -0.3392
  807TIP3    H123836   1.869   3.655   3.963  0.0112 -1.2323  0.6702
  807TIP3    H223837   1.922   3.718   4.090  0.2183 -0.0410  0.0107
  808TIP3   OH223838   2.271   6.272   5.877 -0.2327  0.1130 -0.0583
  808TIP3    H123839   2.341   6.216   5.911 -1.0193  0.9364  3.1759
  808TIP3    H223840   2.285   6.356   5.919 -4.0404 -0.1327  2.0724
  809TIP3   OH223841   1.476   6.473   4.876  0.2940  0.2931  0.1494
  809TIP3    H123842   1.388   6.438   4.867  1.3598 -2.5206 -0.5296
  809TIP3    H223843   1.496   6.510   4.790 -0.5382  1.8851  0.6097
  810TIP3   OH223844   3.092   5.046   3.165  0.0091  0.0155  0.5609
  810TIP3    H123845   3.020   5.081   3.218  0.5602  1.2765  0.5213
  810TIP3    H223846   3.166   5.043   3.226  0.1714 -0.3448  0.3455
  811TIP3   OH223847   1.541   1.611  11.608 -0.6530 -0.2898  0.1414
  811TIP3    H123848   1.623   1.613  11.560 -1.1293  1.1484 -0.6562
  811TIP3    H223849   1.476   1.645  11.546 -0.9884  3.4964  2.2910
  812TIP3   OH223850   6.180   5.839  15.095 -0.2062  0.3600 -0.4967
  812TIP3    H123851   6.171   5.932  15.074 -0.2291  0.5406  0.2841
  812TIP3    H223852   6.092   5.811  15.120 -0.1706  0.1615 -0.5904
  813TIP3   OH223853   6.011   2.615   2.940 -0.3198 -0.8394  0.3322
  813TIP3    H123854   5.945   2.571   2.995 -1.4318  0.7451  0.3313
  813TIP3    H223855   6.074   2.649   3.003 -0.3619 -0.9819  0.4547
  814TIP3   OH223856   0.391   2.689   5.742 -0.8961 -0.0383  0.0221
  814TIP3    H123857   0.380   2.689   5.647  1.0232  1.1586 -0.2531
  814TIP3    H223858   0.316   2.739   5.775  0.5049  3.1589 -1.2606
  815TIP3   OH223859   3.684   0.101   2.392  0.1920 -0.4380  0.2187
  815TIP3    H123860   3.776   0.073   2.385 -0.5663 -2.6634 -2.1364
  815TIP3    H223861   3.686   0.194   2.372  1.7111 -0.9524 -2.3962
  816TIP3   OH223862   5.435   2.112  11.461 -0.9286 -0.0639  0.4791
  816TIP3    H123863   5.351   2.074  11.485 -0.5592 -0.4085  1.2585
  816TIP3    H223864   5.420   2.207  11.461 -1.2152 -0.1117  0.9844
  817TIP3   OH223865   1.142   3.043  14.711  0.0465 -0.5517 -0.0227
  817TIP3    H123866   1.235   3.025  14.723  0.2230 -0.0839 -0.6313
  817TIP3    H223867   1.098   2.989  14.777  0.7701 -0.4764  0.5244
  818TIP3   OH223868   0.983   0.125  15.461  0.0053 -0.1081 -0.4038
  818TIP3    H123869   0.898   0.083  15.445  0.5603 -0.4716 -2.9114
  818TIP3    H223870   1.044   0.052  15.470  0.4556  0.1201 -1.4481
  819TIP3   OH223871   0.539   5.997  16.823  1.0984 -0.1959 -0.0417
  819TIP3    H123872   0.536   5.920  16.765  1.7343  0.4277 -0.9374
  819TIP3    H223873   0.457   6.043  16.806  0.4356 -0.9608  0.9396
  820TIP3   OH223874   4.889   3.624   5.936  0.6169  0.4382 -0.2361
  820TIP3    H123875   4.901   3.630   6.030  1.0260  1.3458 -0.3372
  820TIP3    H223876   4.854   3.536   5.922  1.2203  0.0364  0.6839
  821TIP3   OH223877   0.061   5.619  14.674  0.2582 -0.7471  0.0668
  821TIP3    H123878   0.105   5.671  14.740 -0.2430 -1.9115  1.3798
  821TIP3    H223879   0.100   5.532  14.682 -0.8685 -1.2937 -0.0953
  822TIP3   OH223880   5.021   2.526   0.227 -0.6294  0.4222 -0.3047
  822TIP3    H123881   5.070   2.601   0.194  1.5841 -1.0945 -0.6923
  822TIP3    H223882   5.007   2.471   0.151  0.6270 -1.0345  0.4616
  823TIP3   OH223883   6.270   0.091   2.491  0.9412  0.1288 -0.0706
  823TIP3    H123884   6.356   0.069   2.455  0.4012 -0.4442 -1.0421
  823TIP3    H223885   6.207   0.052   2.430 -0.0134 -0.5424  1.2911
  824TIP3   OH223886   4.252   0.580  12.204 -0.1736  0.1664  0.2581
  824TIP3    H123887   4.168   0.618  12.178 -0.4946 -0.5241  0.2667
  824TIP3    H223888   4.282   0.533  12.126 -0.4549 -0.7254  0.6792
  825TIP3   OH223889   4.551   6.368  17.305  0.4840 -0.6511  0.5442
  825TIP3    H123890   4.464   6.404  17.321  1.0825  1.4877 -0.5486
  825TIP3    H223891   4.550   6.281  17.346 -2.6455 -1.3498 -0.7712
  826TIP3   OH223892   6.069   1.931  12.551 -0.0232  0.1284 -0.6983
  826TIP3    H123893   6.153   1.895  12.522  0.0191  0.5465 -1.1117
  826TIP3    H223894   6.089   1.974  12.634 -0.3923 -2.1729  0.6772
  827TIP3   OH223895   5.135   5.120   5.594 -0.4283 -0.2873  0.4397
  827TIP3    H123896   5.230   5.121   5.581 -0.3853  0.2585  0.7771
  827TIP3    H223897   5.104   5.053   5.533  0.1527 -0.3453  0.1950
  828TIP3   OH223898   1.070   1.009   6.496  0.1468  0.1427  0.5107
  828TIP3    H123899   1.112   0.972   6.573  0.0244 -0.5070  0.2737
  828TIP3    H223900   0.976   0.997   6.511  0.1600 -0.9743 -0.2141
  829TIP3   OH223901   2.657   2.158  13.861  0.1536  0.1909 -0.5106
  829TIP3    H123902   2.592   2.130  13.797 -0.2718  0.8169 -0.3589
  829TIP3    H223903   2.694   2.077  13.895  0.3247 -0.1496 -1.4857
  830TIP3   OH223904   0.751   4.322   3.665  0.6055 -0.2186  0.2947
  830TIP3    H123905   0.785   4.246   3.713 -0.1265 -0.3491  0.6192
  830TIP3    H223906   0.819   4.389   3.674  1.8500 -1.2369 -1.0753
  831TIP3   OH223907   3.054   3.818  16.997  0.1468 -0.1220 -0.4091
  831TIP3    H123908   3.015   3.905  16.999 -1.2937 -0.7516  1.1997
  831TIP3    H223909   3.038   3.787  16.908  0.2472  1.0593 -0.8576
  832TIP3   OH223910   1.677   4.354   4.306  0.1615 -0.2643 -0.6338
  832TIP3    H123911   1.583   4.355   4.289  0.3738 -1.1023 -1.9541
  832TIP3    H223912   1.710   4.433   4.263  0.2263 -0.6233 -1.2533
  833TIP3   OH223913   0.781   1.662   3.931  0.2495 -0.1741 -0.0145
  833TIP3    H123914   0.786   1.719   4.007  1.2401 -1.2099  0.7290
  833TIP3    H223915   0.826   1.581   3.958  1.9429 -0.0444 -2.1473
  834TIP3   OH223916   1.631   2.326   1.913 -0.2819 -0.7545 -0.3216
  834TIP3    H123917   1.537   2.342   1.908 -0.3774 -1.5193 -1.2368
  834TIP3    H223918   1.669   2.411   1.935 -1.3949 -0.9691  3.0953
  835TIP3   OH223919   4.969   5.334   1.990  0.3466  0.4466 -0.1490
  835TIP3    H123920   4.944   5.303   2.077 -0.1833 -0.5276 -0.6273
  835TIP3    H223921   4.927   5.272   1.930  0.2257  1.4464 -1.1159
  836TIP3   OH223922   6.528   5.212   5.289 -0.3119 -0.0475  0.6193
  836TIP3    H123923   6.567   5.168   5.365  1.0845  1.6188  0.9253
  836TIP3    H223924   6.448   5.163   5.272  0.8928 -2.3547  1.2422
  837TIP3   OH223925   5.127   5.732   6.085  0.1478 -0.0167  0.4255
  837TIP3    H123926   5.133   5.651   6.033 -0.3053 -0.0445  0.4162
  837TIP3    H223927   5.151   5.705   6.173 -0.9530 -0.3760  0.6331
  838TIP3   OH223928   2.783   3.090   0.666  0.4399 -0.1704  0.2971
  838TIP3    H123929   2.827   3.006   0.655  1.2723  0.2424  0.3871
  838TIP3    H223930   2.793   3.134   0.582  0.3558 -0.0060  0.3727
  839TIP3   OH223931   2.105   4.951   2.743 -0.0295  0.2463 -0.5623
  839TIP3    H123932   2.075   4.860   2.744 -1.0812  0.5169 -2.5038
  839TIP3    H223933   2.045   4.995   2.682  2.4218  1.5078 -2.2379
  840TIP3   OH223934   3.116   1.903   0.658 -0.4471 -0.0624 -0.5020
  840TIP3    H123935   3.058   1.946   0.596 -1.8331 -1.4580 -0.2382
  840TIP3    H223936   3.111   1.957   0.737 -1.3231 -0.1033 -0.5186
  841TIP3   OH223937   4.141   3.311   1.431 -0.4918  0.3835  0.4378
  841TIP3    H123938   4.087   3.344   1.503 -1.1127  2.6150 -0.9553
  841TIP3    H223939   4.087   3.243   1.390 -2.2011  2.3112 -0.6919
  842TIP3   OH223940   5.362   1.912  16.524  0.0597 -0.3727 -0.6813
  842TIP3    H123941   5.437   1.971  16.519 -0.2698 -0.0365 -2.8249
  842TIP3    H223942   5.345   1.901  16.617  1.6782  0.9378 -0.1979
  843TIP3   OH223943   0.484   5.546  17.348 -0.0786  0.1226  0.0101
  843TIP3    H123944   0.449   5.486  17.283  0.2282  1.1888 -1.1636
  843TIP3    H223945   0.424   5.620  17.348 -0.7055 -0.3301  1.7773
  844TIP3   OH223946   2.696   5.774  15.681  0.0284 -0.2398  0.1093
  844TIP3    H123947   2.638   5.753  15.607  1.7788  0.0756 -1.4371
  844TIP3    H223948   2.782   5.742  15.653  1.1426  1.6687  1.1502
  845TIP3   OH223949   2.125   4.431   2.140 -0.2018 -0.3759  0.1614
  845TIP3    H123950   2.196   4.377   2.106  1.0512  0.2764  1.6145
  845TIP3    H223951   2.086   4.471   2.062  1.7450  0.1140 -0.6272
  846TIP3   OH223952   4.699   1.126   1.728  0.0946 -0.3025 -0.1519
  846TIP3    H123953   4.616   1.114   1.682 -0.1927  0.0641  0.2608
  846TIP3    H223954   4.765   1.087   1.670 -0.2183  0.4261 -1.0209
  847TIP3   OH223955   0.181   4.666  15.138  0.2161  0.6219  0.2241
  847TIP3    H123956   0.199   4.696  15.227  0.9188  0.2669  0.2040
  847TIP3    H223957   0.089   4.689  15.124 -0.4086 -0.8155  1.6579
  848TIP3   OH223958   0.006   0.209   0.459 -0.4605 -0.4084  0.5232
  848TIP3    H123959  -0.021   0.298   0.485 -1.4799 -0.5001 -0.1691
  848TIP3    H223960  -0.037   0.195   0.375  1.7415 -0.6098 -0.6398
  849TIP3   OH223961   3.122   5.146   4.237  0.1531 -0.0583 -0.2261
  849TIP3    H123962   3.120   5.068   4.292 -1.7359 -0.4339 -0.7418
  849TIP3    H223963   3.142   5.218   4.298  0.6568 -0.7690  0.4687
  850TIP3   OH223964   2.641   3.993  15.287  0.1034 -0.4019 -0.3338
  850TIP3    H123965   2.696   3.982  15.209 -1.3457 -3.3400 -1.0763
  850TIP3    H223966   2.574   3.926  15.279 -0.7316 -0.1373  2.9741
  851TIP3   OH223967   1.014   0.175  12.053 -0.2640 -0.2670 -0.2384
  851TIP3    H123968   1.025   0.269  12.043 -1.1246  0.0739  1.7577
  851TIP3    H223969   0.990   0.144  11.965 -1.0260  1.5121 -0.6852
  852TIP3   OH223970   3.625   2.711  16.885 -0.2751  0.1329 -0.3088
  852TIP3    H123971   3.589   2.799  16.875 -1.3625 -0.0824  1.2955
  852TIP3    H223972   3.549   2.655  16.903  0.4272 -1.0840 -0.9730
  853TIP3   OH223973   2.625   6.395   1.423  0.5885  0.3968 -0.0005
  853TIP3    H123974   2.621   6.303   1.394  0.6215  0.3778  0.0555
  853TIP3    H223975   2.603   6.445   1.344  1.6310  0.3805 -0.3057
  854TIP3   OH223976   0.403   2.284  17.184 -0.8745 -0.2978  0.1299
  854TIP3    H123977   0.322   2.318  17.221 -1.2772 -0.0994 -0.8804
  854TIP3    H223978   0.414   2.197  17.224 -3.2357 -1.6824 -1.9158
  855TIP3   OH223979   4.129   2.826  12.920  0.1918 -0.1942 -0.0934
  855TIP3    H123980   4.155   2.736  12.938  0.3274 -0.8664 -3.1567
  855TIP3    H223981   4.033   2.823  12.921  0.1511  0.2398  2.1877
  856TIP3   OH223982   2.449   4.601   2.156 -0.1677  0.1916 -0.0042
  856TIP3    H123983   2.368   4.596   2.207 -0.2840  0.1632 -0.1916
  856TIP3    H223984   2.495   4.677   2.192 -0.8529  0.9658 -0.7314
  857TIP3   OH223985   4.366   5.126  15.404 -0.3536  0.0506 -0.4142
  857TIP3    H123986   4.342   5.099  15.493  0.2741  2.1794  0.4613
  857TIP3    H223987   4.442   5.072  15.383  0.6988  0.8251  1.1661
  858TIP3   OH223988   4.296   4.146   1.694 -0.4935 -0.1697 -0.1761
  858TIP3    H123989   4.203   4.125   1.694 -0.1271 -2.5563  2.9989
  858TIP3    H223990   4.340   4.061   1.684  1.3633  0.7896 -0.6662
  859TIP3   OH223991   2.635   0.160   3.451  0.1154 -0.7454  0.1620
  859TIP3    H123992   2.715   0.159   3.504  0.0012 -0.5354  0.3399
  859TIP3    H223993   2.565   0.135   3.512  0.1148 -1.4352 -0.1148
  860TIP3   OH223994   3.688   5.041   5.557  0.3687  0.5168 -0.3596
  860TIP3    H123995   3.740   5.095   5.616 -0.7286  1.4885 -0.2429
  860TIP3    H223996   3.738   5.039   5.476  1.9830 -0.9754  0.6015
  861TIP3   OH223997   1.703   2.925  12.725 -0.4459  0.2223  0.2812
  861TIP3    H123998   1.750   2.936  12.642  0.1743  1.5241  0.7715
  861TIP3    H223999   1.755   2.860  12.773 -1.4562 -1.4187 -0.7790
  862TIP3   OH224000   3.698   3.338  13.837 -0.0800  0.2353 -0.0930
  862TIP3    H124001   3.703   3.247  13.808 -1.4526  0.0591  0.1287
  862TIP3    H224002   3.769   3.347  13.901 -0.6172 -1.0215  0.7276
  863TIP3   OH224003   2.901   0.725   1.176  0.4514  0.2992  0.0096
  863TIP3    H124004   2.894   0.665   1.251 -0.4775  0.7703  0.3134
  863TIP3    H224005   2.870   0.809   1.210 -1.4788  0.1679 -1.3076
  864TIP3   OH224006   6.568   0.296   1.984 -0.7284  0.2956  0.4049
  864TIP3    H124007   6.586   0.377   1.936 -1.2141  0.3426  0.2943
  864TIP3    H224008   6.651   0.274   2.026 -0.4002  0.4574 -0.1521
  865TIP3   OH224009   5.894   4.431  11.868 -1.0293  0.1480  0.1936
  865TIP3    H124010   5.902   4.342  11.902 -1.4389 -0.4197 -1.1220
  865TIP3    H224011   5.923   4.487  11.940  0.7191 -1.1113  0.5259
  866TIP3   OH224012   0.667   5.800   2.592  0.5096 -0.0200  0.4830
  866TIP3    H124013   0.733   5.829   2.529  0.7769 -2.0008 -0.2173
  866TIP3    H224014   0.711   5.805   2.676  1.3179 -0.5786  0.1098
  867TIP3   OH224015   3.398   3.081  13.656  0.1588  0.6415  0.8827
  867TIP3    H124016   3.354   3.154  13.698  0.9731  0.0924  2.7894
  867TIP3    H224017   3.394   3.101  13.562 -3.1520  1.1057  1.0123
  868TIP3   OH224018   4.810   4.614   3.713  0.6357 -0.0052  0.0164
  868TIP3    H124019   4.731   4.618   3.767  1.8700 -0.5628  1.9603
  868TIP3    H224020   4.865   4.550   3.757  3.6978  2.9250  0.8405
  869TIP3   OH224021   1.164   2.068   1.635  0.3481  0.4184  0.1068
  869TIP3    H124022   1.110   2.011   1.581  0.5196 -1.3210  1.6655
  869TIP3    H224023   1.226   2.008   1.679  1.7665  2.0281  0.4185
  870TIP3   OH224024   4.696   0.127  13.513  0.3974 -0.0656 -0.1197
  870TIP3    H124025   4.692   0.213  13.472 -1.4506  0.2637  0.6243
  870TIP3    H224026   4.788   0.100  13.506  0.7097  1.2740 -1.7241
  871TIP3   OH224027   4.171   4.681  14.831  0.8355  0.2787  0.0008
  871TIP3    H124028   4.246   4.714  14.882  0.3562  0.4887  0.5765
  871TIP3    H224029   4.117   4.759  14.817 -0.4426 -0.2765  1.5907
  872TIP3   OH224030   0.499   2.709   2.571 -0.3524 -0.1483 -0.0350
  872TIP3    H124031   0.487   2.705   2.666 -0.4207  2.1387  0.1029
  872TIP3    H224032   0.418   2.672   2.535  0.7194 -3.5848  0.6718
  873TIP3   OH224033   6.004   4.609   2.519 -0.7910  0.2570 -1.0642
  873TIP3    H124034   6.005   4.689   2.571 -2.3381  0.0393 -0.6547
  873TIP3    H224035   6.071   4.553   2.560 -0.4327  0.9377 -0.7142
  874TIP3   OH224036   6.540   1.527  17.406  0.1114 -0.0538  0.2811
  874TIP3    H124037   6.478   1.600  17.396  0.0338 -0.0707  0.6158
  874TIP3    H224038   6.568   1.507  17.317 -1.1057 -0.6874  0.0134
  875TIP3   OH224039   1.691   0.093  13.462 -0.5134 -0.4307 -0.6444
  875TIP3    H124040   1.709   0.000  13.450 -1.1570 -1.0258  2.2723
  875TIP3    H224041   1.745   0.118  13.537  0.1638  1.7694 -1.7729
  876TIP3   OH224042   0.590   1.314   6.282 -0.1047  0.0083 -0.2957
  876TIP3    H124043   0.633   1.229   6.289  1.1602  0.5942 -0.5975
  876TIP3    H224044   0.657   1.377   6.309 -0.8272  0.9542 -0.6437
  877TIP3   OH224045   0.582   6.007   4.879  0.4627  0.0120  0.0503
  877TIP3    H124046   0.542   5.949   4.815  2.2075 -0.8353 -0.3431
  877TIP3    H224047   0.558   6.095   4.850 -1.8921 -0.4480  0.4317
  878TIP3   OH224048   3.585   6.593  16.641 -0.7158 -0.1717  0.4782
  878TIP3    H124049   3.581   6.562  16.551  0.6360 -1.1563  0.7184
  878TIP3    H224050   3.555   6.684  16.637 -0.5778 -0.1705 -0.9789
  879TIP3   OH224051   4.267   1.240  11.777 -0.1736 -0.7627  0.1728
  879TIP3    H124052   4.271   1.326  11.819 -3.1870  0.2493 -1.3378
  879TIP3    H224053   4.317   1.182  11.835 -0.4501  1.4061  2.7470
  880TIP3   OH224054   4.095   4.747  14.364  0.0514 -0.1587 -0.7952
  880TIP3    H124055   4.018   4.741  14.420  0.6219  3.0771  0.5925
  880TIP3    H224056   4.067   4.711  14.280 -2.0340 -1.6944  0.4738
  881TIP3   OH224057   3.921   2.872  12.711 -0.0394  0.4176  0.1032
  881TIP3    H124058   3.893   2.812  12.780  2.3315 -1.4359 -0.3849
  881TIP3    H224059   3.890   2.958  12.739 -1.6094 -0.6773  1.9936
  882TIP3   OH224060   1.950   3.035  17.290 -0.0727  0.0862 -0.4617
  882TIP3    H124061   1.877   3.038  17.351 -0.3357 -1.9016 -0.5947
  882TIP3    H224062   2.016   3.093  17.328 -1.6590  1.8723 -0.3191
  883TIP3   OH224063   2.400   0.935  14.688  0.3262  0.0256  0.0425
  883TIP3    H124064   2.347   0.861  14.660  0.2727  0.5595 -1.3588
  883TIP3    H224065   2.359   1.011  14.647  0.8567  0.7413  0.7859
  884TIP3   OH224066   4.161   3.799   1.947 -0.0676  0.0054  0.4352
  884TIP3    H124067   4.088   3.855   1.921  0.4344 -0.0620 -1.1902
  884TIP3    H224068   4.222   3.802   1.874 -0.2380 -3.0812  0.0295
  885TIP3   OH224069   6.517   0.115   3.981 -0.4494  0.0934  0.0590
  885TIP3    H124070   6.531   0.141   3.890 -1.0353 -0.4196 -0.1820
  885TIP3    H224071   6.435   0.066   3.980  0.6597 -1.8886  0.4512
  886TIP3   OH224072   6.508   4.587  13.578  0.1856  0.1767  0.5853
  886TIP3    H124073   6.509   4.600  13.673 -0.7406  2.1749  0.3580
  886TIP3    H224074   6.509   4.492  13.567  1.8932 -0.1130  2.5432
  887TIP3   OH224075   6.215   4.156  11.850  0.8073 -0.0758 -0.0642
  887TIP3    H124076   6.265   4.187  11.926 -0.5061  0.3978  0.6331
  887TIP3    H224077   6.265   4.188  11.775  1.5535  0.3880  0.6031
  888TIP3   OH224078   1.244   4.689   5.668 -0.1157 -0.3014 -0.2458
  888TIP3    H124079   1.192   4.650   5.599  1.3126 -0.9860 -0.9892
  888TIP3    H224080   1.187   4.755   5.709 -0.8874  0.3332 -2.2590
  889TIP3   OH224081   2.934   1.433   2.761  0.2057  0.4131 -0.3061
  889TIP3    H124082   2.966   1.414   2.673 -0.8826  0.6546 -0.7647
  889TIP3    H224083   2.998   1.494   2.797  0.8744  0.0006 -0.7697
  890TIP3   OH224084   1.159   0.275  17.628  0.6595  0.2066 -0.0778
  890TIP3    H124085   1.088   0.232  17.675  1.7290 -0.5009  0.9317
  890TIP3    H224086   1.221   0.301  17.696  1.2659  1.0280 -0.9142
  891TIP3   OH224087   3.604   2.829  11.714  0.0554  0.4494  0.6665
  891TIP3    H124088   3.558   2.904  11.675 -1.0214  0.3830  1.7540
  891TIP3    H224089   3.537   2.761  11.723  1.0988 -0.8225 -0.6577
  892TIP3   OH224090   6.326   5.991  14.744  0.1828  0.2212  0.7596
  892TIP3    H124091   6.371   5.909  14.723 -0.0775 -0.0589  1.2626
  892TIP3    H224092   6.301   6.028  14.660  0.1955 -0.2779  0.5362
  893TIP3   OH224093   0.644   1.754  14.010  0.3929  0.5475  0.0034
  893TIP3    H124094   0.675   1.834  13.968 -0.0617 -0.0723 -1.5799
  893TIP3    H224095   0.654   1.770  14.104  2.8112  1.4458 -0.3415
  894TIP3   OH224096   3.083   3.278   0.623 -0.2137 -0.2368 -0.1505
  894TIP3    H124097   3.114   3.192   0.650  0.4912 -0.1896 -0.7851
  894TIP3    H224098   2.997   3.262   0.585 -0.3981 -0.5561  0.3846
  895TIP3   OH224099   1.022   4.076   1.613 -0.1118 -0.4970  0.1865
  895TIP3    H124100   1.022   3.988   1.577 -3.7065 -0.7660  0.5026
  895TIP3    H224101   1.021   4.064   1.708  1.6675  0.0115  0.3057
  896TIP3   OH224102   5.742   2.614   3.080 -0.5119  0.3043 -0.1234
  896TIP3    H124103   5.659   2.657   3.104 -1.3119 -0.8247 -0.7717
  896TIP3    H224104   5.805   2.648   3.142 -1.1833  2.1496 -0.3724
  897TIP3   OH224105   2.018   6.041   1.742  0.4677 -0.5853 -0.0961
  897TIP3    H124106   1.922   6.038   1.746  0.4491  0.1943  0.2901
  897TIP3    H224107   2.045   6.072   1.829  1.1131 -1.4574  0.0288
  898TIP3   OH224108   3.685   6.279   3.300 -0.0346  0.3543 -0.3861
  898TIP3    H124109   3.723   6.261   3.214 -0.2962  0.4792 -0.5323
  898TIP3    H224110   3.721   6.364   3.324 -2.0220  1.6333 -1.6070
  899TIP3   OH224111   1.491   2.896   4.181 -0.4322 -0.0553 -0.0549
  899TIP3    H124112   1.429   2.844   4.231  0.2777 -1.3673 -0.4748
  899TIP3    H224113   1.552   2.930   4.246 -0.1525 -0.8540  0.1225
  900TIP3   OH224114   3.822   0.259   1.604  0.3019 -0.0616  0.3796
  900TIP3    H124115   3.758   0.261   1.532  1.2167  0.9289 -0.4221
  900TIP3    H224116   3.775   0.215   1.675 -1.2092  0.4511 -0.2529
  901TIP3   OH224117   3.799   0.837   6.511 -0.1213  0.4125 -0.0711
  901TIP3    H124118   3.715   0.813   6.548  0.0580  0.0353  0.0900
  901TIP3    H224119   3.859   0.842   6.586  0.0686  0.3770 -0.2175
  902TIP3   OH224120   5.774   0.022  17.609  0.2792 -0.2348 -0.5541
  902TIP3    H124121   5.776   0.002  17.702 -2.3105 -0.5029 -0.4579
  902TIP3    H224122   5.681   0.037  17.590  0.4453 -2.0218 -3.4433
  903TIP3   OH224123   5.876   4.422   1.135 -0.3477  0.2236  0.4158
  903TIP3    H124124   5.971   4.436   1.141 -0.5801  1.9501  0.5442
  903TIP3    H224125   5.840   4.509   1.121 -1.7710 -0.6715 -2.0654
  904TIP3   OH224126   3.578   2.976  12.419  0.0910  0.2546  0.1079
  904TIP3    H124127   3.571   2.881  12.418  0.3277  0.1996 -2.7660
  904TIP3    H224128   3.523   3.005  12.347  1.7369  2.1238 -0.4929
  905TIP3   OH224129   2.280   1.998  12.582  0.7246  0.1211 -0.3767
  905TIP3    H124130   2.210   1.934  12.568 -0.5537  1.5163 -0.6453
  905TIP3    H224131   2.242   2.061  12.643  1.6596  1.0582 -0.7486
  906TIP3   OH224132   2.942   1.385   1.718 -0.4606 -0.2103  0.1230
  906TIP3    H124133   2.932   1.451   1.786  1.1487 -1.4433  1.6663
  906TIP3    H224134   2.959   1.434   1.638 -2.7963  1.3024  0.4676
  907TIP3   OH224135   4.259   0.175   0.565 -0.3935  0.4239  0.2460
  907TIP3    H124136   4.328   0.113   0.588 -0.0829  0.8773  0.5507
  907TIP3    H224137   4.284   0.207   0.478 -1.2105 -0.7864 -0.4644
  908TIP3   OH224138   1.221   2.833  10.944 -0.2723  0.2173  0.4098
  908TIP3    H124139   1.155   2.902  10.946  0.3443  0.9285 -1.8703
  908TIP3    H224140   1.302   2.877  10.918  0.4211 -1.1444  0.1698
  909TIP3   OH224141   5.890   1.346   1.360 -0.0842  0.3160 -0.0552
  909TIP3    H124142   5.807   1.302   1.381  0.6842 -2.6749 -2.5038
  909TIP3    H224143   5.938   1.347   1.442 -1.6077 -0.0613  0.8826
  910TIP3   OH224144   1.458   2.585   1.573  0.0452 -0.4997 -0.3842
  910TIP3    H124145   1.482   2.656   1.632 -1.5293 -0.4492  0.2483
  910TIP3    H224146   1.422   2.628   1.496  1.8732 -0.5723 -1.3346
  911TIP3   OH224147   1.224   2.660  15.928  0.0303 -0.0044 -0.6943
  911TIP3    H124148   1.206   2.594  15.995  0.9672  1.0169  0.6177
  911TIP3    H224149   1.189   2.622  15.847 -1.0451 -1.3233  0.3326
  912TIP3   OH224150   4.825   0.722  15.550 -0.2127  0.1966 -0.9492
  912TIP3    H124151   4.809   0.812  15.576  1.0488 -0.0940  1.0046
  912TIP3    H224152   4.749   0.673  15.583  0.4530  0.1351  0.5461
  913TIP3   OH224153   6.479   6.397  16.603  0.4941  0.7518  0.1658
  913TIP3    H124154   6.445   6.480  16.637  1.2793  0.0900  2.7723
  913TIP3    H224155   6.419   6.374  16.532 -0.9755  2.4955  0.7618
  914TIP3   OH224156   3.646   0.125   3.086  0.6068  0.0288 -0.5039
  914TIP3    H124157   3.560   0.150   3.120  1.1511  0.1880  0.8179
  914TIP3    H224158   3.633   0.116   2.992 -0.6474  0.9354 -0.4419
  915TIP3   OH224159   2.655   4.401   4.045  0.0037 -0.0543 -0.3579
  915TIP3    H124160   2.727   4.456   4.074 -0.9190  0.4267  1.1248
  915TIP3    H224161   2.602   4.387   4.124 -1.2870 -0.7473 -1.3100
  916TIP3   OH224162   6.010   4.780  16.891 -0.1731  0.2721  0.1813
  916TIP3    H124163   5.934   4.722  16.883 -0.6063  0.7500  0.7498
  916TIP3    H224164   5.974   4.868  16.881  0.0394  0.5969  2.0120
  917TIP3   OH224165   2.328   0.862  11.707 -0.6212  0.2352  0.5388
  917TIP3    H124166   2.321   0.817  11.791  0.9518 -1.6625 -0.2370
  917TIP3    H224167   2.259   0.927  11.708 -2.3558 -1.4968  2.2364
  918TIP3   OH224168   2.008   0.778  17.622 -0.3192 -0.3120 -0.9017
  918TIP3    H124169   2.094   0.735  17.624  0.5742  1.3287 -1.8637
  918TIP3    H224170   1.966   0.750  17.703  1.6417 -0.1815  0.2378
  919TIP3   OH224171   2.668   6.465  14.939 -0.0384  0.6929  0.3036
  919TIP3    H124172   2.764   6.461  14.948 -0.1117 -2.5967  0.7587
  919TIP3    H224173   2.640   6.374  14.947 -3.1037  1.3797 -1.4213
  920TIP3   OH224174   3.896   5.134   2.164  0.1647 -0.1190 -0.0526
  920TIP3    H124175   3.821   5.112   2.109 -0.0614 -1.0530  0.6026
  920TIP3    H224176   3.939   5.050   2.181 -0.0801  0.0455  1.6065
  921TIP3   OH224177   6.678   4.631  16.298 -0.0197  0.1689  0.4161
  921TIP3    H124178   6.733   4.553  16.285  0.2686  0.6476 -1.6147
  921TIP3    H224179   6.647   4.623  16.388 -0.5502 -2.6581  0.0911
  922TIP3   OH224180   6.296   5.327   5.781  0.0926 -0.0991 -0.5781
  922TIP3    H124181   6.388   5.301   5.773 -0.0737 -1.2677  0.8094
  922TIP3    H224182   6.298   5.419   5.806  0.9580 -0.5360  1.0539
  923TIP3   OH224183   6.454   0.986   0.842  0.2677 -0.1874 -1.2840
  923TIP3    H124184   6.513   0.966   0.915 -1.0389  1.5258  0.3380
  923TIP3    H224185   6.505   1.045   0.786  1.2043 -1.3394 -1.6923
  924TIP3   OH224186   5.649   6.117  11.717  0.1809 -0.2043 -0.2853
  924TIP3    H124187   5.715   6.055  11.686 -1.5516 -2.1369 -0.3851
  924TIP3    H224188   5.578   6.061  11.750 -1.5672  1.7436 -0.5598
  925TIP3   OH224189   4.299   4.729   2.204 -0.2588  0.4149  0.3310
  925TIP3    H124190   4.336   4.796   2.261 -2.0572  0.4140  1.5564
  925TIP3    H224191   4.211   4.760   2.183  0.2218  0.2639 -2.2595
  926TIP3   OH224192   0.639   4.877  12.446  0.0917 -0.5213 -0.6940
  926TIP3    H124193   0.646   4.855  12.539 -1.6800 -0.5490 -0.5444
  926TIP3    H224194   0.650   4.972  12.443  1.5169 -0.6606 -0.6398
  927TIP3   OH224195   0.106   6.691   3.243 -0.2436 -0.3413 -0.3628
  927TIP3    H124196   0.047   6.640   3.187  1.2603 -3.1916  0.4877
  927TIP3    H224197   0.049   6.756   3.284 -2.6539 -2.4185 -0.2111
  928TIP3   OH224198   2.391   4.729  13.700 -0.1092  0.4118 -0.1663
  928TIP3    H124199   2.422   4.783  13.773 -0.2282 -0.0907  0.2596
  928TIP3    H224200   2.399   4.639  13.732 -1.6840  0.2494 -0.1651
  929TIP3   OH224201   5.918   5.055   4.381  0.4034 -0.1323  0.0500
  929TIP3    H124202   6.003   5.017   4.404 -0.1860  0.1536  3.1288
  929TIP3    H224203   5.924   5.146   4.411 -0.8302  0.0254 -0.1369
  930TIP3   OH224204   0.701   0.445  14.277 -0.3419 -0.1332 -0.1901
  930TIP3    H124205   0.660   0.430  14.362 -0.0553 -0.7665 -0.1590
  930TIP3    H224206   0.763   0.373  14.267  1.9829  1.6206  0.4975
  931TIP3   OH224207   0.855   6.029   4.707 -0.1238 -1.2642  0.3028
  931TIP3    H124208   0.880   5.982   4.627  1.1598 -0.3566  0.1431
  931TIP3    H224209   0.786   5.975   4.745  1.2749 -3.2934  0.1412
  932TIP3   OH224210   0.676   1.980  13.350  0.2297 -0.0071 -0.2850
  932TIP3    H124211   0.729   2.036  13.293  1.3819 -0.2814  0.4987
  932TIP3    H224212   0.727   1.900  13.360 -0.4992 -0.4228  0.2038
  933TIP3   OH224213   0.215   4.973   0.323  0.7806 -0.6380 -0.3017
  933TIP3    H124214   0.129   4.968   0.281  1.1457  0.1298 -1.1962
  933TIP3    H224215   0.202   5.033   0.397  0.4340 -0.9138 -0.1405
  934TIP3   OH224216   0.243   1.593   4.073 -0.2744  0.3020  0.0890
  934TIP3    H124217   0.200   1.561   3.994  0.2189  1.7305 -0.8067
  934TIP3    H224218   0.257   1.515   4.126 -1.3432 -0.5809 -0.8728
  935TIP3   OH224219   2.036   3.117  12.632  0.4436 -0.1483 -0.3302
  935TIP3    H124220   1.995   3.199  12.603  0.8635  0.6934  1.3084
  935TIP3    H224221   2.123   3.118  12.590 -0.2087 -0.6763 -1.7532
  936TIP3   OH224222   5.301   2.700  11.536  0.3716  0.1086  0.3295
  936TIP3    H124223   5.393   2.723  11.523  0.4251 -0.9869 -1.5291
  936TIP3    H224224   5.274   2.661  11.453 -1.9076  0.8015  0.6816
  937TIP3   OH224225   5.763   0.889  17.394 -0.5846 -0.3178  0.3113
  937TIP3    H124226   5.801   0.803  17.412 -0.8226 -0.8950 -1.7529
  937TIP3    H224227   5.796   0.913  17.307  0.1672  2.0942  1.1641
  938TIP3   OH224228   6.624   0.545  17.235 -0.0070 -0.0533  0.1418
  938TIP3    H124229   6.548   0.529  17.180 -0.6719  2.2460  0.2879
  938TIP3    H224230   6.597   0.515  17.322 -0.4492  0.0047  0.0272
  939TIP3   OH224231   5.118   3.337  14.589 -0.3076 -0.1236  0.3272
  939TIP3    H124232   5.178   3.379  14.650 -2.0576  3.7640 -0.3727
  939TIP3    H224233   5.163   3.340  14.504  0.1043 -0.9983  0.4999
  940TIP3   OH224234   5.555   5.643   6.081 -0.0923  0.3519 -0.0626
  940TIP3    H124235   5.518   5.612   6.164  0.1763 -3.2345 -1.1267
  940TIP3    H224236   5.641   5.601   6.076  0.1868  1.0531 -1.8460
  941TIP3   OH224237   2.095   6.104   0.391 -0.0543 -0.0498  0.3332
  941TIP3    H124238   2.104   6.151   0.474 -0.7091  0.6078  0.0368
  941TIP3    H224239   2.054   6.167   0.332 -1.9688 -1.3283  0.2376
  942TIP3   OH224240   3.116   2.388   6.009  0.2481  0.4340 -0.5326
  942TIP3    H124241   3.180   2.343   5.953  0.3024 -0.2924  0.0993
  942TIP3    H224242   3.080   2.319   6.065  0.1581  1.1382  0.2976
  943TIP3   OH224243   2.001   0.820  11.557 -0.0773  0.7707  0.1187
  943TIP3    H124244   1.992   0.823  11.462  0.7388 -2.8360 -0.2426
  943TIP3    H224245   2.065   0.887  11.578  0.3099  1.1223 -1.9793
  944TIP3   OH224246   1.438   3.279   2.773 -0.0154 -0.1553 -0.3385
  944TIP3    H124247   1.426   3.225   2.852 -0.2876  0.5396  0.1058
  944TIP3    H224248   1.353   3.322   2.761  0.6003  1.2342  0.1179
  945TIP3   OH224249   5.123   4.578  11.913 -0.1639 -0.9534 -0.4706
  945TIP3    H124250   5.180   4.551  11.985  0.1180 -0.8596 -0.6607
  945TIP3    H224251   5.102   4.496  11.867  0.9073 -0.8317 -1.2068
  946TIP3   OH224252   5.545   6.296   1.579  0.2514 -0.1692 -0.5530
  946TIP3    H124253   5.536   6.239   1.655  1.2625 -0.7855 -0.8839
  946TIP3    H224254   5.514   6.243   1.506 -2.6909  1.0828 -0.3801
  947TIP3   OH224255   1.460   0.650  16.360 -0.2062  0.1515 -0.6916
  947TIP3    H124256   1.403   0.631  16.434  0.9306 -0.6922 -0.0047
  947TIP3    H224257   1.400   0.660  16.286 -1.1989 -2.0517 -0.2733
  948TIP3   OH224258   0.960   5.463  11.009  0.5849 -0.2014 -0.8682
  948TIP3    H124259   1.031   5.404  11.031  0.1833 -1.3062 -2.3548
  948TIP3    H224260   0.990   5.510  10.931  0.0987  0.0755 -0.8987
  949TIP3   OH224261   4.867   5.250  17.222  0.3019  0.8566 -0.3646
  949TIP3    H124262   4.810   5.263  17.146  0.7129  0.2020 -0.7856
  949TIP3    H224263   4.951   5.223  17.185 -0.0453 -1.4285  0.3792
  950TIP3   OH224264   5.615   2.604  15.665  0.0942 -0.3538  0.4025
  950TIP3    H124265   5.686   2.598  15.601 -0.9474  0.2220 -0.8589
  950TIP3    H224266   5.555   2.670  15.628 -1.8560 -1.9061  0.6486
  951TIP3   OH224267   1.387   5.054   4.261 -0.4929  0.0008 -0.6386
  951TIP3    H124268   1.418   5.068   4.351  0.8761  3.2275 -1.4601
  951TIP3    H224269   1.302   5.014   4.272  0.4595 -1.5964  2.0231
  952TIP3   OH224270   3.302   0.099   0.729  0.0885 -0.2043  0.1862
  952TIP3    H124271   3.214   0.118   0.697  0.6514  0.7266 -0.8587
  952TIP3    H224272   3.303   0.134   0.819 -0.6831 -0.4806  0.3115
  953TIP3   OH224273   4.376   2.687   2.261  1.0515  0.6080 -0.4623
  953TIP3    H124274   4.417   2.773   2.272  0.8458  0.7099 -0.4919
  953TIP3    H224275   4.361   2.679   2.167  1.8201  0.1931 -0.5594
  954TIP3   OH224276   1.920   1.880   1.616 -0.0678 -0.3564 -0.3189
  954TIP3    H124277   1.990   1.873   1.681 -0.6694 -0.7293  0.3050
  954TIP3    H224278   1.919   1.972   1.591 -1.6821  0.4641  2.3417
  955TIP3   OH224279   6.092   3.625  15.284 -0.1562  0.0601 -0.6639
  955TIP3    H124280   6.180   3.592  15.263 -0.2944 -0.9113  0.1687
  955TIP3    H224281   6.096   3.643  15.378 -1.0549 -0.6998 -0.4652
  956TIP3   OH224282   3.484   0.016   5.191 -0.1711 -0.3730  0.2284
  956TIP3    H124283   3.526   0.096   5.160 -2.0782 -0.2180 -2.3557
  956TIP3    H224284   3.538  -0.055   5.157 -0.3903 -0.1627 -0.5882
  957TIP3   OH224285   2.251   3.708   3.888 -0.9474 -0.2135  0.6283
  957TIP3    H124286   2.312   3.702   3.814 -0.5117 -0.5948  1.0139
  957TIP3    H224287   2.179   3.762   3.855 -0.7936 -0.4383 -0.1038
  958TIP3   OH224288   2.738   5.693   0.380  0.6132 -0.2497 -0.1028
  958TIP3    H124289   2.667   5.745   0.343 -0.4613 -0.8636  0.9982
  958TIP3    H224290   2.816   5.721   0.333 -0.3024  0.6924 -1.1158
  959TIP3   OH224291   6.297   3.620   0.253 -0.6682  0.0351  0.1416
  959TIP3    H124292   6.259   3.533   0.259  0.3630 -0.3615  1.3900
  959TIP3    H224293   6.377   3.608   0.202  0.1589 -0.0147  1.4232
  960TIP3   OH224294   6.050   5.849   0.050 -0.2036  0.0145 -0.4213
  960TIP3    H124295   6.051   5.759   0.017 -0.8514 -0.3277  0.4515
  960TIP3    H224296   5.975   5.852   0.109  0.3530  0.8681  0.2677
  961TIP3   OH224297   3.736   0.006  14.645  0.3650 -0.4984 -0.2306
  961TIP3    H124298   3.719   0.059  14.723 -0.1386  0.6925 -1.1264
  961TIP3    H224299   3.808   0.050  14.600 -1.1569  0.4430 -1.8623
  962TIP3   OH224300   4.865   4.090   6.397 -0.1019  0.1621 -0.3520
  962TIP3    H124301   4.895   4.011   6.353 -0.4097  0.8015 -1.7401
  962TIP3    H224302   4.802   4.059   6.462  0.1046 -0.7641 -0.5806
  963TIP3   OH224303   1.962   0.420   6.826  0.2228  0.0537  0.1347
  963TIP3    H124304   2.049   0.381   6.836  0.6564  0.9826  0.1149
  963TIP3    H224305   1.945   0.415   6.732 -0.0702 -0.7868  0.2239
  964TIP3   OH224306   2.809   1.695   6.421 -0.2979  0.0664  0.0072
  964TIP3    H124307   2.858   1.678   6.341 -2.1276  2.5047 -1.7937
  964TIP3    H224308   2.876   1.708   6.488  1.3215 -1.1324 -1.2791
  965TIP3   OH224309   5.846   2.713  14.505  0.5520 -0.3206 -0.2252
  965TIP3    H124310   5.828   2.620  14.515  0.3294 -0.0968  1.7816
  965TIP3    H224311   5.891   2.738  14.586  0.5998  1.3256 -0.7213
  966TIP3   OH224312   3.634   3.831  16.287 -0.0879  0.9342 -0.1290
  966TIP3    H124313   3.661   3.799  16.374  0.4047  0.3581 -0.4810
  966TIP3    H224314   3.579   3.761  16.253  0.5256  0.7060 -0.6740
  967TIP3   OH224315   1.783   6.632   5.233  0.0290  0.2334 -0.0917
  967TIP3    H124316   1.834   6.713   5.225  2.5041 -1.2171  0.0653
  967TIP3    H224317   1.791   6.608   5.326  0.4897 -0.8879 -0.4074
  968TIP3   OH224318   6.507   1.920  17.213 -0.2411 -0.2357  0.3452
  968TIP3    H124319   6.557   1.850  17.171 -1.1922 -0.3372 -0.6607
  968TIP3    H224320   6.470   1.971  17.141  0.8953  1.6823  1.0488
  969TIP3   OH224321   4.750   6.307   3.101 -0.2528  0.1228 -0.4257
  969TIP3    H124322   4.815   6.354   3.049  0.1416 -0.7871 -0.7800
  969TIP3    H224323   4.761   6.340   3.190  0.3266  0.3635 -0.5827
  970TIP3   OH224324   2.471   3.174  15.565 -0.4800  0.4392 -0.2142
  970TIP3    H124325   2.475   3.122  15.646  2.0459 -0.2008 -0.6847
  970TIP3    H224326   2.513   3.257  15.588 -1.2453  0.9049 -0.4585
  971TIP3   OH224327   5.685   6.446  16.940  0.1766 -0.3200 -0.0606
  971TIP3    H124328   5.607   6.450  16.996  1.2524 -0.5764  1.5320
  971TIP3    H224329   5.756   6.481  16.995  1.4403 -1.3614 -0.9605
  972TIP3   OH224330   4.523   5.724   4.511 -0.2026  0.2515 -0.2309
  972TIP3    H124331   4.613   5.752   4.523 -0.1933 -0.0991  0.6025
  972TIP3    H224332   4.473   5.805   4.501  0.2940  0.4188 -1.4221
  973TIP3   OH224333   1.555   1.710   0.943 -0.5705 -0.3909 -0.8649
  973TIP3    H124334   1.509   1.766   1.005  0.5174 -0.2776 -0.1257
  973TIP3    H224335   1.491   1.644   0.918 -1.2323 -0.0474 -0.1238
  974TIP3   OH224336   2.612   4.762   4.490  0.2862  0.1723  0.4129
  974TIP3    H124337   2.644   4.683   4.532  1.3461 -0.3298 -1.2281
  974TIP3    H224338   2.686   4.823   4.491  0.0631  0.4604  0.0706
  975TIP3   OH224339   2.306   3.090  12.141  0.4341 -0.0454 -0.0293
  975TIP3    H124340   2.245   3.019  12.123 -0.1167  0.5117 -0.4179
  975TIP3    H224341   2.288   3.155  12.074  0.7521  0.5744  0.4699
  976TIP3   OH224342   6.119   4.459  15.110 -0.0668  0.2750  0.0549
  976TIP3    H124343   6.206   4.429  15.086 -0.8279  0.2792 -3.0930
  976TIP3    H224344   6.111   4.546  15.070 -1.5699  0.1958  0.1230
  977TIP3   OH224345   5.594   1.940  13.743  0.4759  0.5677 -0.5610
  977TIP3    H124346   5.624   1.976  13.659 -1.1914  1.2241 -0.9059
  977TIP3    H224347   5.500   1.929  13.733  0.3472 -0.0540  0.9839
  978TIP3   OH224348   2.213   2.896  16.997 -0.1002  0.4875  0.5967
  978TIP3    H124349   2.178   2.963  16.938  1.7556  1.3231  0.3603
  978TIP3    H224350   2.308   2.901  16.985  0.2591 -0.2203  2.6954
  979TIP3   OH224351   4.853   5.871  12.545 -0.5163  0.9514 -0.4564
  979TIP3    H124352   4.760   5.876  12.568 -0.2788  1.4771  0.4312
  979TIP3    H224353   4.878   5.782  12.569 -0.5013  1.1970  0.4719
  980TIP3   OH224354   3.421   3.809  15.248 -0.0500  0.4737 -0.2661
  980TIP3    H124355   3.498   3.819  15.191  0.1072 -0.6883 -0.2789
  980TIP3    H224356   3.398   3.716  15.241 -3.3891  1.2622 -2.7789
  981TIP3   OH224357   4.973   4.642  16.070  0.2098  0.3352  0.3532
  981TIP3    H124358   5.036   4.699  16.024 -1.0178 -0.1943 -2.1475
  981TIP3    H224359   4.887   4.672  16.041 -0.5356 -1.8365  0.1220
  982TIP3   OH224360   5.073   1.032   2.290  0.0840  0.0620  0.2334
  982TIP3    H124361   5.136   0.963   2.309 -0.2875 -0.5196 -0.5649
  982TIP3    H224362   5.011   0.991   2.229 -0.3592  0.9894  0.0464
  983TIP3   OH224363   0.600   2.069  12.026 -0.2555 -0.3917 -0.2403
  983TIP3    H124364   0.518   2.115  12.045 -1.3415 -2.4315  0.3383
  983TIP3    H224365   0.668   2.137  12.031 -1.5191  0.8170  2.5092
  984TIP3   OH224366   1.390   3.990  16.812 -0.0018  0.1230 -0.1294
  984TIP3    H124367   1.366   4.079  16.787  2.2970  0.9879  0.5615
  984TIP3    H224368   1.428   3.952  16.733  1.3287  0.6383  0.2496
  985TIP3   OH224369   0.016   4.782  16.971 -0.4371  0.1890  0.3274
  985TIP3    H124370   0.031   4.698  17.014  1.5669  0.4939  0.3065
  985TIP3    H224371  -0.078   4.783  16.952 -1.0028 -0.9041  2.6687
  986TIP3   OH224372   5.203   6.542   2.075 -0.5813 -0.2930 -1.0532
  986TIP3    H124373   5.284   6.591   2.062 -0.2212 -0.6156 -0.0899
  986TIP3    H224374   5.215   6.498   2.159 -1.4811 -0.8908 -1.2312
  987TIP3   OH224375   1.908   1.520   3.266 -0.3597  0.4458 -0.1546
  987TIP3    H124376   1.984   1.527   3.208 -1.1835  1.6741 -1.1191
  987TIP3    H224377   1.860   1.444   3.233  1.4572 -1.7565  1.7888
  988TIP3   OH224378   1.604   3.615   1.445 -0.7705  0.4821  0.1747
  988TIP3    H124379   1.682   3.653   1.486 -0.3921 -0.8992  0.7753
  988TIP3    H224380   1.623   3.620   1.351  0.8173 -1.3155  0.3324
  989TIP3   OH224381   3.096   2.836   2.716 -0.0399  0.1590 -0.1929
  989TIP3    H124382   3.146   2.900   2.766 -0.3101  0.7411 -0.6583
  989TIP3    H224383   3.005   2.849   2.746  0.0347 -0.7331  0.4807
  990TIP3   OH224384   4.457   5.168  12.793  0.5012 -0.1320 -0.2963
  990TIP3    H124385   4.371   5.171  12.751  0.4265  1.3031 -0.0945
  990TIP3    H224386   4.446   5.107  12.866 -0.3043 -0.0927 -0.3748
  991TIP3   OH224387   5.483   0.655   2.412 -0.0459 -0.2806 -0.5015
  991TIP3    H124388   5.544   0.724   2.437  0.4433 -0.1482 -1.9753
  991TIP3    H224389   5.464   0.609   2.494 -1.0829  2.1161  0.7144
  992TIP3   OH224390   3.224   3.451  16.996  0.3194 -0.4693 -0.2384
  992TIP3    H124391   3.141   3.479  16.957  0.3341  0.7221  0.5300
  992TIP3    H224392   3.225   3.356  16.984 -1.3320 -0.5566  0.0377
  993TIP3   OH224393   5.907   0.163   3.694 -0.2867  0.0594 -0.0528
  993TIP3    H124394   5.830   0.112   3.668  0.0722  0.0827 -1.2353
  993TIP3    H224395   5.975   0.137   3.631  0.1822  1.2688 -0.0651
  994TIP3   OH224396   2.363   1.175  11.705  0.0187  0.0538 -0.3406
  994TIP3    H124397   2.451   1.139  11.717 -0.5455 -1.5958 -0.8916
  994TIP3    H224398   2.364   1.258  11.753  1.6621 -0.2578  0.2206
  995TIP3   OH224399   5.610   2.669  14.981 -0.3062  0.1173  0.1650
  995TIP3    H124400   5.590   2.586  15.025 -0.7856  0.2942  0.2864
  995TIP3    H224401   5.700   2.658  14.950 -0.2864 -0.3632  0.3758
  996TIP3   OH224402   6.338   0.858  17.238 -0.0263 -0.1181 -0.1068
  996TIP3    H124403   6.303   0.770  17.222  3.0195 -1.3080 -1.0821
  996TIP3    H224404   6.392   0.876  17.161  0.8864  1.8071  0.9224
  997TIP3   OH224405   4.604   5.613  13.912  0.2405 -0.4200 -0.0507
  997TIP3    H124406   4.616   5.701  13.877  1.9871 -1.1442 -1.4886
  997TIP3    H224407   4.640   5.616  14.000  0.5293  0.2516 -0.1902
  998TIP3   OH224408   4.787   2.668  12.592 -0.4077  0.0451  0.1185
  998TIP3    H124409   4.716   2.605  12.579 -1.9618  1.9980 -1.6445
  998TIP3    H224410   4.772   2.703  12.680 -1.0843 -0.2452  0.1281
  999TIP3   OH224411   4.421   5.639   3.917  0.0207  0.6084 -0.0865
  999TIP3    H124412   4.347   5.696   3.935 -0.8518 -1.3538  3.5463
  999TIP3    H224413   4.469   5.635   4.000 -0.1868 -4.0140  0.0974
 1000TIP3   OH224414   1.355   1.131  14.221 -0.3224  0.0161 -0.8099
 1000TIP3    H124415   1.325   1.093  14.304  1.5382 -0.8117 -0.4693
 1000TIP3    H224416   1.310   1.215  14.216 -0.0606  0.3518  1.3361
 1001TIP3   OH224417   0.584   0.438  14.509 -0.0884 -0.1095 -0.2395
 1001TIP3    H124418   0.526   0.513  14.526  0.1846 -0.1330  0.8838
 1001TIP3    H224419   0.610   0.408  14.596 -0.3385 -1.6380 -0.6715
 1002TIP3   OH224420   1.613   3.560   4.863 -0.3726 -0.2509 -0.4718
 1002TIP3    H124421   1.528   3.528   4.834 -1.2813  1.8505 -0.3619
 1002TIP3    H224422   1.653   3.596   4.784 -0.5401  0.6845 -0.1465
 1003TIP3   OH224423   6.710   1.496  11.021 -0.4726  0.2413 -0.0881
 1003TIP3    H124424   6.803   1.496  11.043 -0.1783 -0.7428 -1.1726
 1003TIP3    H224425   6.667   1.454  11.095  0.0427  0.0558  0.1059
 1004TIP3   OH224426   0.301   2.115   2.147  0.2318 -0.2718  0.0142
 1004TIP3    H124427   0.217   2.077   2.175  1.1836 -1.9425  0.7720
 1004TIP3    H224428   0.298   2.206   2.178 -0.9099 -0.5879  0.8957
 1005TIP3   OH224429   3.545   4.939   5.222  0.0830 -0.3171  0.2250
 1005TIP3    H124430   3.601   4.878   5.175  1.6152  0.6072  0.8009
 1005TIP3    H224431   3.588   4.952   5.306 -0.0090  1.8329 -0.0258
 1006TIP3   OH224432   5.093   6.199   3.873 -0.3414 -0.1552  0.2642
 1006TIP3    H124433   5.043   6.193   3.792 -1.0586 -0.1838  0.7067
 1006TIP3    H224434   5.168   6.254   3.850 -0.8613  0.3562 -0.2542
 1007TIP3   OH224435   4.610   2.752   5.172 -1.1575  0.4273 -0.2764
 1007TIP3    H124436   4.630   2.845   5.165 -0.8714  0.4124  0.2903
 1007TIP3    H224437   4.669   2.710   5.110 -1.4974  0.6421 -0.7597
 1008TIP3   OH224438   1.049   4.376   4.472 -0.2203  0.0348 -0.4183
 1008TIP3    H124439   0.963   4.409   4.499  0.1821 -0.0229  1.0424
 1008TIP3    H224440   1.061   4.296   4.523  1.9036  1.5638  1.7143
 1009TIP3   OH224441   4.512   2.251   3.661  0.3516  0.3262  0.3684
 1009TIP3    H124442   4.541   2.171   3.618  0.4870 -0.0454  1.1403
 1009TIP3    H224443   4.572   2.318   3.629  1.5612 -0.2802  1.3022
 1010TIP3   OH224444   2.210   3.452  15.654 -0.2695 -0.3398 -0.3687
 1010TIP3    H124445   2.197   3.378  15.595  0.0338  0.1646 -1.0819
 1010TIP3    H224446   2.123   3.491  15.664 -0.1174  0.3114 -1.4846
 1011TIP3   OH224447   4.878   1.577  15.691 -0.2738 -0.4180 -0.2887
 1011TIP3    H124448   4.944   1.647  15.696 -1.5065  0.8404 -0.8302
 1011TIP3    H224449   4.814   1.600  15.758 -0.7950 -0.9044 -0.6110
 1012TIP3   OH224450   0.114   5.679   1.969  0.3726 -0.4824  0.4184
 1012TIP3    H124451   0.178   5.747   1.991 -2.2304  2.6542 -0.9628
 1012TIP3    H224452   0.166   5.611   1.927  2.9495  1.4796  0.1622
 1013TIP3   OH224453   1.554   4.916   4.111  0.2075 -0.4806 -0.2535
 1013TIP3    H124454   1.629   4.971   4.089 -0.4292  0.2840 -0.5489
 1013TIP3    H224455   1.508   4.964   4.179  0.7341 -1.6143  0.9397
 1014TIP3   OH224456   6.194   2.754   3.124  0.1986  0.0526 -0.1390
 1014TIP3    H124457   6.211   2.844   3.098  1.0156  0.2463  0.9845
 1014TIP3    H224458   6.142   2.761   3.204 -0.6549 -0.4949 -0.6355
 1015TIP3   OH224459   3.252   4.365   1.439  0.0621  0.3880  0.6444
 1015TIP3    H124460   3.189   4.412   1.493 -1.1473  1.0155 -1.2182
 1015TIP3    H224461   3.330   4.420   1.440 -0.1816  0.7368  1.1644
 1016TIP3   OH224462   1.584   5.383  17.371  0.2582 -0.5802  0.5117
 1016TIP3    H124463   1.566   5.477  17.366  0.8593 -0.5250 -2.4102
 1016TIP3    H224464   1.525   5.351  17.440 -0.0983  1.8603  1.4612
 1017TIP3   OH224465   3.492   5.772   1.497  0.7041  0.1480 -0.4812
 1017TIP3    H124466   3.582   5.740   1.502  0.9519  1.0030  0.7393
 1017TIP3    H224467   3.497   5.853   1.447  0.7380  0.5998  0.2411
 1018TIP3   OH224468   2.562   3.835  13.178  0.6966 -0.1150  0.0192
 1018TIP3    H124469   2.647   3.871  13.203  0.2827  0.9023 -0.0046
 1018TIP3    H224470   2.509   3.911  13.155 -0.2074 -0.7395 -0.0205
 1019TIP3   OH224471   6.151   4.056  13.567  0.1855  0.0483  0.5984
 1019TIP3    H124472   6.178   3.968  13.540 -1.2831  0.1010 -1.2855
 1019TIP3    H224473   6.072   4.042  13.619  0.1834  0.2267  0.6439
 1020TIP3   OH224474   6.595   0.840   2.890 -0.2120  0.3616  0.0102
 1020TIP3    H124475   6.657   0.880   2.951  0.3837  0.7072 -0.8027
 1020TIP3    H224476   6.523   0.902   2.884 -0.6023  0.0106  0.8754
 1021TIP3   OH224477   3.818   0.313   2.537  0.2519 -0.0436  0.0653
 1021TIP3    H124478   3.835   0.385   2.598 -0.6522 -0.2572  0.5982
 1021TIP3    H224479   3.904   0.280   2.514  0.6925  1.2510 -0.2465
 1022TIP3   OH224480   3.737   1.182   0.077  0.3048 -0.8419  0.0614
 1022TIP3    H124481   3.757   1.253   0.139  1.1304 -0.2209 -0.8838
 1022TIP3    H224482   3.813   1.124   0.082 -0.2266 -1.5088  0.5955
 1023TIP3   OH224483   6.599   4.710   2.991 -0.1552 -0.0942  0.2347
 1023TIP3    H124484   6.693   4.703   2.978 -0.2130 -0.1610 -0.1674
 1023TIP3    H224485   6.589   4.755   3.075  0.2249 -1.0567  0.8064
 1024TIP3   OH224486   2.814   1.964   5.088  0.0569  0.6326 -0.3064
 1024TIP3    H124487   2.859   2.033   5.137  0.7427 -0.2422  0.3264
 1024TIP3    H224488   2.883   1.902   5.067 -0.7179 -0.3446 -0.0151
 1025TIP3   OH224489   6.141   1.338   4.946  0.1593  0.3361 -0.2434
 1025TIP3    H124490   6.128   1.364   5.037  1.2815  1.6311 -0.4213
 1025TIP3    H224491   6.132   1.243   4.947 -0.9763  0.4254  1.0072
 1026TIP3   OH224492   2.653   1.110   3.927  0.1569 -0.1273  0.5885
 1026TIP3    H124493   2.624   1.125   4.017 -1.2001  0.9833  0.0078
 1026TIP3    H224494   2.574   1.120   3.874  1.0826  0.0874 -0.8145
 1027TIP3   OH224495   2.854   4.382  14.500 -0.0424  0.0110 -0.8042
 1027TIP3    H124496   2.817   4.361  14.586 -0.2308  0.1451 -0.8545
 1027TIP3    H224497   2.782   4.374  14.439 -0.5757  2.4994 -0.6027
 1028TIP3   OH224498   2.715   4.116  11.809  0.2536  0.6138  0.6917
 1028TIP3    H124499   2.668   4.141  11.888 -1.1056  1.0420 -0.2201
 1028TIP3    H224500   2.673   4.035  11.780  0.5479  0.6105  0.2590
 1029TIP3   OH224501   0.338   3.544  16.787 -0.2530  0.4823  0.3674
 1029TIP3    H124502   0.369   3.596  16.861  1.0514  1.8799 -1.0781
 1029TIP3    H224503   0.376   3.457  16.801  1.5778  1.2455  0.3961
 1030TIP3   OH224504   1.320   2.771   3.698  0.2577  0.0404  0.1754
 1030TIP3    H124505   1.347   2.754   3.788 -0.6346  1.3668  0.7227
 1030TIP3    H224506   1.400   2.800   3.654  0.3610  1.1131  1.0225
 1031TIP3   OH224507   2.675   4.828   4.777  0.5631 -0.2039  0.0867
 1031TIP3    H124508   2.701   4.736   4.782 -0.2180 -0.3502  2.3714
 1031TIP3    H224509   2.612   4.831   4.704  0.3131 -1.5493  0.2162
 1032TIP3   OH224510   3.913   3.003  12.254 -0.5457 -0.3131 -0.0804
 1032TIP3    H124511   3.952   3.090  12.252 -0.1720 -0.4793 -0.1958
 1032TIP3    H224512   3.820   3.018  12.272 -0.2598  0.0472  1.2528
 1033TIP3   OH224513   0.476   0.975  15.714  0.3561  0.3859  0.5145
 1033TIP3    H124514   0.470   0.903  15.651  0.2586 -0.1238  1.0973
 1033TIP3    H224515   0.482   0.932  15.799  1.7957  1.0276  0.7780
 1034TIP3   OH224516   3.398   2.303  12.971 -0.5086 -0.6549  0.5591
 1034TIP3    H124517   3.372   2.323  12.881  0.8612 -1.4346 -0.0562
 1034TIP3    H224518   3.462   2.371  12.993 -1.1411 -0.2309  1.0983
 1035TIP3   OH224519   4.699   0.046   1.563 -0.0256 -0.1422  0.2499
 1035TIP3    H124520   4.708   0.001   1.479  0.9270  0.8340 -0.2051
 1035TIP3    H224521   4.790   0.061   1.591 -0.3300 -0.6394  1.5645
 1036TIP3   OH224522   5.301   6.604   3.292 -0.2416 -0.5161 -0.4809
 1036TIP3    H124523   5.351   6.651   3.358  2.0553 -1.3682 -1.5263
 1036TIP3    H224524   5.366   6.569   3.231 -2.0524 -2.2178 -1.6048
 1037TIP3   OH224525   4.788   5.333   3.137 -0.9489  0.1511 -0.4366
 1037TIP3    H124526   4.761   5.293   3.054 -1.9982  2.1165 -1.1180
 1037TIP3    H224527   4.864   5.387   3.113 -0.7033  0.0401  0.0819
 1038TIP3   OH224528   3.566   0.767   3.774  0.1198 -0.1321 -0.2973
 1038TIP3    H124529   3.587   0.694   3.832 -1.1272 -0.8025 -0.6418
 1038TIP3    H224530   3.532   0.835   3.832 -1.3931 -0.9072 -0.2177
 1039TIP3   OH224531   6.629   5.284  14.868 -0.2683  0.1657 -0.2721
 1039TIP3    H124532   6.542   5.269  14.831  0.6224 -0.8384 -2.0870
 1039TIP3    H224533   6.688   5.232  14.813  1.2987 -0.5041  1.9208
 1040TIP3   OH224534   3.694   2.191   0.185  0.4650 -0.7275  0.1003
 1040TIP3    H124535   3.694   2.252   0.111 -1.8651 -0.9772 -0.1791
 1040TIP3    H224536   3.784   2.193   0.217  1.0538  0.9505 -1.4490
 1041TIP3   OH224537   4.741   3.869   5.633  0.0780 -0.2945 -0.1923
 1041TIP3    H124538   4.730   3.774   5.624 -1.3196 -0.0674 -1.1957
 1041TIP3    H224539   4.654   3.902   5.655  0.8620  0.6231  1.7640
 1042TIP3   OH224540   0.086   5.961  12.643 -0.7899  0.3295 -0.2539
 1042TIP3    H124541   0.035   6.000  12.714  0.8846 -0.1233  1.2670
 1042TIP3    H224542   0.176   5.962  12.675 -0.0168 -0.2165 -2.2543
 1043TIP3   OH224543   4.582   5.530   5.084 -0.0726  0.0741  0.0768
 1043TIP3    H124544   4.527   5.515   5.162  0.3893  0.1253  0.4143
 1043TIP3    H224545   4.663   5.482   5.103  0.2579  0.5495 -0.1310
 1044TIP3   OH224546   1.265   1.317   1.968 -0.4382  0.1151 -0.0340
 1044TIP3    H124547   1.358   1.306   1.949 -0.4374  1.9557 -1.4327
 1044TIP3    H224548   1.260   1.325   2.064  0.6641 -1.2176  0.1512
 1045TIP3   OH224549   2.828   4.622  16.251  0.3863  0.3036 -0.2690
 1045TIP3    H124550   2.872   4.700  16.285  2.4206 -1.2305  0.9119
 1045TIP3    H224551   2.857   4.616  16.159  0.5069  0.7640 -0.2607
 1046TIP3   OH224552   2.599   5.098  16.238  0.1518  0.3626  0.0158
 1046TIP3    H124553   2.581   5.068  16.327 -0.6600 -0.3898 -0.3939
 1046TIP3    H224554   2.670   5.161  16.248 -0.0101  0.3690  1.2079
 1047TIP3   OH224555   4.162   1.042   3.556  0.5962 -0.3535  0.0108
 1047TIP3    H124556   4.088   1.100   3.576  0.0842 -1.2601  0.8091
 1047TIP3    H224557   4.221   1.096   3.504 -0.3263  0.5871 -0.0888
 1048TIP3   OH224558   0.880   6.122   6.036  0.1920 -0.1338 -0.5687
 1048TIP3    H124559   0.895   6.073   6.117  2.1296  1.4466  0.1057
 1048TIP3    H224560   0.965   6.158   6.013 -0.4072 -0.0904 -3.0688
 1049TIP3   OH224561   0.253   1.848  17.167  0.0233 -0.4018  0.1760
 1049TIP3    H124562   0.277   1.768  17.214  0.8184 -0.4874 -0.3639
 1049TIP3    H224563   0.334   1.896  17.158 -0.3761  0.2719  0.1060
 1050TIP3   OH224564   0.669   0.128  17.094 -0.1888 -0.0222  0.4869
 1050TIP3    H124565   0.603   0.105  17.160 -0.0207 -0.6258  0.4447
 1050TIP3    H224566   0.680   0.049  17.042 -1.3318  0.8392 -1.1645
 1051TIP3   OH224567   0.374   4.672  15.396 -0.0512  0.0529 -0.0748
 1051TIP3    H124568   0.342   4.582  15.405  0.7876 -0.2402  0.0822
 1051TIP3    H224569   0.295   4.725  15.383 -0.4877 -0.8234 -1.1064
 1052TIP3   OH224570   6.014   0.457   1.978  0.0630  0.5247 -0.0505
 1052TIP3    H124571   6.019   0.371   1.936 -0.3841  1.0406 -1.2134
 1052TIP3    H224572   6.083   0.509   1.936  0.7784  0.5419  1.1255
 1053TIP3   OH224573   3.108   0.419  10.931 -0.4075  0.4597  0.2265
 1053TIP3    H124574   3.098   0.416  11.026 -1.8016  0.4887  0.0906
 1053TIP3    H224575   3.124   0.329  10.905  0.6430  0.5387  0.5359
 1054TIP3   OH224576   1.319   1.188   2.697  0.1717  0.1836 -0.0909
 1054TIP3    H124577   1.344   1.170   2.787 -0.5784  0.1614  0.1167
 1054TIP3    H224578   1.233   1.147   2.687 -0.5952  1.7641 -0.2545
 1055TIP3   OH224579   3.429   5.165  17.565 -0.1800  0.0269  0.0435
 1055TIP3    H124580   3.395   5.078  17.542  0.7062 -0.2615 -0.2114
 1055TIP3    H224581   3.513   5.147  17.607  0.1880  0.7766 -0.3555
 1056TIP3   OH224582   2.782   2.745   6.749 -0.5347 -0.1008 -0.2236
 1056TIP3    H124583   2.797   2.779   6.837 -2.0828 -0.4856  0.2276
 1056TIP3    H224584   2.864   2.760   6.703 -0.5937  2.6703  0.4284
 1057TIP3   OH224585   2.580   2.961  14.581  0.3302  0.1095 -0.3971
 1057TIP3    H124586   2.651   2.898  14.598  1.0327  1.1892  0.8430
 1057TIP3    H224587   2.501   2.916  14.609  0.7272 -0.5112 -0.2574
 1058TIP3   OH224588   6.515   6.280   2.888 -0.1782  0.2018  0.2212
 1058TIP3    H124589   6.520   6.234   2.972 -1.0243  1.3592  0.9248
 1058TIP3    H224590   6.598   6.259   2.844 -0.0368 -1.0059  1.0231
 1059TIP3   OH224591   5.884   2.528  17.276 -0.1836  0.4213  0.5270
 1059TIP3    H124592   5.907   2.498  17.188 -2.1547  1.0867 -0.2661
 1059TIP3    H224593   5.803   2.577  17.264 -0.5844  0.3935  2.7509
 1060TIP3   OH224594   5.417   2.369   1.605 -0.1073 -1.1830 -0.1694
 1060TIP3    H124595   5.431   2.312   1.680 -0.6282 -0.8893  0.1574
 1060TIP3    H224596   5.478   2.337   1.538  1.0293 -0.8767  0.6851
 1061TIP3   OH224597   5.371   0.677  15.942 -0.5116 -0.2706 -0.2780
 1061TIP3    H124598   5.292   0.728  15.962 -0.2098  0.2111 -0.3075
 1061TIP3    H224599   5.360   0.650  15.851  0.7185  2.3465 -1.3049
 1062TIP3   OH224600   3.137   2.077   5.903 -0.2538 -0.3384 -0.0868
 1062TIP3    H124601   3.115   2.075   5.997 -0.9611  2.1647 -0.1237
 1062TIP3    H224602   3.217   2.129   5.898 -1.3613  1.3791 -0.9859
 1063TIP3   OH224603   2.849   5.873  13.273 -0.0056 -0.2052  0.0212
 1063TIP3    H124604   2.826   5.797  13.326  0.4976  0.5264  1.3463
 1063TIP3    H224605   2.804   5.859  13.190  0.1680 -1.9927  0.1843
 1064TIP3   OH224606   3.562   4.379  16.187 -0.2595 -0.2353 -0.2156
 1064TIP3    H124607   3.533   4.320  16.117 -2.3757  0.0398  0.3695
 1064TIP3    H224608   3.573   4.322  16.263 -2.8326  0.0992  0.4952
 1065TIP3   OH224609   5.052   3.290   1.589 -0.4507  0.0136  0.1222
 1065TIP3    H124610   5.141   3.300   1.624 -0.4852  0.8807 -0.0267
 1065TIP3    H224611   5.027   3.378   1.560 -1.3440 -0.2304  0.1234
 1066TIP3   OH224612   5.954   5.831  11.927  0.0306 -0.1634 -0.0899
 1066TIP3    H124613   5.971   5.810  12.019 -1.4014  0.3287  0.3148
 1066TIP3    H224614   6.023   5.893  11.904 -0.0064  0.2570  0.8703
 1067TIP3   OH224615   2.468   4.466   6.827  0.0697  0.4985 -0.1230
 1067TIP3    H124616   2.544   4.505   6.784  0.0557 -0.1014 -0.7169
 1067TIP3    H224617   2.442   4.394   6.769  0.1495 -0.4479  0.9824
 1068TIP3   OH224618   0.095   3.633  12.812  0.0746 -0.3099 -0.4712
 1068TIP3    H124619   0.183   3.649  12.777 -0.3494 -0.3748 -1.6154
 1068TIP3    H224620   0.068   3.551  12.770  0.7583 -2.1640  2.4297
 1069TIP3   OH224621   2.993   0.128  13.504  0.7537  0.0499 -0.2520
 1069TIP3    H124622   2.996   0.077  13.423  2.2281  0.1709 -0.3052
 1069TIP3    H224623   2.943   0.206  13.482  0.3982 -0.3258 -0.8018
 1070TIP3   OH224624   1.927   4.268  12.978  0.2191 -0.7414  0.9160
 1070TIP3    H124625   1.994   4.304  13.036 -0.0198 -1.7780  1.8612
 1070TIP3    H224626   1.936   4.173  12.986 -0.7966 -0.8986  0.4069
 1071TIP3   OH224627   4.228   3.298   2.376 -0.4289 -0.1395  0.0694
 1071TIP3    H124628   4.144   3.288   2.332 -0.8260  2.3246  0.1051
 1071TIP3    H224629   4.205   3.314   2.468  0.0429  0.6031  0.0684
 1072TIP3   OH224630   3.887   2.675  10.670 -0.0651 -0.1741 -0.0458
 1072TIP3    H124631   3.968   2.626  10.654 -0.4557 -1.4062  1.5152
 1072TIP3    H224632   3.894   2.752  10.613  2.3516 -0.0786  0.2693
 1073TIP3   OH224633   0.936   5.735  13.611  0.3488  0.1970  0.4456
 1073TIP3    H124634   0.962   5.790  13.537 -0.4967 -1.0779 -0.8530
 1073TIP3    H224635   1.017   5.719  13.658  0.8347  1.4174  0.0725
 1074TIP3   OH224636   1.211   5.337  13.416 -0.0079 -0.1862 -0.5052
 1074TIP3    H124637   1.216   5.293  13.501  0.3968  0.2748 -0.2856
 1074TIP3    H224638   1.301   5.367  13.399 -0.4692  1.5385 -0.1096
 1075TIP3   OH224639   1.967   1.113   1.322 -1.0436 -0.6816 -0.1729
 1075TIP3    H124640   2.016   1.173   1.266 -0.0282 -1.0216  0.3248
 1075TIP3    H224641   1.882   1.155   1.334 -0.6692  0.2152 -0.5726
 1076TIP3   OH224642   2.177   0.542   3.742 -0.1508 -0.0143  0.0894
 1076TIP3    H124643   2.236   0.489   3.797 -1.1202 -0.5574  0.6421
 1076TIP3    H224644   2.190   0.509   3.654  1.4256  0.8595 -0.0522
 1077TIP3   OH224645   1.487   2.526   2.308 -0.4093  0.6138  0.0829
 1077TIP3    H124646   1.410   2.549   2.255 -1.7619 -0.3310  1.5272
 1077TIP3    H224647   1.501   2.433   2.290  0.7074  0.8752 -0.4905
 1078TIP3   OH224648   4.774   3.353   5.880  0.1571  0.0049  0.3736
 1078TIP3    H124649   4.751   3.317   5.795 -2.9168 -2.8952  2.1884
 1078TIP3    H224650   4.856   3.310   5.904 -1.3580 -2.9572  0.7208
 1079TIP3   OH224651   0.893   0.967   4.142  0.1640 -0.9100  0.0527
 1079TIP3    H124652   0.851   0.882   4.125  0.1470 -1.1081  1.0169
 1079TIP3    H224653   0.862   1.024   4.072 -1.3860 -1.1741  0.4946
 1080TIP3   OH224654   3.741   6.346  12.508 -1.0735  0.0604 -0.1296
 1080TIP3    H124655   3.720   6.438  12.492 -1.1854 -0.1568 -1.3828
 1080TIP3    H224656   3.719   6.302  12.426  0.5247 -0.8181 -0.1378
 1081TIP3   OH224657   1.373   3.725  15.586 -0.1682  0.1447  0.5058
 1081TIP3    H124658   1.299   3.784  15.584  1.2734  2.0709  0.9056
 1081TIP3    H224659   1.400   3.715  15.495  0.0637  0.7547  0.5067
 1082TIP3   OH224660   6.070   0.831   2.308 -0.5660 -0.2863  0.1468
 1082TIP3    H124661   6.073   0.737   2.325 -0.0095 -0.2079  0.4822
 1082TIP3    H224662   6.006   0.865   2.371  0.3114 -0.2309  1.0237
 1083TIP3   OH224663   6.447   1.071   2.612  0.6244 -1.1349  0.1591
 1083TIP3    H124664   6.436   1.104   2.522  1.3837  1.3215  0.8837
 1083TIP3    H224665   6.539   1.048   2.618  0.8700 -0.1121  0.6188
 1084TIP3   OH224666   5.096   2.490   3.894 -0.5603  0.1431 -0.1109
 1084TIP3    H124667   5.056   2.427   3.834 -1.7137  0.0537  0.6997
 1084TIP3    H224668   5.186   2.459   3.905 -0.4779 -0.1164 -1.3756
 1085TIP3   OH224669   4.766   1.859  15.420 -0.6110 -0.6767  0.2775
 1085TIP3    H124670   4.849   1.812  15.431 -0.7964 -0.6695  1.9293
 1085TIP3    H224671   4.724   1.816  15.346  0.0935 -1.8350  0.5245
 1086TIP3   OH224672   1.081   6.475  13.665  0.2257  0.4657  0.1554
 1086TIP3    H124673   1.157   6.479  13.723  0.3205 -0.6152  0.1268
 1086TIP3    H224674   1.044   6.388  13.681 -0.9000  0.9133  0.0344
 1087TIP3   OH224675   1.461   1.054   3.682  0.2581  0.3989 -0.6558
 1087TIP3    H124676   1.420   1.021   3.602 -0.4621 -0.1711 -0.0683
 1087TIP3    H224677   1.410   1.015   3.753  1.4540  0.1572  0.0998
 1088TIP3   OH224678   3.843   6.499   3.345 -0.1284 -0.1435  0.4793
 1088TIP3    H124679   3.912   6.454   3.393  0.2825 -0.0086  0.0114
 1088TIP3    H224680   3.880   6.584   3.323 -0.3032 -0.2144 -0.1039
 1089TIP3   OH224681   5.799   2.147  16.755  0.0160  0.2789 -0.8732
 1089TIP3    H124682   5.741   2.197  16.812 -1.8084 -1.2599 -1.2656
 1089TIP3    H224683   5.812   2.203  16.678  1.0586  1.6267  0.2346
 1090TIP3   OH224684   6.146   6.057  17.195  0.5272  0.6667 -0.2866
 1090TIP3    H124685   6.118   6.112  17.122 -1.9511 -0.6305 -0.4134
 1090TIP3    H224686   6.084   6.077  17.265  0.6872 -0.6766  0.2564
 1091TIP3   OH224687   0.459   3.693  13.042  0.0774  0.2475 -0.0786
 1091TIP3    H124688   0.448   3.647  12.959 -1.8291  0.5393 -0.0249
 1091TIP3    H224689   0.537   3.747  13.029  0.4484 -0.5435 -1.2784
 1092TIP3   OH224690   0.353   3.608  12.199 -0.8168 -0.7002  0.1981
 1092TIP3    H124691   0.403   3.689  12.189 -2.0062 -0.2486 -3.2217
 1092TIP3    H224692   0.415   3.539  12.175 -0.7014 -0.4844 -0.1405
 1093TIP3   OH224693   4.583   3.642   4.863  0.0179  0.3188  0.1851
 1093TIP3    H124694   4.592   3.586   4.786  0.0387 -1.7324  1.5804
 1093TIP3    H224695   4.495   3.679   4.856  0.5691  1.3984 -1.5469
 1094TIP3   OH224696   3.092   1.641   4.667  0.1304 -0.1851  0.2475
 1094TIP3    H124697   3.130   1.623   4.581  0.7023 -0.5060  0.5592
 1094TIP3    H224698   3.163   1.623   4.729 -0.6244 -1.1214  0.8718
 1095TIP3   OH224699   6.293   3.763  16.561 -0.3649 -0.4068  0.0292
 1095TIP3    H124700   6.269   3.691  16.501  1.5695  0.8124 -2.3749
 1095TIP3    H224701   6.209   3.790  16.599 -1.9276 -0.5847 -2.9539
 1096TIP3   OH224702   6.334   4.614   1.186 -0.4834 -0.4920  0.3144
 1096TIP3    H124703   6.345   4.649   1.098  0.3765  0.8504  0.9255
 1096TIP3    H224704   6.258   4.555   1.179 -3.1471  2.7264 -0.4510
 1097TIP3   OH224705   1.941   6.165  17.414 -0.1004 -0.2123 -0.6493
 1097TIP3    H124706   1.944   6.099  17.483 -1.2300  0.1339 -0.2433
 1097TIP3    H224707   1.848   6.187  17.405  0.0629  0.0158 -2.0421
 1098TIP3   OH224708   2.836   1.782  15.091 -0.2283  0.2770  0.5441
 1098TIP3    H124709   2.858   1.750  15.004  1.2008  0.0091  0.9705
 1098TIP3    H224710   2.883   1.865  15.099 -0.1773  0.1983  1.1313
 1099TIP3   OH224711   5.331   1.511  17.288 -0.3268 -0.2257  0.2014
 1099TIP3    H124712   5.417   1.553  17.300 -0.5759  0.7647 -1.2185
 1099TIP3    H224713   5.295   1.553  17.210 -1.8163 -1.1318  0.3714
 1100TIP3   OH224714   6.149   2.826   4.651  0.1512 -0.4356  0.1484
 1100TIP3    H124715   6.111   2.815   4.738  0.1120 -1.7002 -0.0018
 1100TIP3    H224716   6.167   2.920   4.643  0.4002 -0.3413  1.6204
 1101TIP3   OH224717   5.486   2.621   1.463 -0.3681 -0.0620  0.1226
 1101TIP3    H124718   5.470   2.689   1.530  1.9316 -0.1386  0.8170
 1101TIP3    H224719   5.528   2.550   1.511 -0.4469 -0.9357 -1.0745
 1102TIP3   OH224720   3.177   4.470  11.262  0.2513  0.5310 -0.2479
 1102TIP3    H124721   3.122   4.547  11.250 -1.3857 -0.6102 -0.4845
 1102TIP3    H224722   3.190   4.436  11.173 -0.6128 -0.4659 -0.0161
 1103TIP3   OH224723   5.108   3.076   7.000  0.0164  0.0122  0.3876
 1103TIP3    H124724   5.180   3.139   7.005 -0.4736  0.5324  1.3203
 1103TIP3    H224725   5.087   3.070   6.907  2.2779 -1.3347 -0.0937
 1104TIP3   OH224726   2.032   1.833  11.545  0.2587 -0.2158 -0.0306
 1104TIP3    H124727   1.962   1.798  11.490  1.3104 -0.3743 -1.3298
 1104TIP3    H224728   2.007   1.811  11.634 -2.6353  1.9246 -0.1516
 1105TIP3   OH224729   2.013   5.923   6.688  0.3732 -0.0619 -0.0398
 1105TIP3    H124730   2.032   5.975   6.766 -0.1137 -0.1952  0.1703
 1105TIP3    H224731   2.089   5.937   6.631  0.7964 -0.0711  0.5109
 1106TIP3   OH224732   5.363   4.048  12.380 -0.3804  0.1407 -0.2713
 1106TIP3    H124733   5.288   4.108  12.387  0.0483  0.7611 -0.8746
 1106TIP3    H224734   5.439   4.104  12.391  0.0136 -0.4682  0.1938
 1107TIP3   OH224735   5.587   3.109   2.162  0.4227  0.1794  0.6402
 1107TIP3    H124736   5.569   3.202   2.180 -0.6222 -0.1649  1.5026
 1107TIP3    H224737   5.632   3.109   2.078  2.6077  1.6588  1.7108
 1108TIP3   OH224738   1.712   0.958  11.771 -0.5151  0.6610 -0.0389
 1108TIP3    H124739   1.716   0.862  11.773 -0.6274  0.6179  2.9481
 1108TIP3    H224740   1.628   0.979  11.810  0.2987  1.9596  1.0918
 1109TIP3   OH224741   2.778   5.032  10.902 -0.5391 -0.7780 -0.0993
 1109TIP3    H124742   2.863   5.070  10.878 -1.6573  2.2370  0.2648
 1109TIP3    H224743   2.715   5.072  10.842 -1.8599 -2.2087  0.2636
 1110TIP3   OH224744   5.646   2.674   4.861  0.5997 -0.0956  0.1472
 1110TIP3    H124745   5.665   2.598   4.917 -0.0325 -0.7944 -0.5502
 1110TIP3    H224746   5.680   2.749   4.910  0.7217 -0.7605  1.1225
 1111TIP3   OH224747   5.628   5.090  12.936 -0.5782 -0.0014 -0.1308
 1111TIP3    H124748   5.604   5.177  12.968  1.2854  0.6172 -0.2753
 1111TIP3    H224749   5.580   5.030  12.993  0.4877  1.1100  2.0900
 1112TIP3   OH224750   5.947   0.702  16.141  0.5961  0.1414 -0.2728
 1112TIP3    H124751   5.958   0.607  16.135  0.1257 -0.0719  1.5772
 1112TIP3    H224752   6.036   0.737  16.132  0.9733 -0.5901  0.4716
 1113TIP3   OH224753   2.414   6.699   4.611  0.4966 -0.0941 -0.1069
 1113TIP3    H124754   2.407   6.621   4.666  0.6759  0.2113  0.3531
 1113TIP3    H224755   2.496   6.686   4.562  0.3878 -0.3201 -0.2304
 1114TIP3   OH224756   0.412   3.225  12.070  0.0586  0.2166 -0.0311
 1114TIP3    H124757   0.438   3.138  12.099 -0.4063  0.0213 -0.1859
 1114TIP3    H224758   0.426   3.225  11.975  0.1304  0.3339 -0.0211
 1115TIP3   OH224759   3.811   1.439   3.557 -0.0420 -0.4935 -0.3415
 1115TIP3    H124760   3.797   1.477   3.471  0.0291  0.4770  0.0675
 1115TIP3    H224761   3.766   1.498   3.617  1.0800 -0.3989  0.4289
 1116TIP3   OH224762   6.472   1.017   4.637 -0.7257  0.2116  0.3542
 1116TIP3    H124763   6.566   1.001   4.644 -0.5833 -0.2535 -1.8879
 1116TIP3    H224764   6.462   1.112   4.650  0.2238  0.4559 -0.5633
 1117TIP3   OH224765   6.254   3.057   0.482  0.2710 -0.0082  0.2509
 1117TIP3    H124766   6.336   3.020   0.450 -0.8509 -0.8635 -1.9209
 1117TIP3    H224767   6.233   3.005   0.560  1.6757  0.1265  0.7453
 1118TIP3   OH224768   3.857   5.261   0.625  0.4726 -0.1645  0.6298
 1118TIP3    H124769   3.848   5.318   0.548 -1.3575 -1.4355 -0.1641
 1118TIP3    H224770   3.938   5.213   0.609 -0.7407 -1.6721 -1.4502
 1119TIP3   OH224771   1.995   6.372   2.657 -0.0088 -0.3796  0.1103
 1119TIP3    H124772   1.989   6.361   2.752  0.4273 -0.5294  0.1228
 1119TIP3    H224773   1.927   6.315   2.622 -1.3141  0.9668  0.3981
 1120TIP3   OH224774   1.885   1.529  11.664  0.4782 -0.2068 -0.4186
 1120TIP3    H124775   1.837   1.573  11.735 -0.1628 -0.8322 -0.4491
 1120TIP3    H224776   1.885   1.593  11.593 -0.1858 -0.1259 -0.3604
 1121TIP3   OH224777   6.621   5.742  12.192  0.1371  0.0321  0.5193
 1121TIP3    H124778   6.574   5.747  12.109 -2.3599 -0.7657  1.7780
 1121TIP3    H224779   6.674   5.822  12.195 -0.5090  0.5713 -1.3552
 1122TIP3   OH224780   4.640   0.636   6.461 -0.1393  0.1852  0.3778
 1122TIP3    H124781   4.694   0.606   6.387 -1.5803  1.6080 -1.3494
 1122TIP3    H224782   4.690   0.610   6.538  2.9575  1.2164 -1.0830
 1123TIP3   OH224783   2.869   5.497  15.158 -0.0916  0.3565 -0.4130
 1123TIP3    H124784   2.866   5.413  15.205  4.5817  0.2929  0.2899
 1123TIP3    H224785   2.899   5.474  15.070 -0.7373  1.1826 -0.8618
 1124TIP3   OH224786   3.881   0.857   1.920  0.0299  0.4359 -0.0213
 1124TIP3    H124787   3.915   0.880   1.834 -1.8712 -0.3891 -1.0614
 1124TIP3    H224788   3.830   0.777   1.905 -0.5349  0.3959  1.8242
 1125TIP3   OH224789   4.785   2.540   4.730 -0.1478 -0.2594 -0.6477
 1125TIP3    H124790   4.765   2.525   4.823 -0.5666 -1.9199 -0.9799
 1125TIP3    H224791   4.881   2.540   4.726 -0.0957 -2.0665 -0.4443
 1126TIP3   OH224792   2.474   3.671   4.674  0.7269  0.0689 -0.2868
 1126TIP3    H124793   2.535   3.745   4.683  1.5266 -0.6085  0.0732
 1126TIP3    H224794   2.529   3.599   4.643  0.4601 -0.9873  1.5179
 1127TIP3   OH224795   3.695   1.006   2.235  0.7170  0.4194  0.5970
 1127TIP3    H124796   3.710   0.916   2.264  1.3605  0.3220 -0.0069
 1127TIP3    H224797   3.775   1.030   2.188  0.8328  1.5575  1.3300
 1128TIP3   OH224798   4.491   5.922   1.791 -0.2772  0.8356  0.2313
 1128TIP3    H124799   4.459   5.851   1.847  0.7726  0.6938  0.6791
 1128TIP3    H224800   4.418   5.941   1.732 -0.7316 -0.3273  0.3864
 1129TIP3   OH224801   1.622   3.531   5.230  0.2168  0.3472 -0.1300
 1129TIP3    H124802   1.563   3.592   5.185 -1.7893  0.1437  2.0615
 1129TIP3    H224803   1.699   3.584   5.251 -0.1344  1.2494 -1.0124
 1130TIP3   OH224804   1.045   3.038  10.975  0.0443 -0.0462 -0.8934
 1130TIP3    H124805   1.089   3.086  11.045  0.3606  0.0007 -1.1220
 1130TIP3    H224806   0.952   3.053  10.990  0.0496 -0.8544  0.1140
 1131TIP3   OH224807   5.223   5.354   1.897  0.0584  0.0937  0.2369
 1131TIP3    H124808   5.256   5.289   1.958  1.1272  0.2834 -0.1061
 1131TIP3    H224809   5.133   5.371   1.925  0.2913 -0.3542  1.2995
 1132TIP3   OH224810   6.336   5.158  12.870 -0.0223  0.0879  0.1005
 1132TIP3    H124811   6.308   5.110  12.793  2.9636 -0.5717 -0.7161
 1132TIP3    H224812   6.401   5.101  12.912  0.2551  1.4736  1.6971
 1133TIP3   OH224813   4.640   1.749   2.111  0.4933  0.4991 -0.6466
 1133TIP3    H124814   4.659   1.842   2.102  2.3794  0.3274  0.9776
 1133TIP3    H224815   4.548   1.746   2.137  0.5775  1.9489 -0.0795
 1134TIP3   OH224816   3.423   0.899   2.166 -0.1358  0.0380 -0.1941
 1134TIP3    H124817   3.476   0.898   2.246 -0.4556  0.2786  0.0238
 1134TIP3    H224818   3.485   0.917   2.096  0.2763 -0.9209 -0.0947
 1135TIP3   OH224819   0.642   0.210   0.519 -0.0347  0.4340  0.3956
 1135TIP3    H124820   0.551   0.205   0.548 -0.1184  0.7442  0.1936
 1135TIP3    H224821   0.693   0.194   0.598 -0.2662  0.1131  0.4800
 1136TIP3   OH224822   5.171   4.509   6.007 -0.2065  0.0049 -0.3067
 1136TIP3    H124823   5.265   4.516   6.020 -0.2108 -1.1395  0.5070
 1136TIP3    H224824   5.140   4.455   6.080 -1.4226 -0.0069 -0.7998
 1137TIP3   OH224825   5.423   1.363  12.409  0.2472  0.3617 -0.0119
 1137TIP3    H124826   5.387   1.367  12.320  1.5581  2.1938 -0.4993
 1137TIP3    H224827   5.375   1.431  12.457 -0.4325 -0.5961  0.7218
 1138TIP3   OH224828   2.995   3.428  16.722  0.6269  0.1580  0.8796
 1138TIP3    H124829   2.981   3.523  16.727 -0.6911 -0.0978  2.5749
 1138TIP3    H224830   2.962   3.394  16.805  0.1602 -1.9167 -0.0982
 1139TIP3   OH224831   2.399   0.834  12.935 -0.5042 -0.0464 -0.3825
 1139TIP3    H124832   2.385   0.883  12.854 -0.4783 -1.6981 -1.4423
 1139TIP3    H224833   2.460   0.764  12.910  1.6805  0.9617  1.7083
 1140TIP3   OH224834   5.772   2.364  13.670  0.4276  0.1232  0.5987
 1140TIP3    H124835   5.679   2.360  13.693 -0.0842  0.0221 -1.3193
 1140TIP3    H224836   5.809   2.282  13.702 -0.8275 -1.2326 -1.2193
 1141TIP3   OH224837   3.613   3.899  17.315  0.3399 -0.0397 -0.6411
 1141TIP3    H124838   3.683   3.950  17.274  0.9778 -2.0466 -2.1892
 1141TIP3    H224839   3.538   3.910  17.256  0.3541 -0.5245 -0.7547
 1142TIP3   OH224840   6.110   5.788   0.425 -0.0780  0.0724  0.4043
 1142TIP3    H124841   6.108   5.801   0.520 -0.0322 -1.9618  0.7215
 1142TIP3    H224842   6.199   5.755   0.408  0.3485  1.6240 -0.5473
 1143TIP3   OH224843   4.679   4.431   5.434  0.0965  0.4455 -0.5171
 1143TIP3    H124844   4.621   4.369   5.479  0.4394  0.7276  0.3449
 1143TIP3    H224845   4.748   4.377   5.396 -0.4742  0.1541 -1.1453
 1144TIP3   OH224846   0.086   2.399   5.549 -0.1102  0.3679  0.3040
 1144TIP3    H124847   0.150   2.397   5.620  0.3064 -0.1513 -0.0709
 1144TIP3    H224848   0.130   2.354   5.476 -0.8044  0.2278 -0.0393
 1145TIP3   OH224849   3.168   2.993   0.597  0.0371 -0.0981 -0.6859
 1145TIP3    H124850   3.222   2.961   0.670 -0.2454 -0.6170 -0.7014
 1145TIP3    H224851   3.134   2.914   0.556 -0.3872  0.2145 -0.9451
 1146TIP3   OH224852   3.117   0.049  17.442  0.6137 -0.0891 -0.0114
 1146TIP3    H124853   3.186  -0.016  17.459  0.1098 -0.5529  0.3157
 1146TIP3    H224854   3.164   0.130  17.426  1.3221 -0.8107 -1.8164
 1147TIP3   OH224855   2.076   3.917   2.702 -0.0472  0.2682 -0.7104
 1147TIP3    H124856   2.172   3.921   2.698 -0.0999  0.6242 -2.4368
 1147TIP3    H224857   2.055   3.951   2.789  1.4972 -3.0089  1.1706
 1148TIP3   OH224858   3.091   2.499  13.976 -0.1005  0.0422  0.1238
 1148TIP3    H124859   3.059   2.434  13.913  1.0668 -1.1224  0.6682
 1148TIP3    H224860   3.167   2.539  13.933  0.0487  0.0077  0.3492
 1149TIP3   OH224861   6.168   6.049  14.098 -0.1481  0.1632  0.4902
 1149TIP3    H124862   6.262   6.069  14.093 -0.0244 -0.6750 -1.8360
 1149TIP3    H224863   6.139   6.049  14.007 -2.2238 -0.5370  1.1011
 1150TIP3   OH224864   2.816   5.229  14.624 -0.0996 -0.2434 -0.0782
 1150TIP3    H124865   2.876   5.155  14.619  0.0246 -0.0616 -1.8968
 1150TIP3    H224866   2.831   5.278  14.542 -0.4173  1.6018  0.9047
 1151TIP3   OH224867   1.011   2.975   4.726  0.0541  0.2989  0.1257
 1151TIP3    H124868   0.936   3.033   4.710 -0.4602  0.3437  2.4275
 1151TIP3    H224869   1.019   2.972   4.821  2.5117 -0.3513 -0.0457
 1152TIP3   OH224870   6.617   4.635   5.926  0.2223  0.3269  0.2327
 1152TIP3    H124871   6.576   4.712   5.887 -1.9802 -1.1597 -0.5977
 1152TIP3    H224872   6.686   4.612   5.864 -1.1195 -0.1081 -1.1867
 1153TIP3   OH224873   3.013   6.406   1.697  0.6655  0.0958 -0.2303
 1153TIP3    H124874   3.003   6.366   1.611 -0.2961 -1.3538  0.5168
 1153TIP3    H224875   3.096   6.372   1.729 -0.5208 -2.1065  0.7394
 1154TIP3   OH224876   1.560   4.075   6.580  0.0675 -0.2500 -0.2566
 1154TIP3    H124877   1.634   4.073   6.520  0.0064 -1.6534 -0.3221
 1154TIP3    H224878   1.596   4.113   6.661  0.7166 -0.4161 -0.4591
 1155TIP3   OH224879   1.692   5.666  15.636  0.4827  0.0153 -0.5510
 1155TIP3    H124880   1.653   5.737  15.687  0.2213 -1.7292  1.8154
 1155TIP3    H224881   1.700   5.702  15.547 -1.9127  2.1212 -0.0129
 1156TIP3   OH224882   5.725   5.067   2.129  0.3587  0.3584  0.2839
 1156TIP3    H124883   5.671   5.082   2.207 -2.5721  4.0577 -2.1055
 1156TIP3    H224884   5.774   5.148   2.118  0.6786 -0.0560 -1.7440
 1157TIP3   OH224885   3.779   0.946   0.672 -0.0393 -0.6459  0.4980
 1157TIP3    H124886   3.788   0.974   0.581  1.0318 -2.2018  0.0769
 1157TIP3    H224887   3.685   0.937   0.686 -0.4175  2.4486  0.5079
 1158TIP3   OH224888   0.948   0.804  16.098  0.0425 -0.0685  0.1097
 1158TIP3    H124889   0.910   0.723  16.063  0.6648 -0.2748 -0.0867
 1158TIP3    H224890   0.972   0.855  16.021 -1.2078  0.7375  0.2058
 1159TIP3   OH224891   2.392   2.777  15.861  0.6213  0.0268 -0.0392
 1159TIP3    H124892   2.318   2.805  15.915  1.3508 -0.1070  1.0706
 1159TIP3    H224893   2.353   2.716  15.798 -0.1721 -0.2986  0.7356
 1160TIP3   OH224894   0.524   6.206  11.961  0.0594 -0.8595 -0.1847
 1160TIP3    H124895   0.597   6.268  11.961 -0.9979  0.4393 -0.5430
 1160TIP3    H224896   0.565   6.120  11.957  1.7150 -0.4033  3.3625
 1161TIP3   OH224897   2.293   5.394   3.779  0.5965  1.0820  0.0218
 1161TIP3    H124898   2.370   5.384   3.835  0.7051  2.1281  0.0878
 1161TIP3    H224899   2.248   5.470   3.816 -0.6027  0.3318  0.1274
 1162TIP3   OH224900   3.223   6.380  11.757  0.2243 -0.1770  0.4147
 1162TIP3    H124901   3.295   6.422  11.803 -0.6230  1.1308  0.6328
 1162TIP3    H224902   3.258   6.357  11.672  0.6188  1.4858  0.0935
 1163TIP3   OH224903   5.335   6.526   4.677  0.2633 -0.6880  0.1544
 1163TIP3    H124904   5.360   6.437   4.703 -0.7419 -1.6180 -1.8278
 1163TIP3    H224905   5.253   6.514   4.629  0.2242  1.3019 -0.3569
 1164TIP3   OH224906   6.662   1.897   6.501 -0.6720  0.2532  0.0818
 1164TIP3    H124907   6.636   1.873   6.412  0.5223  0.1003 -0.2409
 1164TIP3    H224908   6.591   1.954   6.532  0.6019  3.4660 -2.3492
 1165TIP3   OH224909   5.538   1.531  14.832  0.3645  0.3006 -0.0669
 1165TIP3    H124910   5.573   1.578  14.756 -0.7391 -0.4697 -1.1061
 1165TIP3    H224911   5.588   1.449  14.835  0.3479  0.2923 -0.0213
 1166TIP3   OH224912   1.395   0.834   1.097  0.6537 -0.2817  0.2048
 1166TIP3    H124913   1.364   0.744   1.095 -1.7230  0.4688 -0.7588
 1166TIP3    H224914   1.413   0.855   1.005 -0.8546  0.8136  0.1211
 1167TIP3   OH224915   1.734   4.145   1.180 -0.2715 -0.5853  0.1436
 1167TIP3    H124916   1.661   4.083   1.173  1.7570 -3.0386 -0.7203
 1167TIP3    H224917   1.797   4.115   1.114  1.6417  1.2853  1.0076
 1168TIP3   OH224918   3.325   4.620  12.326  0.4272 -0.0824 -0.1791
 1168TIP3    H124919   3.319   4.539  12.276  0.4691 -0.1653 -0.0489
 1168TIP3    H224920   3.247   4.670  12.300  0.1996 -0.3268  0.0278
 1169TIP3   OH224921   5.432   6.648  16.973  0.3071  0.1206 -0.3077
 1169TIP3    H124922   5.404   6.732  16.936  0.0271  0.3116  0.3267
 1169TIP3    H224923   5.382   6.583  16.923  1.6713  0.2065 -1.8762
 1170TIP3   OH224924   6.326   0.942  16.654 -0.1118 -0.0863  0.1032
 1170TIP3    H124925   6.400   0.981  16.702  0.0448  1.1501 -1.0916
 1170TIP3    H224926   6.368   0.879  16.595  0.1231  1.3072 -1.2648
 1171TIP3   OH224927   5.747   4.332  12.326  0.0673  0.0571  0.4860
 1171TIP3    H124928   5.732   4.279  12.248  0.2011  1.9781 -0.9209
 1171TIP3    H224929   5.841   4.349  12.326 -0.3808  3.7489 -1.6356
 1172TIP3   OH224930   5.796   2.764   2.792  0.0350  0.5437  0.5894
 1172TIP3    H124931   5.790   2.721   2.877  1.1547  1.8404  1.3629
 1172TIP3    H224932   5.707   2.794   2.773 -0.0787  0.9592  1.7084
 1173TIP3   OH224933   3.707   1.376  16.202  0.1755 -0.2785 -0.5509
 1173TIP3    H124934   3.717   1.460  16.246 -0.7466 -0.5676  0.2569
 1173TIP3    H224935   3.738   1.311  16.266 -0.3798 -0.6430 -0.6402
 1174TIP3   OH224936   1.487   2.060  14.851  0.1634  0.1464  0.1962
 1174TIP3    H124937   1.532   2.062  14.767 -2.3449  0.4585 -1.2409
 1174TIP3    H224938   1.426   2.133  14.847 -1.6424 -1.2174  1.2985
 1175TIP3   OH224939   1.874   2.482  14.882 -0.1125 -0.2077 -0.1080
 1175TIP3    H124940   1.799   2.430  14.909  0.1530 -0.6228 -0.1648
 1175TIP3    H224941   1.918   2.505  14.964 -1.3707  1.7083  0.1046
 1176TIP3   OH224942   5.861   3.446   4.210 -0.1468 -0.5837 -0.0590
 1176TIP3    H124943   5.952   3.419   4.213 -0.0530 -0.4733 -1.4001
 1176TIP3    H224944   5.834   3.450   4.302  1.2329 -0.4730  0.3593
 1177TIP3   OH224945   3.824   5.538   3.809 -0.0784  0.0352  0.6849
 1177TIP3    H124946   3.776   5.483   3.747  0.6386 -0.9801  1.0008
 1177TIP3    H224947   3.901   5.567   3.760 -0.1054  0.1924  0.7359
 1178TIP3   OH224948   3.499   2.984  14.796 -0.3843 -0.4213 -0.1577
 1178TIP3    H124949   3.473   3.017  14.710  1.9171 -1.6062 -1.4163
 1178TIP3    H224950   3.455   3.042  14.859 -2.3190  0.3353 -2.0965
 1179TIP3   OH224951   5.789   5.975   5.758 -0.2277  0.3290  0.3057
 1179TIP3    H124952   5.707   5.930   5.776 -0.2952  0.1268 -0.4698
 1179TIP3    H224953   5.849   5.907   5.727  0.7070  0.2202  2.2295
 1180TIP3   OH224954   3.581   1.586  13.695 -0.7825 -0.4607 -0.1112
 1180TIP3    H124955   3.672   1.613  13.678 -0.9952 -0.3128 -1.0769
 1180TIP3    H224956   3.573   1.500  13.654 -0.7341 -1.0460  1.0654
 1181TIP3   OH224957   5.488   4.478  14.974  0.3736  0.2826 -0.2111
 1181TIP3    H124958   5.457   4.479  15.065  0.9338  0.1147 -0.0131
 1181TIP3    H224959   5.426   4.534  14.927 -1.0831 -1.1568 -0.1087
 1182TIP3   OH224960   2.967   4.479   3.759 -0.5415  0.2420  0.0376
 1182TIP3    H124961   2.959   4.566   3.799 -3.6283 -0.5468  1.4039
 1182TIP3    H224962   2.969   4.496   3.665  0.1960  1.8227  0.3058
 1183TIP3   OH224963   3.334   6.293  14.724  0.3134 -0.2617 -0.1396
 1183TIP3    H124964   3.421   6.268  14.755 -0.0401 -0.1787  0.9273
 1183TIP3    H224965   3.331   6.388  14.737  0.5780 -0.0321 -1.5181
 1184TIP3   OH224966   0.173   2.628  13.929  0.3922 -0.4131 -0.2399
 1184TIP3    H124967   0.131   2.547  13.900 -0.3472  0.1017 -0.6606
 1184TIP3    H224968   0.197   2.611  14.020  0.4094 -1.1615 -0.3742
 1185TIP3   OH224969   5.412   1.310  16.381  0.0605 -0.2092 -0.2995
 1185TIP3    H124970   5.441   1.350  16.463 -1.2354  1.3162 -0.5395
 1185TIP3    H224971   5.399   1.384  16.322  0.1481 -1.2219 -1.6200
 1186TIP3   OH224972   0.953   4.784   5.392  0.7091 -0.0542  0.4242
 1186TIP3    H124973   0.985   4.696   5.414 -0.9536 -1.0479 -0.8400
 1186TIP3    H224974   0.863   4.769   5.363  0.0426  2.2292  1.1566
 1187TIP3   OH224975   4.995   4.021  15.663  0.1193  0.4376  0.1327
 1187TIP3    H124976   4.995   3.931  15.697  0.2507  0.8098  1.1313
 1187TIP3    H224977   4.982   4.010  15.569  2.2101 -0.7404 -0.0733
 1188TIP3   OH224978   5.261   1.258   2.284 -0.8013  0.5883 -0.0476
 1188TIP3    H124979   5.195   1.190   2.278 -0.5781  0.4303 -0.7985
 1188TIP3    H224980   5.217   1.337   2.251 -0.9079  0.7091  0.3671
 1189TIP3   OH224981   4.387   3.098  12.963 -0.3797 -0.5002 -0.1358
 1189TIP3    H124982   4.449   3.171  12.964 -0.0823 -0.7137  2.3252
 1189TIP3    H224983   4.311   3.133  12.916  0.0144  1.1824  0.4099
 1190TIP3   OH224984   4.236   5.034   2.830 -0.1010 -0.2600 -0.3654
 1190TIP3    H124985   4.218   5.060   2.739 -2.0184  1.2033  0.3490
 1190TIP3    H224986   4.168   4.969   2.849 -1.1452  1.0639  0.6429
 1191TIP3   OH224987   3.193   2.259   3.352 -0.6421  0.1277  0.6206
 1191TIP3    H124988   3.157   2.341   3.316 -1.3301  0.0718  1.1676
 1191TIP3    H224989   3.210   2.205   3.275 -0.7226  0.5667  0.2900
 1192TIP3   OH224990   1.473   4.139   5.885  0.2975  0.4847 -0.3347
 1192TIP3    H124991   1.537   4.075   5.918  0.4425 -0.2178 -1.8875
 1192TIP3    H224992   1.435   4.178   5.964  1.3338 -0.3981  0.6334
 1193TIP3   OH224993   4.328   0.844   6.420  0.2668  0.9755 -0.2588
 1193TIP3    H124994   4.354   0.756   6.448  0.2390  1.1043  0.1838
 1193TIP3    H224995   4.291   0.884   6.499 -1.3157  0.7856 -0.8600
 1194TIP3   OH224996   4.490   3.944   3.474 -0.0144  0.5705  0.0432
 1194TIP3    H124997   4.418   3.947   3.411 -0.7089  2.1909  0.8659
 1194TIP3    H224998   4.543   4.021   3.453 -0.2154  1.0910  1.3520
 1195TIP3   OH224999   4.549   4.187   3.938  0.4339 -0.6413 -0.0635
 1195TIP3    H125000   4.561   4.263   3.995 -0.9970 -0.3694 -0.0856
 1195TIP3    H225001   4.513   4.119   3.996  0.0982 -0.7416 -0.3840
 1196TIP3   OH225002   2.100   0.565   4.330 -0.3667  0.7841 -0.4601
 1196TIP3    H125003   2.046   0.640   4.305 -1.0937  0.5662  0.4028
 1196TIP3    H225004   2.114   0.576   4.424 -0.8693 -0.3959 -0.2243
 1197TIP3   OH225005   5.449   2.930   2.020  0.8485 -0.1428 -0.1029
 1197TIP3    H125006   5.442   2.949   2.114 -1.0767 -1.4429  0.0920
 1197TIP3    H225007   5.450   2.834   2.016 -0.2868 -0.1248 -1.4414
 1198TIP3   OH225008   1.175   3.060  12.408 -0.2164  0.4063  0.0841
 1198TIP3    H125009   1.167   3.155  12.401  2.7557  0.6368 -1.4778
 1198TIP3    H225010   1.086   3.028  12.391 -1.8695  2.8755  2.9463
 1199TIP3   OH225011   0.967   3.478  14.928  0.0711  0.6738 -0.0706
 1199TIP3    H125012   0.954   3.572  14.942  2.0520  0.7200  2.0624
 1199TIP3    H225013   1.032   3.473  14.858  0.0293  0.8953 -0.1254
 1200TIP3   OH225014   1.311   6.603  12.634  0.5666 -0.0968 -0.7377
 1200TIP3    H125015   1.311   6.696  12.611  0.2289  0.1050  0.0456
 1200TIP3    H225016   1.360   6.599  12.716  0.0461 -0.5238 -0.4422
 1201TIP3   OH225017   5.864   4.174  11.902 -0.3122 -0.0735  0.3771
 1201TIP3    H125018   5.931   4.115  11.936  1.0975  0.6487 -1.0168
 1201TIP3    H225019   5.826   4.127  11.827  0.6554  0.6598 -0.5955
 1202TIP3   OH225020   0.234   0.427   3.581 -0.4882  0.0639 -0.5266
 1202TIP3    H125021   0.263   0.344   3.618  1.7186  0.8204 -0.3766
 1202TIP3    H225022   0.248   0.418   3.487 -0.2855  0.2354 -0.5144
 1203TIP3   OH225023   0.492   0.915  15.194  0.3586  0.6383  0.5430
 1203TIP3    H125024   0.579   0.931  15.230  0.7709 -0.0585 -0.1168
 1203TIP3    H225025   0.506   0.852  15.123 -0.8063 -0.2088  1.0290
 1204TIP3   OH225026   3.460   6.224  15.069  0.6279  0.2646 -0.4316
 1204TIP3    H125027   3.407   6.268  15.135  0.3020  0.8085 -1.0537
 1204TIP3    H225028   3.446   6.131  15.085  1.5799  0.3483  1.1044
 1205TIP3   OH225029   0.234   4.174  16.057 -0.7798 -0.5782 -0.4949
 1205TIP3    H125030   0.217   4.084  16.081  2.2062 -1.3879 -0.9858
 1205TIP3    H225031   0.248   4.172  15.962  1.0510  0.0165 -0.2811
 1206TIP3   OH225032   0.887   4.022  11.820 -0.0116 -0.3083 -0.5255
 1206TIP3    H125033   0.849   4.024  11.732  1.1102  0.8495 -1.0288
 1206TIP3    H225034   0.961   3.962  11.812 -0.1074 -0.4573 -0.2844
 1207TIP3   OH225035   0.413   1.591  14.001  0.2909  0.1704  0.2222
 1207TIP3    H125036   0.345   1.644  13.959 -0.3673  0.2324  1.3354
 1207TIP3    H225037   0.491   1.648  14.001  0.4531 -0.0062 -1.3172
 1208TIP3   OH225038   1.382   4.205  13.879 -0.2139  0.2620  0.9141
 1208TIP3    H125039   1.446   4.277  13.878 -0.0603  0.1929  2.7861
 1208TIP3    H225040   1.404   4.153  13.802  0.4109  1.5843  0.1526
 1209TIP3   OH225041   2.187   5.892  13.408  0.5315 -0.4029  0.7088
 1209TIP3    H125042   2.171   5.907  13.501 -1.8216  0.1744  0.2665
 1209TIP3    H225043   2.280   5.871  13.403  0.8009 -0.0580  3.1316
 1210TIP3   OH225044   5.875   5.180  10.927 -0.1713  0.2105  0.0784
 1210TIP3    H125045   5.912   5.222  10.850 -0.6484  0.5944  0.0508
 1210TIP3    H225046   5.786   5.157  10.902 -0.0611 -0.4170  0.2454
 1211TIP3   OH225047   1.698   5.833   0.909 -0.3402 -0.1767  0.6136
 1211TIP3    H125048   1.706   5.794   0.996  0.9758 -0.1344  0.5445
 1211TIP3    H225049   1.690   5.927   0.925  0.9965 -0.0536  0.6909
 1212TIP3   OH225050   2.207   4.058   4.463  0.0674 -0.6064 -0.4906
 1212TIP3    H125051   2.247   4.137   4.498  1.4214 -0.7009 -1.7674
 1212TIP3    H225052   2.213   3.994   4.535  2.0760 -0.5570 -0.5590
 1213TIP3   OH225053   6.525   3.231  12.046 -0.2316  0.6145  0.2797
 1213TIP3    H125054   6.589   3.221  11.976  0.2750  0.8270  0.7040
 1213TIP3    H225055   6.492   3.143  12.061  0.8182  0.3056  0.8464
 1214TIP3   OH225056   4.222   2.936  13.346  0.2966  0.2979 -0.2392
 1214TIP3    H125057   4.248   3.019  13.307  0.3552 -1.0436 -3.3516
 1214TIP3    H225058   4.300   2.905  13.392  0.5162  1.5312  0.2643
 1215TIP3   OH225059   3.148   1.738  17.217  0.0178  0.4033 -0.1952
 1215TIP3    H125060   3.197   1.665  17.180  2.8788  1.5130  1.0910
 1215TIP3    H225061   3.195   1.816  17.187 -0.4758  1.5238  1.7421
 1216TIP3   OH225062   3.576   4.171   0.509 -0.7561 -0.1147 -0.1759
 1216TIP3    H125063   3.521   4.163   0.431 -1.4308 -2.3535  0.4567
 1216TIP3    H225064   3.587   4.081   0.540 -0.1503  0.6680  2.0729
 1217TIP3   OH225065   4.400   2.067  14.876  0.8997 -0.1521  0.0147
 1217TIP3    H125066   4.325   2.023  14.836  0.2363  0.2206  0.8295
 1217TIP3    H225067   4.395   2.045  14.969  1.0000  0.9896  0.3065
 1218TIP3   OH225068   6.166   5.051   4.516 -0.3817  0.0946  0.1897
 1218TIP3    H125069   6.150   5.002   4.596  0.4271 -0.7505 -0.1407
 1218TIP3    H225070   6.169   5.142   4.543  2.2534 -0.2967  1.5970
 1219TIP3   OH225071   3.909   1.464  16.889  0.4934 -0.1545 -0.4967
 1219TIP3    H125072   3.903   1.369  16.891  1.6890 -0.2634 -1.2217
 1219TIP3    H225073   3.941   1.485  16.801 -1.6453  1.0592 -1.0670
 1220TIP3   OH225074   6.123   3.927   1.413  0.2625 -0.3131 -0.3987
 1220TIP3    H125075   6.133   3.846   1.363  0.8407 -0.6388  0.2184
 1220TIP3    H225076   6.180   3.990   1.369 -0.9708  0.0774 -1.4967
 1221TIP3   OH225077   1.772   2.590  12.129 -0.0549 -0.2432 -0.4850
 1221TIP3    H125078   1.701   2.615  12.188 -0.9066 -2.9445 -0.2405
 1221TIP3    H225079   1.751   2.634  12.047  0.4202  2.4959  0.7308
 1222TIP3   OH225080   3.909   6.663   5.205 -0.2321  0.3708 -0.1034
 1222TIP3    H125081   3.986   6.714   5.180  0.2261  0.5816  1.5917
 1222TIP3    H225082   3.944   6.587   5.251 -0.9262 -1.3887 -2.3182
 1223TIP3   OH225083   0.337   5.262   4.925  0.1424 -0.4530 -0.0949
 1223TIP3    H125084   0.324   5.356   4.911 -0.3445 -0.6174 -0.8095
 1223TIP3    H225085   0.260   5.236   4.976  1.2359 -0.1153  1.8174
 1224TIP3   OH225086   5.843   3.140   3.867  0.1593 -0.0736  0.0819
 1224TIP3    H125087   5.799   3.158   3.950 -0.6796  0.0569 -0.3786
 1224TIP3    H225088   5.772   3.118   3.806  0.7563 -0.1391 -0.6075
 1225TIP3   OH225089   0.107   2.660   5.521 -0.7740 -0.5619  0.0857
 1225TIP3    H125090   0.198   2.646   5.493 -0.8222 -1.7240  0.4648
 1225TIP3    H225091   0.072   2.572   5.535 -2.3776 -0.1905 -1.2846
 1226TIP3   OH225092   0.923   5.170   0.107 -0.3238  0.0165  0.4175
 1226TIP3    H125093   0.975   5.106   0.155  3.5701  1.8245 -0.9974
 1226TIP3    H225094   0.908   5.241   0.170 -1.4730 -0.6416  0.9187
 1227TIP3   OH225095   5.043   5.241   3.472 -0.1567 -0.5337  0.1140
 1227TIP3    H125096   5.130   5.209   3.447 -0.1926  0.1882 -1.0089
 1227TIP3    H225097   5.053   5.336   3.477 -0.5312 -0.5350  1.4698
 1228TIP3   OH225098   0.063   0.226   2.617 -0.3283  0.4690 -0.6181
 1228TIP3    H125099   0.105   0.167   2.554 -0.0025  0.8066 -0.7281
 1228TIP3    H225100   0.134   0.250   2.677 -0.6366  0.1595 -0.1322
 1229TIP3   OH225101   3.501   2.358   6.158  0.3802  0.2745 -0.0416
 1229TIP3    H125102   3.521   2.446   6.190  0.6276 -0.0889  0.8361
 1229TIP3    H225103   3.548   2.351   6.075  2.7494 -0.0167  1.2505
 1230TIP3   OH225104   2.557   3.340   5.597  0.3928 -0.2874  0.0369
 1230TIP3    H125105   2.469   3.310   5.620  0.8287 -1.6147  0.0561
 1230TIP3    H225106   2.613   3.302   5.665  1.1064 -0.3098 -0.5539
 1231TIP3   OH225107   0.925   5.499   5.402 -0.3575  0.1009 -0.0326
 1231TIP3    H125108   0.929   5.530   5.493 -2.0040 -3.1617  1.3264
 1231TIP3    H225109   1.016   5.484   5.378  0.0992  0.7580  1.1824
 1232TIP3   OH225110   3.858   1.667  12.322 -0.3210 -0.2294  0.2160
 1232TIP3    H125111   3.857   1.718  12.403 -0.9448  1.2783 -0.7015
 1232TIP3    H225112   3.936   1.698  12.276  0.8691 -2.1452  0.8489
 1233TIP3   OH225113   6.178   5.374  12.674  0.3783 -0.3322 -0.0220
 1233TIP3    H125114   6.142   5.370  12.763  1.9625  1.6292  0.8133
 1233TIP3    H225115   6.175   5.467  12.652 -1.7371 -0.9630 -2.8801
 1234TIP3   OH225116   2.050   1.328  14.798 -0.1902 -0.0758  0.2735
 1234TIP3    H125117   2.145   1.324  14.799 -0.2140 -1.5378 -0.5637
 1234TIP3    H225118   2.027   1.339  14.706 -0.8342  1.6651  0.5848
 1235TIP3   OH225119   0.108   2.509   2.449 -0.0306  0.0048 -0.3104
 1235TIP3    H125120   0.017   2.507   2.479 -0.7006  1.0318 -2.1203
 1235TIP3    H225121   0.116   2.593   2.402  1.7448 -0.2344 -0.5038
 1236TIP3   OH225122   1.171   4.167  11.125 -0.1366  0.3537 -0.3022
 1236TIP3    H125123   1.253   4.118  11.128 -0.2240  0.1842 -0.6088
 1236TIP3    H225124   1.155   4.179  11.031 -1.3303 -1.0756 -0.3117
 1237TIP3   OH225125   0.515   6.529  12.246 -0.4789 -0.3725 -0.0559
 1237TIP3    H125126   0.579   6.596  12.222 -0.1568 -0.3009  0.9572
 1237TIP3    H225127   0.453   6.528  12.173 -1.4437  2.2048  0.6481
 1238TIP3   OH225128   0.347   1.099   5.397  0.2988 -0.4654  0.7248
 1238TIP3    H125129   0.263   1.135   5.427 -0.2366  0.4418 -1.6759
 1238TIP3    H225130   0.412   1.159   5.433 -0.5006  2.3403 -2.0854
 1239TIP3   OH225131   4.277   6.208   3.445 -0.0510  0.0358  0.2104
 1239TIP3    H125132   4.276   6.275   3.514  1.8331 -0.0600  0.3658
 1239TIP3    H225133   4.281   6.125   3.493 -0.3148 -0.1140 -0.0185
 1240TIP3   OH225134   3.765   6.572   3.035 -0.2654 -0.2247  0.2859
 1240TIP3    H125135   3.731   6.655   3.068 -1.0254 -0.5994  0.4686
 1240TIP3    H225136   3.836   6.549   3.094 -0.4067  0.0336  0.5554
 1241TIP3   OH225137   0.594   3.102   5.860  1.1944 -0.4407 -0.3722
 1241TIP3    H125138   0.608   3.148   5.777 -0.8206  0.5784 -0.2230
 1241TIP3    H225139   0.637   3.157   5.926  0.8668 -0.0344 -0.4889
 1242TIP3   OH225140   4.996   3.918   3.647  0.1364  0.3575  0.5025
 1242TIP3    H125141   4.926   3.917   3.582 -0.5296  2.9802  1.0507
 1242TIP3    H225142   4.980   3.998   3.697  2.2715 -0.1229  2.0691
 1243TIP3   OH225143   6.503   2.141   3.359 -0.0720 -0.3770  0.3518
 1243TIP3    H125144   6.447   2.076   3.316  2.5765 -2.3395 -0.4072
 1243TIP3    H225145   6.492   2.125   3.453 -0.7055 -0.7890  0.2063
 1244TIP3   OH225146   4.797   4.894   0.390  0.3191  0.0558  0.0537
 1244TIP3    H125147   4.788   4.967   0.451 -3.4538 -1.8404  2.1638
 1244TIP3    H225148   4.709   4.882   0.354  1.2231 -2.2809 -1.6330
 1245TIP3   OH225149   1.021   6.309   5.290 -0.6907 -0.3660  0.0312
 1245TIP3    H125150   0.984   6.291   5.203 -0.6951  1.5260 -0.4022
 1245TIP3    H225151   0.948   6.293   5.351 -0.9539 -0.8359 -0.3995
 1246TIP3   OH225152   3.787   6.424   0.474 -0.0865 -0.0077  0.1287
 1246TIP3    H125153   3.851   6.449   0.541 -2.1254  0.1742  2.1303
 1246TIP3    H225154   3.795   6.328   0.468 -1.1231 -0.2807  2.0970
 1247TIP3   OH225155   1.604   5.111   0.474 -0.0527  0.0178 -0.4545
 1247TIP3    H125156   1.630   5.175   0.541 -2.8345  0.4101  0.3923
 1247TIP3    H225157   1.592   5.163   0.394  0.7042  0.0057 -0.5784
 1248TIP3   OH225158   0.769   0.725   4.079 -0.5201 -0.0244 -0.0313
 1248TIP3    H125159   0.726   0.660   4.135 -0.9553 -1.6372 -2.1122
 1248TIP3    H225160   0.700   0.754   4.019 -0.3631  2.5345  0.9138
 1249TIP3   OH225161   4.973   3.042   0.453 -0.2658 -0.7340  0.4667
 1249TIP3    H125162   5.049   2.996   0.487 -0.2031 -1.6631 -0.8537
 1249TIP3    H225163   4.966   3.014   0.361 -1.7871 -0.1513  0.3611
 1250TIP3   OH225164   3.787   3.154   4.086  0.6269 -0.2565 -0.2227
 1250TIP3    H125165   3.847   3.186   4.018  0.2378 -0.3133 -0.5944
 1250TIP3    H225166   3.839   3.156   4.166  1.1581 -0.3997 -0.5603
 1251TIP3   OH225167   1.764   1.967  11.924  0.3993 -0.3537 -0.9458
 1251TIP3    H125168   1.719   2.046  11.894 -0.1343  0.0456  0.7482
 1251TIP3    H225169   1.700   1.897  11.912 -0.0074 -0.1075 -0.2976
 1252TIP3   OH225170   3.924   4.202   2.453  0.0225 -0.1274 -0.2088
 1252TIP3    H125171   3.988   4.255   2.500  1.0705 -0.2098 -1.4697
 1252TIP3    H225172   3.840   4.244   2.470  0.5886  0.7816  0.3966
 1253TIP3   OH225173   6.609   0.331   4.855  0.1540  0.2008 -0.3183
 1253TIP3    H125174   6.538   0.272   4.882  0.7360 -0.6458 -0.6032
 1253TIP3    H225175   6.686   0.275   4.850  0.5772  0.8429 -1.2717
 1254TIP3   OH225176   2.307   4.006  16.121  0.1917  0.3741 -0.3455
 1254TIP3    H125177   2.342   4.051  16.198  0.9133 -0.4996 -0.1577
 1254TIP3    H225178   2.352   3.922  16.119 -1.5874 -0.6243 -0.3463
 1255TIP3   OH225179   2.266   2.873   2.792 -0.0073  0.0557  0.5248
 1255TIP3    H125180   2.314   2.867   2.709 -0.0656  1.5042  0.3463
 1255TIP3    H225181   2.333   2.899   2.856 -0.2755  0.6826  0.5598
 1256TIP3   OH225182   3.505   0.693  12.269  0.5066 -0.2583 -0.2913
 1256TIP3    H125183   3.496   0.608  12.224 -1.0390 -1.5759  2.2561
 1256TIP3    H225184   3.523   0.755  12.198 -1.1964 -2.2462 -2.6699
 1257TIP3   OH225185   5.863   5.269   1.288 -0.2587 -0.2707  0.0631
 1257TIP3    H125186   5.867   5.341   1.352  2.6149 -0.2488  0.0129
 1257TIP3    H225187   5.923   5.203   1.324  0.6632 -0.6829 -2.0801
 1258TIP3   OH225188   5.485   4.661  13.226  0.2988 -0.2646 -0.2462
 1258TIP3    H125189   5.495   4.571  13.195  0.7727  0.1254 -1.2933
 1258TIP3    H225190   5.444   4.707  13.153  3.0894  1.1019 -1.1007
 1259TIP3   OH225191   1.780   3.019  11.885  0.3270 -0.0456  0.3152
 1259TIP3    H125192   1.870   3.023  11.851 -0.1413 -1.5017 -1.2145
 1259TIP3    H225193   1.730   3.073  11.824 -0.3525 -1.8726 -0.8211
 1260TIP3   OH225194   4.920   5.528  15.392  0.0305 -0.6641 -0.3926
 1260TIP3    H125195   4.826   5.543  15.407  0.1302  0.0244 -0.4198
 1260TIP3    H225196   4.956   5.519  15.480 -0.2760 -2.3695 -0.4189
 1261TIP3   OH225197   6.526   6.618  13.242 -0.3893  0.1088 -0.0504
 1261TIP3    H125198   6.617   6.626  13.270 -0.5654  1.4566  0.2204
 1261TIP3    H225199   6.488   6.705  13.258 -1.7775 -0.4772  0.0462
 1262TIP3   OH225200   2.539   0.075  14.404 -0.1512  0.1324  0.4798
 1262TIP3    H125201   2.585  -0.002  14.436  1.0022  1.0722  1.1812
 1262TIP3    H225202   2.487   0.044  14.330  3.6814 -0.5811 -2.2483
 1263TIP3   OH225203   2.032   1.345  14.308  0.0891  0.0812 -0.6814
 1263TIP3    H125204   1.969   1.369  14.239  0.0756  2.1445 -0.0039
 1263TIP3    H225205   2.050   1.427  14.354  0.2070 -1.2048  1.7134
 1264TIP3   OH225206   5.504   1.532   3.699 -0.6373  0.2183 -0.3140
 1264TIP3    H125207   5.553   1.561   3.777 -0.2671 -1.3225  0.0646
 1264TIP3    H225208   5.463   1.612   3.666  1.1393  1.3564  0.0692
 1265TIP3   OH225209   0.653   6.477   1.807  0.2804  0.4725 -0.4600
 1265TIP3    H125210   0.606   6.538   1.749 -1.8452 -0.2286  0.4379
 1265TIP3    H225211   0.667   6.400   1.753  1.0045  0.9208 -0.9303
 1266TIP3   OH225212   1.039   5.978  12.299 -0.2916  0.4210 -0.5379
 1266TIP3    H125213   1.007   5.887  12.301 -0.0072  0.3225  0.5415
 1266TIP3    H225214   0.972   6.026  12.348 -0.4991  0.8138 -1.2117
 1267TIP3   OH225215   4.877   2.245  14.971  0.1851 -0.4571 -0.4299
 1267TIP3    H125216   4.795   2.210  14.936  0.1697 -1.0291  0.1596
 1267TIP3    H225217   4.932   2.168  14.985  0.1321 -0.2735  0.9375
 1268TIP3   OH225218   4.260   5.098   1.506  0.0449 -0.1780  0.0027
 1268TIP3    H125219   4.290   5.166   1.444  0.1870  1.3975  1.6974
 1268TIP3    H225220   4.338   5.045   1.521  0.7526  1.0315  0.7887
 1269TIP3   OH225221   0.783   1.464   1.037 -0.0595  0.1123 -0.0358
 1269TIP3    H125222   0.789   1.373   1.065  0.9585  0.7971  2.2160
 1269TIP3    H225223   0.696   1.492   1.065 -0.5711 -0.2723 -1.1843
 1270TIP3   OH225224   4.001   3.322  14.011  0.0282  0.5968 -0.5042
 1270TIP3    H125225   3.952   3.268  14.073 -1.7801  1.5687 -0.9982
 1270TIP3    H225226   4.076   3.354  14.060 -0.8585  0.5838  0.9088
 1271TIP3   OH225227   4.838   5.803  16.247  0.1340 -0.2540  0.2361
 1271TIP3    H125228   4.851   5.727  16.304  2.2728 -0.2795 -0.1983
 1271TIP3    H225229   4.903   5.793  16.178 -1.6975  0.3255 -1.6691
 1272TIP3   OH225230   5.569   5.220  15.970  0.3345  0.0802  0.0587
 1272TIP3    H125231   5.662   5.206  15.952  0.2887 -1.6271  0.9538
 1272TIP3    H225232   5.567   5.268  16.052  0.4348 -0.0975  0.1654
 1273TIP3   OH225233   0.482   0.314   6.564  0.5267 -0.1297 -0.4096
 1273TIP3    H125234   0.440   0.339   6.482 -0.1553 -0.5630 -0.1974
 1273TIP3    H225235   0.410   0.301   6.625  0.8408 -2.5772 -0.4824
 1274TIP3   OH225236   3.510   1.156  14.649 -0.1815 -0.5373  0.2337
 1274TIP3    H125237   3.417   1.159  14.670 -0.0628 -0.3165  0.7450
 1274TIP3    H225238   3.552   1.209  14.718  0.0738  1.4430 -1.3391
 1275TIP3   OH225239   0.799   0.791   0.585  0.4403 -0.6741 -0.4311
 1275TIP3    H125240   0.876   0.814   0.532 -0.2696 -0.7115 -1.5222
 1275TIP3    H225241   0.731   0.773   0.520 -0.5255 -0.5074  0.5177
 1276TIP3   OH225242   4.896   5.648  17.019  0.3477  0.4113 -0.1118
 1276TIP3    H125243   4.815   5.597  17.017  1.0693 -0.7558 -0.2799
 1276TIP3    H225244   4.874   5.730  16.976 -0.1764 -0.7598 -2.2030
 1277TIP3   OH225245   4.815   2.360  14.496  0.5208  0.0115  0.2266
 1277TIP3    H125246   4.779   2.439  14.456  1.1595  0.0606 -0.2796
 1277TIP3    H225247   4.838   2.304  14.422 -1.1121 -1.2212  0.5852
 1278TIP3   OH225248   0.716   6.550  17.286 -0.1751 -0.1952  0.3584
 1278TIP3    H125249   0.729   6.457  17.269 -1.0248 -0.2338 -0.1989
 1278TIP3    H225250   0.793   6.592  17.249 -0.9155 -0.4852 -1.6785
 1279TIP3   OH225251   6.619   0.349   0.778  0.8887  0.0524  0.1788
 1279TIP3    H125252   6.666   0.266   0.789  1.5055  0.7084  3.4268
 1279TIP3    H225253   6.682   0.406   0.734  1.3860 -0.4358  0.2412
 1280TIP3   OH225254   3.314   1.038  13.929 -0.1222  0.5912 -0.6223
 1280TIP3    H125255   3.281   1.114  13.881  0.1529  1.7378  0.9327
 1280TIP3    H225256   3.240   1.008  13.982 -0.0397  0.1590 -0.7442
 1281TIP3   OH225257   6.119   1.386   3.990  0.0492  0.5156  0.2669
 1281TIP3    H125258   6.173   1.419   4.062 -0.8309  1.2283  0.6195
 1281TIP3    H225259   6.092   1.298   4.019  0.7099  0.2988  0.2444
 1282TIP3   OH225260   0.191   2.594   4.350 -0.0059  0.3176  0.2330
 1282TIP3    H125261   0.108   2.555   4.322  0.4413 -0.0213 -0.6913
 1282TIP3    H225262   0.178   2.688   4.339  0.4520  0.1671 -2.1450
 1283TIP3   OH225263   6.153   0.050  14.019 -0.6963  0.3886  0.8316
 1283TIP3    H125264   6.232   0.068  14.070  0.5579 -5.9163  1.9759
 1283TIP3    H225265   6.082   0.055  14.082  0.1232 -2.0544  2.0703
 1284TIP3   OH225266   4.677   4.623  14.175 -0.2528  0.6457 -0.1832
 1284TIP3    H125267   4.739   4.696  14.170  2.2348 -1.2544  0.5709
 1284TIP3    H225268   4.682   4.582  14.088  1.2120 -0.6921  0.4800
 1285TIP3   OH225269   5.720   2.014   4.972 -0.6930  0.2295 -0.6561
 1285TIP3    H125270   5.638   2.012   4.924 -2.0063  0.6350  1.4249
 1285TIP3    H225271   5.743   1.922   4.985 -0.5715  0.1193 -1.5997
 1286TIP3   OH225272   0.530   4.320  13.482  0.5936 -0.9228 -0.4304
 1286TIP3    H125273   0.543   4.283  13.569  2.3000 -1.5477 -0.9133
 1286TIP3    H225274   0.618   4.341  13.451 -0.1987  2.6626 -0.6097
 1287TIP3   OH225275   1.451   0.729  14.120 -0.3405  0.5211  0.0164
 1287TIP3    H125276   1.514   0.783  14.072 -0.5613 -0.5218 -1.5304
 1287TIP3    H225277   1.463   0.641  14.084 -0.5386 -0.3252  1.8982
 1288TIP3   OH225278   6.214   5.230  13.103  0.5677 -0.4701  0.8486
 1288TIP3    H125279   6.231   5.146  13.146  2.7665  0.0979  1.2106
 1288TIP3    H225280   6.276   5.233  13.030 -0.6261  0.1542 -0.1785
 1289TIP3   OH225281   4.850   6.565  17.572  0.3783 -0.0160  0.1284
 1289TIP3    H125282   4.801   6.573  17.653  0.1816 -0.4580  0.0613
 1289TIP3    H225283   4.934   6.528  17.598  0.4709  0.2344  0.1809
 1290TIP3   OH225284   5.353   0.491  16.895 -0.4891 -0.6845 -0.6215
 1290TIP3    H125285   5.359   0.480  16.990  1.5668 -1.4507 -0.7844
 1290TIP3    H225286   5.274   0.442  16.871 -1.1201 -0.3630  0.6958
 1291TIP3   OH225287   1.931   5.340  17.059  0.3003 -0.5840 -0.1182
 1291TIP3    H125288   1.934   5.436  17.068 -0.1446 -0.5585 -0.1770
 1291TIP3    H225289   1.881   5.326  16.979  3.3181 -0.8287 -2.0848
 1292TIP3   OH225290   0.582   2.435  12.993 -0.4646  0.8368  0.1900
 1292TIP3    H125291   0.677   2.440  13.002 -0.3637  0.0299 -0.3016
 1292TIP3    H225292   0.552   2.525  12.999  0.3181  1.0807  0.5264
 1293TIP3   OH225293   0.636   3.516  16.932 -0.0361 -0.1081 -0.1997
 1293TIP3    H125294   0.583   3.440  16.908  2.8480 -1.8331 -1.6776
 1293TIP3    H225295   0.610   3.584  16.870 -1.1865 -0.5823 -0.2518
 1294TIP3   OH225296   0.220   3.393  16.461 -0.6117 -0.0789 -0.1056
 1294TIP3    H125297   0.166   3.413  16.537  0.9538  4.1682  0.1620
 1294TIP3    H225298   0.291   3.338  16.494 -1.3812 -0.4902  0.8872
 1295TIP3   OH225299   5.340   6.033   5.847  0.1436  0.3923 -0.5370
 1295TIP3    H125300   5.399   6.073   5.911  0.2788 -1.5332  0.6222
 1295TIP3    H225301   5.259   6.082   5.856  0.4656  0.7800  0.4477
 1296TIP3   OH225302   1.587   3.532   0.742  0.1509  0.1930 -0.3619
 1296TIP3    H125303   1.657   3.594   0.762  3.0485 -2.5774 -1.0803
 1296TIP3    H225304   1.577   3.536   0.647  3.0085 -2.7914 -0.9457
 1297TIP3   OH225305   0.504   4.151  14.045  0.2030  0.0143  0.0607
 1297TIP3    H125306   0.518   4.194  13.961 -1.4943  2.8165  1.0736
 1297TIP3    H225307   0.409   4.142  14.052 -0.0781  3.0785  2.9779
 1298TIP3   OH225308   5.993   6.422   2.934 -0.2230 -0.3724 -0.3406
 1298TIP3    H125309   5.974   6.500   2.882  0.9639 -0.1025 -0.4031
 1298TIP3    H225310   5.908   6.393   2.966 -0.5682  1.8272  0.9365
 1299TIP3   OH225311   4.484   4.687   1.973 -0.0176  0.1968  0.2455
 1299TIP3    H125312   4.541   4.755   1.937 -1.5959 -0.0643 -3.1175
 1299TIP3    H225313   4.439   4.730   2.046  2.3932  1.2188  1.2465
 1300TIP3   OH225314   0.038   1.343  14.737 -0.1553 -0.3986 -0.5057
 1300TIP3    H125315   0.066   1.279  14.672  1.7366  1.4914 -1.6792
 1300TIP3    H225316   0.033   1.426  14.689  2.1716  1.2697  1.8367
 1301TIP3   OH225317   0.156   6.314  15.351  0.0535  0.0917 -0.2882
 1301TIP3    H125318   0.177   6.365  15.429  0.0197 -0.9456  0.4200
 1301TIP3    H225319   0.178   6.371  15.277  2.3907  0.2094  0.4412
 1302TIP3   OH225320   0.995   2.547  17.175  0.3518  0.3056 -0.7080
 1302TIP3    H125321   0.933   2.586  17.236 -0.0062  0.0621 -0.9139
 1302TIP3    H225322   1.079   2.586  17.198 -0.1099  1.7315 -1.3737
 1303TIP3   OH225323   6.269   1.810  12.965  0.3174  0.2937 -0.0508
 1303TIP3    H125324   6.260   1.737  13.027 -2.4029  0.0770 -0.5938
 1303TIP3    H225325   6.304   1.881  13.019 -0.4042 -0.3711  1.3771
 1304TIP3   OH225326   3.468   3.953   1.448 -0.3795  0.3435 -0.0354
 1304TIP3    H125327   3.449   3.947   1.354  1.9308 -0.5498 -0.5420
 1304TIP3    H225328   3.536   3.886   1.462  0.5883  1.6402  1.8962
 1305TIP3   OH225329   2.123   2.200   0.941  0.0033  0.0750  0.0134
 1305TIP3    H125330   2.101   2.199   0.847  0.2549  3.2801 -0.2119
 1305TIP3    H225331   2.187   2.130   0.951 -0.2346 -0.5443 -2.1491
 1306TIP3   OH225332   5.452   3.789  12.298 -0.5500  0.8252 -0.3653
 1306TIP3    H125333   5.418   3.875  12.321 -1.4117  0.5498 -0.5825
 1306TIP3    H225334   5.472   3.748  12.382 -0.9026  0.9347 -0.2226
 1307TIP3   OH225335   0.514   5.501   6.774  0.8435 -0.0930 -0.1633
 1307TIP3    H125336   0.514   5.419   6.822 -0.7185  0.3996  0.7697
 1307TIP3    H225337   0.444   5.491   6.710  0.5820  0.5230  0.0179
 1308TIP3   OH225338   1.736   0.822   0.189 -0.2119  0.3270  0.4597
 1308TIP3    H125339   1.684   0.746   0.164 -0.8027  0.2032  1.9713
 1308TIP3    H225340   1.805   0.787   0.245 -0.4429  0.8718  1.1037
 1309TIP3   OH225341   2.751   4.153  13.165 -0.2868 -0.1976  0.3159
 1309TIP3    H125342   2.764   4.071  13.118  0.4031  0.5746 -0.8918
 1309TIP3    H225343   2.837   4.174  13.199 -0.7356 -0.6342  1.7882
 1310TIP3   OH225344   1.769   4.338  11.053  0.6705  1.0793 -0.1431
 1310TIP3    H125345   1.829   4.383  11.112  1.3986  0.8262 -0.6683
 1310TIP3    H225346   1.694   4.397  11.045 -0.8938 -0.1980  3.3919
 1311TIP3   OH225347   1.396   2.419  12.567  0.1318  0.3738  0.1658
 1311TIP3    H125348   1.302   2.439  12.571 -0.0938 -0.5199 -0.4626
 1311TIP3    H225349   1.438   2.503  12.549 -0.5334  0.8055  0.5984
 1312TIP3   OH225350   0.765   4.925   4.686  0.0077 -0.0897  0.0211
 1312TIP3    H125351   0.704   4.982   4.639 -0.5339  0.7839  1.7009
 1312TIP3    H225352   0.845   4.978   4.694  0.8221 -0.9884 -1.6025
 1313TIP3   OH225353   6.629   4.937   1.492 -0.4700 -0.2619 -0.0557
 1313TIP3    H125354   6.649   4.908   1.403 -1.0596  0.6921 -0.5155
 1313TIP3    H225355   6.549   4.990   1.483  0.7904  1.8911  0.6515
 1314TIP3   OH225356   2.855   0.452   3.267 -0.2653  0.6437 -0.3778
 1314TIP3    H125357   2.799   0.381   3.237 -0.5686  1.9560 -3.3267
 1314TIP3    H225358   2.799   0.507   3.321 -1.2605  0.8006 -1.5296
 1315TIP3   OH225359   4.465   2.386   1.963 -0.4830  0.0664 -0.1901
 1315TIP3    H125360   4.527   2.381   1.890  1.4063 -1.1066  1.4134
 1315TIP3    H225361   4.384   2.349   1.928  0.6551 -1.3664 -1.4537
 1316TIP3   OH225362   6.304   4.019   3.322 -0.2630  0.1138  0.0787
 1316TIP3    H125363   6.250   4.034   3.400  0.2425 -0.4928  0.5588
 1316TIP3    H225364   6.369   3.953   3.350  1.0044  1.1366 -0.3405
 1317TIP3   OH225365   3.551   5.112  12.618 -0.4654  0.8005  0.2960
 1317TIP3    H125366   3.541   5.091  12.525 -0.8403 -0.7980  0.6693
 1317TIP3    H225367   3.494   5.188  12.632 -0.1731  1.2389 -0.8292
 1318TIP3   OH225368   5.017   3.305  16.122  0.2745  0.2301  0.0425
 1318TIP3    H125369   4.942   3.317  16.181  0.5323  0.7845  0.2633
 1318TIP3    H225370   5.093   3.325  16.176  0.6529 -1.1199  0.0465
 1319TIP3   OH225371   0.547   0.906   2.128 -0.0816  0.4440 -0.7406
 1319TIP3    H125372   0.609   0.960   2.078  1.7523  0.9274  1.8550
 1319TIP3    H225373   0.597   0.827   2.151  0.5201  1.7329  3.1625
 1320TIP3   OH225374   4.501   0.340   2.413  0.2803 -0.1740  0.0746
 1320TIP3    H125375   4.562   0.338   2.339  0.0714  1.1089 -0.1456
 1320TIP3    H225376   4.414   0.335   2.373  0.1490 -4.0070  0.4598
 1321TIP3   OH225377   4.468   6.250   0.575  0.3444 -0.2438  0.1263
 1321TIP3    H125378   4.464   6.282   0.485  0.1679 -2.2410 -0.6380
 1321TIP3    H225379   4.561   6.251   0.598  0.5503 -1.0305 -0.6203
 1322TIP3   OH225380   4.665   1.143   6.132  0.0223  0.5187 -0.7185
 1322TIP3    H125381   4.617   1.102   6.060 -1.8243  0.8296  0.2744
 1322TIP3    H225382   4.607   1.134   6.208  1.7337  0.5460  0.6710
 1323TIP3   OH225383   2.539   4.870   0.402  0.4490 -0.4336 -0.2780
 1323TIP3    H125384   2.574   4.790   0.363 -1.8309 -0.8195 -1.7878
 1323TIP3    H225385   2.549   4.936   0.334  1.2011  0.2680  0.5009
 1324TIP3   OH225386   2.200   5.399  11.278  0.2835  0.6480 -0.1584
 1324TIP3    H125387   2.284   5.356  11.295 -0.4648 -0.7959  0.0718
 1324TIP3    H225388   2.183   5.382  11.185  1.7141  3.7320 -1.1375
 1325TIP3   OH225389   0.728   0.404   5.075  0.2574  0.0153 -0.2450
 1325TIP3    H125390   0.726   0.480   5.133  0.8307 -1.7080  2.1585
 1325TIP3    H225391   0.698   0.438   4.991  1.1366  3.0346  0.5406
 1326TIP3   OH225392   5.496   4.881   2.082  0.2210  0.2358  0.4436
 1326TIP3    H125393   5.585   4.912   2.098 -0.1037  1.4004  0.0466
 1326TIP3    H225394   5.505   4.819   2.009  0.5650  1.2323 -0.3902
 1327TIP3   OH225395   0.067   4.968   4.713  0.4160  0.5379  0.0664
 1327TIP3    H125396  -0.002   4.923   4.665  1.9912  0.7118 -2.5067
 1327TIP3    H225397   0.035   5.057   4.725  0.4181  0.7938 -1.6789
 1328TIP3   OH225398   4.714   0.110   0.405 -0.1002  0.0461 -1.0529
 1328TIP3    H125399   4.714   0.107   0.501 -0.8908 -1.0569 -1.0663
 1328TIP3    H225400   4.680   0.197   0.383  1.6118  0.9483 -0.3636
 1329TIP3   OH225401   2.845   2.291   5.116 -0.1342 -0.2185  0.2997
 1329TIP3    H125402   2.770   2.344   5.146  0.0789  0.4738 -0.3650
 1329TIP3    H225403   2.916   2.316   5.175 -0.6231 -1.5432  1.5218
 1330TIP3   OH225404   1.177   6.620   4.404 -0.5443  0.7354  0.0769
 1330TIP3    H125405   1.271   6.606   4.411 -0.9236 -1.3028  2.0733
 1330TIP3    H225406   1.157   6.604   4.312  1.0952  1.7821 -0.5124
 1331TIP3   OH225407   0.498   0.541   2.481  0.3127 -0.6639  0.3732
 1331TIP3    H125408   0.552   0.523   2.558  0.1666 -0.9744  0.4038
 1331TIP3    H225409   0.557   0.532   2.407  0.5643  0.0854  0.4733
 1332TIP3   OH225410   2.210   0.930   2.794 -0.5064 -0.5692  0.1171
 1332TIP3    H125411   2.188   1.020   2.771 -1.3975 -0.6663  0.5259
 1332TIP3    H225412   2.285   0.908   2.739 -0.7951  0.1523 -0.5814
 1333TIP3   OH225413   0.947   5.970   1.914  0.1456  0.5752  0.3837
 1333TIP3    H125414   0.956   5.908   1.987 -1.2382  0.2979  0.3514
 1333TIP3    H225415   0.859   6.006   1.924  0.0750  0.8274 -0.9277
 1334TIP3   OH225416   1.290   5.607  15.739  0.5982 -0.2540 -0.3389
 1334TIP3    H125417   1.308   5.686  15.689  2.3821 -0.0341  0.5578
 1334TIP3    H225418   1.363   5.548  15.717  0.2566 -0.9594  0.3606
 1335TIP3   OH225419   6.306   3.661   4.384 -0.7648 -0.2363 -0.5463
 1335TIP3    H125420   6.242   3.649   4.454 -0.2524 -0.7320 -0.1542
 1335TIP3    H225421   6.282   3.744   4.343 -1.2477 -0.0907  0.0232
 1336TIP3   OH225422   5.123   3.784  16.843 -0.0443 -0.0565 -0.1882
 1336TIP3    H125423   5.196   3.760  16.786 -0.6302 -1.2230 -0.4841
 1336TIP3    H225424   5.050   3.732  16.811 -0.8009  0.4649  0.6373
 1337TIP3   OH225425   5.454   2.572   3.222 -0.4734  0.7128  0.4471
 1337TIP3    H125426   5.517   2.551   3.291 -1.2186 -1.2908  0.5863
 1337TIP3    H225427   5.375   2.598   3.269 -0.4464  1.0264  0.3170
 1338TIP3   OH225428   5.396   3.945   0.526  0.1447  0.2358 -0.4597
 1338TIP3    H125429   5.327   3.944   0.593  0.5481 -0.3955 -0.0495
 1338TIP3    H225430   5.429   4.035   0.527  0.1184  0.2410  0.1554
 1339TIP3   OH225431   4.374   4.571  16.923 -0.2258  0.1039 -0.0730
 1339TIP3    H125432   4.459   4.574  16.878 -0.6595  2.2355 -0.8896
 1339TIP3    H225433   4.361   4.661  16.954 -1.9282 -0.3195  0.5295
 1340TIP3   OH225434   3.868   5.238  14.621 -0.2254 -0.0197 -0.5831
 1340TIP3    H125435   3.946   5.248  14.566  0.3685  0.8679  0.3946
 1340TIP3    H225436   3.888   5.288  14.700 -1.2474 -0.9019  0.2530
 1341TIP3   OH225437   1.407   3.159  13.732  0.7096  0.0200  0.1211
 1341TIP3    H125438   1.360   3.219  13.790  1.4298  1.6918 -0.9442
 1341TIP3    H225439   1.409   3.076  13.780  2.5384  1.6695  3.2417
 1342TIP3   OH225440   0.978   1.535   1.538 -0.0330  0.4612 -0.3881
 1342TIP3    H125441   0.965   1.461   1.478 -1.3571  1.0737 -0.9092
 1342TIP3    H225442   0.954   1.500   1.624  0.5112 -0.0364 -0.4336
 1343TIP3   OH225443   4.166   5.650  17.406  0.1861  0.0689  0.3285
 1343TIP3    H125444   4.221   5.729  17.401 -1.6241  1.3505 -2.0960
 1343TIP3    H225445   4.205   5.590  17.342 -0.3243  0.3547 -0.2557
 1344TIP3   OH225446   2.620   0.453  15.626 -0.2293 -0.3507 -0.2266
 1344TIP3    H125447   2.655   0.464  15.537  0.1083 -1.7973 -0.2978
 1344TIP3    H225448   2.534   0.413  15.613  0.4035 -1.8741  0.1241
 1345TIP3   OH225449   2.639   3.848  17.005 -0.5436  0.0994  0.2532
 1345TIP3    H125450   2.684   3.926  16.972 -0.5402  0.5897  1.3671
 1345TIP3    H225451   2.659   3.780  16.941  0.6020  0.6730 -0.0301
 1346TIP3   OH225452   3.951   4.270  13.434  0.1610  0.0312  0.2722
 1346TIP3    H125453   3.951   4.355  13.479  1.7560  0.1246  0.1402
 1346TIP3    H225454   4.043   4.253  13.416 -0.1541 -1.6840  0.1795
 1347TIP3   OH225455   3.670   4.317  16.667  0.2548 -0.0387 -0.2575
 1347TIP3    H125456   3.621   4.381  16.718 -0.8977  0.2508 -1.6546
 1347TIP3    H225457   3.648   4.233  16.708  0.7049  0.3163  0.7520
 1348TIP3   OH225458   2.975   3.070  12.788 -0.0831  0.3711  0.2617
 1348TIP3    H125459   2.910   3.115  12.734  0.1904  1.5194  0.8740
 1348TIP3    H225460   2.925   3.029  12.858 -0.1191  1.5800  0.9549
 1349TIP3   OH225461   1.202   5.654   2.056  0.0966 -0.2521 -0.1201
 1349TIP3    H125462   1.227   5.660   2.148 -0.5892 -0.0554  0.0641
 1349TIP3    H225463   1.280   5.680   2.008  0.7172 -1.1282  0.3780
 1350TIP3   OH225464   0.905   2.637   0.428 -0.4234 -0.3329 -0.4261
 1350TIP3    H125465   0.922   2.546   0.456 -0.9120 -0.5325 -0.7676
 1350TIP3    H225466   0.946   2.690   0.496 -0.0871 -0.8083 -0.2434
 1351TIP3   OH225467   3.744   0.576   0.084 -0.8655  0.2708 -0.2751
 1351TIP3    H125468   3.726   0.531   0.167 -1.5177 -1.7408 -1.4520
 1351TIP3    H225469   3.821   0.532   0.049  0.1131  1.8876 -0.2339
 1352TIP3   OH225470   5.719   3.397   4.693 -0.1620 -0.1449  0.0953
 1352TIP3    H125471   5.703   3.448   4.773  0.3797  0.1969 -0.0080
 1352TIP3    H225472   5.697   3.457   4.622  1.3989  0.2997 -0.0485
 1353TIP3   OH225473   4.115   1.710  12.211  0.6147  0.3866  0.1950
 1353TIP3    H125474   4.143   1.770  12.142  1.4971  0.4100  0.5673
 1353TIP3    H225475   4.162   1.738  12.289  0.5621 -0.3992  0.5240
 1354TIP3   OH225476   5.569   1.557   0.899 -0.3375 -0.1858 -0.1786
 1354TIP3    H125477   5.628   1.573   0.972  0.9606 -0.1639 -1.1870
 1354TIP3    H225478   5.608   1.605   0.826 -0.4863 -1.8015 -1.3808
 1355TIP3   OH225479   2.176   2.204   0.618  0.3713  0.2524  0.1104
 1355TIP3    H125480   2.144   2.121   0.585 -0.4016 -0.1063  1.6583
 1355TIP3    H225481   2.270   2.191   0.628  0.3114 -0.3027 -0.0122
 1356TIP3   OH225482   1.146   4.134   5.297 -0.5659 -0.2809 -0.0359
 1356TIP3    H125483   1.087   4.209   5.298 -0.2331 -0.0048  2.0627
 1356TIP3    H225484   1.130   4.089   5.379  1.3294 -0.8384  0.0836
 1357TIP3   OH225485   6.040   2.076  15.236  0.2373  0.0501 -0.3489
 1357TIP3    H125486   5.988   2.050  15.160  0.6072 -0.7405 -0.3374
 1357TIP3    H225487   6.120   2.114  15.198  0.2937 -0.0769 -0.3578
 1358TIP3   OH225488   5.934   1.484  14.588  0.8380 -0.6990 -0.3721
 1358TIP3    H125489   5.950   1.392  14.569  0.8858 -0.5205 -1.2443
 1358TIP3    H225490   6.018   1.517  14.621  0.0192 -1.6797  3.0700
 1359TIP3   OH225491   1.159   5.148   5.667  0.2932  0.2724  0.5740
 1359TIP3    H125492   1.111   5.231   5.672 -0.4106 -0.1652  1.3682
 1359TIP3    H225493   1.223   5.162   5.598  0.4748  1.6354  0.9800
 1360TIP3   OH225494   3.427   3.602   0.015  0.2417  0.0025 -0.3229
 1360TIP3    H125495   3.387   3.671  -0.038 -0.6177  0.1278  0.4720
 1360TIP3    H225496   3.430   3.638   0.104 -0.1354 -0.9387  0.0876
 1361TIP3   OH225497   1.612   0.338   1.052  0.2562  0.2827 -0.0631
 1361TIP3    H125498   1.521   0.313   1.034 -0.3639  1.8600  0.6680
 1361TIP3    H225499   1.659   0.255   1.058 -1.1480 -0.5703 -0.4168
 1362TIP3   OH225500   3.091   6.677   1.448 -0.0500 -0.0432 -0.3075
 1362TIP3    H125501   3.001   6.645   1.446  0.3485 -1.4986  1.6471
 1362TIP3    H225502   3.142   6.611   1.401  0.7693 -2.5650  3.6987
 1363TIP3   OH225503   1.146   0.323  11.476 -0.2594 -0.5739  0.5337
 1363TIP3    H125504   1.185   0.252  11.425 -0.6544  1.2318 -2.5056
 1363TIP3    H225505   1.178   0.403  11.436 -3.1497  1.0018  1.0355
 1364TIP3   OH225506   3.304   3.875  14.664 -0.4940 -0.0770 -0.2290
 1364TIP3    H125507   3.374   3.862  14.729 -2.8667 -0.1590  2.5133
 1364TIP3    H225508   3.284   3.787  14.633 -0.0002 -0.1578 -0.3293
 1365TIP3   OH225509   6.644   6.383   6.110 -0.0983 -0.0898 -0.4068
 1365TIP3    H125510   6.620   6.385   6.202  1.3550  1.2848 -0.0278
 1365TIP3    H225511   6.640   6.474   6.081 -0.7355 -0.5190 -1.7772
 1366TIP3   OH225512   1.635   2.135   5.698  0.3471  0.2426  0.0662
 1366TIP3    H125513   1.709   2.194   5.705  0.7782 -0.3483  0.6731
 1366TIP3    H225514   1.570   2.183   5.646  1.5098  0.4051 -1.3144
 1367TIP3   OH225515   3.940   5.941   1.098 -0.0105 -0.6752 -0.1088
 1367TIP3    H125516   3.954   6.031   1.068 -1.0184 -0.0622  1.1509
 1367TIP3    H225517   3.847   5.924   1.083 -0.0382 -1.1507  0.5341
 1368TIP3   OH225518   4.540   4.327   2.681  0.1793  0.0850  0.1883
 1368TIP3    H125519   4.591   4.249   2.703 -0.9145 -0.1203  2.2181
 1368TIP3    H225520   4.579   4.397   2.733  0.9332  0.8878 -1.3624
 1369TIP3   OH225521   6.124   6.054  14.905  0.0760 -0.1069  0.2388
 1369TIP3    H125522   6.205   6.021  14.866 -1.1484 -2.6261 -0.4128
 1369TIP3    H225523   6.100   6.129  14.850  1.2569 -0.1594 -0.3831
 1370TIP3   OH225524   0.938   5.192  13.065 -0.5804 -0.2133 -0.4708
 1370TIP3    H125525   0.947   5.115  13.010  0.6688 -0.1648 -0.3685
 1370TIP3    H225526   1.026   5.207  13.100 -0.7732  1.3058 -0.5636
 1371TIP3   OH225527   3.358   3.190   5.251  0.0880  0.2234 -0.0845
 1371TIP3    H125528   3.355   3.123   5.182 -0.6788  1.9183 -1.7930
 1371TIP3    H225529   3.311   3.264   5.214  1.0855  1.8045  1.6550
 1372TIP3   OH225530   3.288   5.027   5.087  0.4509 -0.5274 -0.1648
 1372TIP3    H125531   3.347   4.964   5.128  0.9327  0.6926  1.1281
 1372TIP3    H225532   3.342   5.069   5.020  0.4382 -0.8070 -0.3492
 1373TIP3   OH225533   0.868   3.244   3.281  0.5035 -0.4186  0.1476
 1373TIP3    H125534   0.918   3.167   3.309 -2.4439 -2.8801 -0.8392
 1373TIP3    H225535   0.869   3.240   3.186 -0.1582  0.4469  0.0969
 1374TIP3   OH225536   1.855   2.643  16.084 -0.1561 -0.0397  0.1734
 1374TIP3    H125537   1.819   2.730  16.099 -0.5553 -0.1326 -0.2257
 1374TIP3    H225538   1.919   2.631  16.154 -0.1816  0.5275  0.2980
 1375TIP3   OH225539   3.269   3.283   1.206  0.2206 -0.2711  1.1134
 1375TIP3    H125540   3.244   3.375   1.192 -1.8840 -0.8529  0.7517
 1375TIP3    H225541   3.328   3.263   1.134  0.5502  0.7483  1.0876
 1376TIP3   OH225542   4.337   1.723   4.517 -0.2287  0.1093  0.2712
 1376TIP3    H125543   4.427   1.752   4.502 -0.3669  1.7566  2.1293
 1376TIP3    H225544   4.312   1.677   4.437  1.7494  0.9336 -0.8787
 1377TIP3   OH225545   2.757   0.529   5.709  0.2479 -0.3393 -0.3811
 1377TIP3    H125546   2.731   0.454   5.654 -0.8727  0.0915 -0.4655
 1377TIP3    H225547   2.843   0.504   5.744  0.3205 -1.2544 -1.1619
 1378TIP3   OH225548   3.529   5.780   6.140 -0.2328 -0.3984  0.0240
 1378TIP3    H125549   3.498   5.730   6.216  1.0878 -0.8147  0.3095
 1378TIP3    H225550   3.467   5.853   6.133 -1.3344 -1.2423  0.4934
 1379TIP3   OH225551   3.678   0.604  11.959 -0.0196 -0.0357 -0.0585
 1379TIP3    H125552   3.598   0.579  12.005  0.4027 -0.9832  0.1693
 1379TIP3    H225553   3.672   0.559  11.875  0.5385 -0.5661  0.1820
 1380TIP3   OH225554   2.449   2.068  15.164 -0.3621 -0.0511 -0.4901
 1380TIP3    H125555   2.374   2.019  15.130  0.6100 -0.3646 -2.3446
 1380TIP3    H225556   2.421   2.099  15.250 -2.1693 -1.1538 -0.6307
 1381TIP3   OH225557   0.665   0.802  13.217  0.5336 -0.6695  0.0556
 1381TIP3    H125558   0.744   0.841  13.180 -1.0808  3.3522  0.3367
 1381TIP3    H225559   0.597   0.868  13.204 -2.8233 -3.8178 -0.0142
 1382TIP3   OH225560   4.198   5.983  15.717 -0.2576  0.1171 -0.2043
 1382TIP3    H125561   4.169   5.893  15.704 -1.2507  0.3413  0.4477
 1382TIP3    H225562   4.122   6.037  15.696 -0.0844  0.7466  0.7328
 1383TIP3   OH225563   1.412   1.276  12.315  0.1857 -0.9501 -0.0804
 1383TIP3    H125564   1.380   1.192  12.346 -0.9734 -0.9235 -1.1206
 1383TIP3    H225565   1.438   1.323  12.395  2.0823 -2.7329  0.4318
 1384TIP3   OH225566   4.775   1.387  11.754 -0.7386 -0.7305  0.2119
 1384TIP3    H125567   4.848   1.326  11.771  0.0675 -0.2657 -1.3445
 1384TIP3    H225568   4.806   1.441  11.681 -1.6156  1.2625  1.2355
 1385TIP3   OH225569   1.576   2.106  13.451 -0.5308  0.0814  0.0933
 1385TIP3    H125570   1.581   2.016  13.484 -3.4984 -0.9710 -1.8609
 1385TIP3    H225571   1.614   2.102  13.363 -1.9688  0.3047 -0.5798
 1386TIP3   OH225572   6.503   3.533   2.199  0.1899 -0.0946  0.8459
 1386TIP3    H125573   6.439   3.527   2.271 -1.2226 -0.0682 -0.3553
 1386TIP3    H225574   6.454   3.504   2.122  1.4145  0.6869 -0.2540
 1387TIP3   OH225575   2.637   5.399  12.011  0.5292  0.1563  0.0158
 1387TIP3    H125576   2.706   5.452  12.051  0.7810 -0.1656  0.0185
 1387TIP3    H225577   2.657   5.310  12.039 -0.2740  0.1391  0.5678
 1388TIP3   OH225578   1.648   5.275   1.536 -0.8425  0.0061 -0.6393
 1388TIP3    H125579   1.706   5.270   1.612 -1.5905  0.2696 -0.0330
 1388TIP3    H225580   1.573   5.326   1.567 -1.9717 -1.3438 -1.0115
 1389TIP3   OH225581   1.293   3.615  14.852  0.0792  0.3275 -1.2019
 1389TIP3    H125582   1.288   3.616  14.948 -0.9818 -1.0641 -1.2130
 1389TIP3    H225583   1.239   3.689  14.824 -0.2696  0.2504 -0.7409
 1390TIP3   OH225584   5.078   3.568  16.655 -0.8791 -0.1675  0.0433
 1390TIP3    H125585   5.090   3.535  16.744 -0.4528 -2.0684 -0.6641
 1390TIP3    H225586   5.160   3.547  16.611 -1.2571  0.3460 -0.9305
 1391TIP3   OH225587   3.910   3.428   4.941 -0.0921  0.2827  0.1492
 1391TIP3    H125588   3.844   3.432   5.011  1.0940  0.9810  1.2674
 1391TIP3    H225589   3.868   3.471   4.867 -0.4157  2.0282  1.2748
 1392TIP3   OH225590   1.794   6.156  12.023 -0.0877 -0.3522 -0.2136
 1392TIP3    H125591   1.874   6.167  12.074 -0.2798  0.3924 -0.0516
 1392TIP3    H225592   1.822   6.111  11.944  0.9711  1.9095 -1.2331
 1393TIP3   OH225593   2.050   3.214  13.155  0.0326  0.2885  0.3846
 1393TIP3    H125594   2.063   3.130  13.111  1.5777  0.2104  0.9510
 1393TIP3    H225595   2.130   3.263  13.139 -1.1866  2.0610 -0.7025
 1394TIP3   OH225596   4.478   1.202  17.417  0.3518 -0.5275 -0.4371
 1394TIP3    H125597   4.448   1.207  17.508 -0.2605 -1.1941 -0.5836
 1394TIP3    H225598   4.569   1.174  17.423  1.1349  1.8952  0.0417
 1395TIP3   OH225599   0.484   5.132  12.998  0.4519  0.5564  0.7119
 1395TIP3    H125600   0.540   5.079  12.941 -1.2075  1.8423 -2.3567
 1395TIP3    H225601   0.537   5.208  13.021  1.7226 -0.7670  2.4636
 1396TIP3   OH225602   6.572   5.543   5.017  0.2659  0.6661 -0.1957
 1396TIP3    H125603   6.486   5.564   4.983 -1.4633 -0.7188  2.8564
 1396TIP3    H225604   6.592   5.457   4.981 -0.4740  0.2285  0.4006
 1397TIP3   OH225605   4.403   2.406  11.820  0.0719 -0.3742 -0.1958
 1397TIP3    H125606   4.346   2.377  11.891  1.0354 -0.9190  0.3812
 1397TIP3    H225607   4.369   2.361  11.742  0.4015 -1.6121  0.3493
 1398TIP3   OH225608   4.386   5.076  15.022  0.3839  0.2172 -0.0382
 1398TIP3    H125609   4.468   5.113  14.989  0.7003  0.5634  1.0750
 1398TIP3    H225610   4.319   5.141  14.999  0.7436  0.9073  0.8048
 1399TIP3   OH225611   1.761   6.104  15.209  0.3419 -0.0575  0.4676
 1399TIP3    H125612   1.847   6.077  15.176 -0.1950 -0.6708 -0.4998
 1399TIP3    H225613   1.749   6.192  15.174  0.2054 -0.3221 -0.1787
 1400TIP3   OH225614   1.564   4.261  17.387  0.4547  0.5098  0.1829
 1400TIP3    H125615   1.525   4.195  17.329 -0.1370  0.0497  1.0786
 1400TIP3    H225616   1.597   4.328  17.328 -1.0752  0.5697 -0.6681
 1401TIP3   OH225617   5.401   1.695   2.554  0.2185  0.0646 -0.6997
 1401TIP3    H125618   5.354   1.648   2.623 -1.1888  0.3251 -1.4283
 1401TIP3    H225619   5.335   1.754   2.516  1.4930  1.4484 -0.8882
 1402TIP3   OH225620   1.377   2.447   1.892  0.0949  0.1353  0.3361
 1402TIP3    H125621   1.409   2.487   1.811  1.3096 -0.6077  0.4169
 1402TIP3    H225622   1.319   2.376   1.863 -1.4875  1.4325  0.1834
 1403TIP3   OH225623   2.709   5.158  11.421  0.4352 -0.3350 -0.1041
 1403TIP3    H125624   2.742   5.095  11.485 -0.5709 -0.2956  0.4825
 1403TIP3    H225625   2.673   5.105  11.350  0.3378 -0.4078 -0.0009
 1404TIP3   OH225626   2.740   3.478  12.521  0.7145  1.0613 -0.1748
 1404TIP3    H125627   2.647   3.463  12.537 -0.2613  0.6454 -4.7376
 1404TIP3    H225628   2.751   3.573  12.528  0.0436  1.0775  0.7022
 1405TIP3   OH225629   1.420   5.698   0.947 -0.0890  0.1135  0.3648
 1405TIP3    H125630   1.407   5.603   0.945 -0.9010  0.2232 -0.2080
 1405TIP3    H225631   1.512   5.709   0.969 -0.5784 -0.7618  3.2972
 1406TIP3   OH225632   5.521   6.583   2.369 -0.4478 -0.2442 -0.3249
 1406TIP3    H125633   5.554   6.632   2.445  2.1088 -0.7210 -1.0525
 1406TIP3    H225634   5.480   6.650   2.314  0.7040  0.6741 -0.0976
 1407TIP3   OH225635   0.879   5.244   3.549 -0.6075 -0.0362  0.1711
 1407TIP3    H125636   0.926   5.286   3.477  0.9702  0.2355  1.2908
 1407TIP3    H225637   0.787   5.258   3.529 -0.2732 -0.9921 -2.3664
 1408TIP3   OH225638   1.084   4.341   1.688  0.2438 -0.5925 -0.1858
 1408TIP3    H125639   1.055   4.431   1.672  0.1861 -0.5897 -0.0668
 1408TIP3    H225640   1.037   4.289   1.622 -0.7001 -0.6995  0.5443
 1409TIP3   OH225641   6.490   0.056   6.255  0.5166 -0.1596 -0.1380
 1409TIP3    H125642   6.441   0.130   6.219  1.2430  1.4807  2.0027
 1409TIP3    H225643   6.575   0.093   6.277  1.0124 -1.7282  0.7285
 1410TIP3   OH225644   0.195   1.179  13.659 -0.0983 -0.5395 -0.3082
 1410TIP3    H125645   0.186   1.093  13.701 -1.7551 -0.6191 -0.7670
 1410TIP3    H225646   0.140   1.237  13.712  0.7652  0.1858 -0.1829
 1411TIP3   OH225647   5.246   6.399   5.021  0.6481  0.2051 -0.9488
 1411TIP3    H125648   5.331   6.443   5.019  0.3763  0.7607 -0.6396
 1411TIP3    H225649   5.195   6.449   5.085  1.0802 -1.9907  1.2768
 1412TIP3   OH225650   4.695   0.205  15.316  0.1308  0.4039 -0.5952
 1412TIP3    H125651   4.769   0.179  15.371  0.2633  0.8198 -0.5719
 1412TIP3    H225652   4.648   0.271  15.367 -0.7118 -0.4204 -0.2864
 1413TIP3   OH225653   5.313   5.531  10.868  0.1065  0.0532  0.4506
 1413TIP3    H125654   5.270   5.446  10.869 -2.6188  1.3451  0.7923
 1413TIP3    H225655   5.384   5.522  10.932 -1.4864 -1.3274  2.1185
 1414TIP3   OH225656   0.613   3.672   6.563  0.1112  0.1755 -0.4864
 1414TIP3    H125657   0.575   3.585   6.555 -1.0050  0.5035  0.9122
 1414TIP3    H225658   0.544   3.732   6.536  0.0909  0.7066  0.6520
 1415TIP3   OH225659   4.011   0.086   6.823  0.0808 -0.1345 -0.5593
 1415TIP3    H125660   3.957   0.153   6.866 -0.4399 -0.2024 -1.0897
 1415TIP3    H225661   4.057   0.134   6.754 -0.1713 -0.2885 -0.8363
 1416TIP3   OH225662   2.962   2.339  15.635 -0.7691  0.0913  0.5219
 1416TIP3    H125663   2.972   2.246  15.655 -0.9631 -0.1703 -0.5314
 1416TIP3    H225664   3.046   2.378  15.659  0.0667 -0.7207 -0.8946
 1417TIP3   OH225665   1.258   4.478   5.190 -0.3855  0.0662  0.0561
 1417TIP3    H125666   1.185   4.415   5.193 -0.0670 -0.3437 -0.5747
 1417TIP3    H225667   1.306   4.454   5.111 -1.0054  1.9339 -0.9403
 1418TIP3   OH225668   0.135   4.868   2.044  0.0045  0.1413  0.3535
 1418TIP3    H125669   0.175   4.950   2.074 -0.8880  0.3018  1.1479
 1418TIP3    H225670   0.137   4.874   1.949 -0.6536  1.3969  0.4054
 1419TIP3   OH225671   4.395   3.157   2.197 -0.0771 -0.0361 -0.4425
 1419TIP3    H125672   4.449   3.236   2.206  0.5044 -0.5429  0.5774
 1419TIP3    H225673   4.308   3.185   2.226  0.6990 -0.4072  2.5427
 1420TIP3   OH225674   5.376   6.103  14.731  0.1799 -0.4269 -0.8658
 1420TIP3    H125675   5.430   6.067  14.661 -0.6864 -1.0336 -1.2310
 1420TIP3    H225676   5.300   6.046  14.735 -0.4438  0.4135 -0.3599
 1421TIP3   OH225677   6.676   3.029   5.736 -0.0494  0.2515 -0.6713
 1421TIP3    H125678   6.708   3.101   5.790 -0.0398 -0.9088  0.9780
 1421TIP3    H225679   6.732   2.955   5.760 -0.9215 -0.6378 -1.2972
 1422TIP3   OH225680   5.714   6.065   2.442  0.0304 -0.0757 -0.8773
 1422TIP3    H125681   5.658   5.988   2.448  1.6270 -1.1900  0.8865
 1422TIP3    H225682   5.789   6.037   2.389  1.5155 -0.4267  1.2679
 1423TIP3   OH225683   5.246   6.070   4.133  0.1792  0.4260 -0.4095
 1423TIP3    H125684   5.232   6.119   4.052 -0.0647 -1.3357 -1.4811
 1423TIP3    H225685   5.171   6.093   4.188 -0.6850  0.1616 -1.4516
 1424TIP3   OH225686   1.890   0.884   3.722 -0.1800 -0.7748  0.1682
 1424TIP3    H125687   1.908   0.855   3.812 -2.7148  1.7178  1.6841
 1424TIP3    H225688   1.809   0.838   3.699 -0.4576 -0.1284 -0.1483
 1425TIP3   OH225689   0.484   5.451  16.143  0.2599 -0.9480 -0.2119
 1425TIP3    H125690   0.575   5.452  16.116  0.4844 -1.2601  0.5083
 1425TIP3    H225691   0.434   5.441  16.061  0.7456  1.3371 -0.8535
 1426TIP3   OH225692   4.764   5.804   5.785 -0.6123  0.4997 -0.3644
 1426TIP3    H125693   4.819   5.858   5.841 -1.1322  0.2751  0.3981
 1426TIP3    H225694   4.754   5.853   5.704  1.9895 -0.1562 -1.1783
 1427TIP3   OH225695   4.868   0.458   3.588 -0.4558 -0.3037  0.6678
 1427TIP3    H125696   4.800   0.524   3.604 -0.7216 -0.6542  0.9987
 1427TIP3    H225697   4.937   0.481   3.650  0.1620  0.6441 -0.3377
 1428TIP3   OH225698   5.192   6.022  16.921  0.0659  0.5172 -0.5808
 1428TIP3    H125699   5.196   6.025  16.826  1.1139 -1.3357 -0.6427
 1428TIP3    H225700   5.282   6.008  16.949 -0.4473 -0.8110  0.5569
 1429TIP3   OH225701   3.245   5.887  14.467 -0.1360  0.5763 -0.2555
 1429TIP3    H125702   3.321   5.944  14.456  0.9061 -0.7181 -0.0256
 1429TIP3    H225703   3.186   5.911  14.396  0.3944  1.7329 -0.3252
 1430TIP3   OH225704   1.885   5.986  13.979 -0.1538 -0.0377  0.0674
 1430TIP3    H125705   1.965   6.018  14.020  1.0660 -0.0790 -2.1419
 1430TIP3    H225706   1.841   6.064  13.946  1.5340 -0.2272 -3.0392
 1431TIP3   OH225707   4.036   3.994   1.710 -0.0105 -0.3504 -0.2121
 1431TIP3    H125708   4.009   4.065   1.651 -0.5820 -0.0803  0.3657
 1431TIP3    H225709   3.954   3.958   1.743  0.2715  0.9059  2.0863
 1432TIP3   OH225710   3.857   4.476  17.413  0.0703  0.1416 -0.2391
 1432TIP3    H125711   3.868   4.551  17.355  0.5546  0.7875  0.6567
 1432TIP3    H225712   3.878   4.400  17.358  0.6727  0.7423 -0.8727
 1433TIP3   OH225713   4.093   4.075   5.700 -0.1755  0.4722  0.0039
 1433TIP3    H125714   4.158   4.129   5.654  1.6556 -2.9384 -1.7803
 1433TIP3    H225715   4.034   4.046   5.631 -1.0443  0.0638  0.9063
 1434TIP3   OH225716   1.189   0.829   3.655  0.1795 -0.4587  0.3981
 1434TIP3    H125717   1.238   0.852   3.734  0.7170 -1.1018  0.2663
 1434TIP3    H225718   1.246   0.857   3.583 -0.5243  0.5832  0.2147
 1435TIP3   OH225719   1.287   1.461   1.180  0.0092 -0.2136 -0.2036
 1435TIP3    H125720   1.300   1.383   1.235  0.6215  0.1151  0.1301
 1435TIP3    H225721   1.223   1.434   1.115 -1.8212 -0.2092  1.4983
 1436TIP3   OH225722   0.418   0.021  13.082 -0.0195  0.0361  0.4243
 1436TIP3    H125723   0.408  -0.042  13.153  0.9159  0.2565  0.7677
 1436TIP3    H225724   0.499  -0.005  13.038 -0.9859 -0.5648 -1.0531
 1437TIP3   OH225725   2.681   2.877  15.057  0.2749 -0.4969  0.9352
 1437TIP3    H125726   2.677   2.781  15.052 -0.7769 -0.4212  0.1096
 1437TIP3    H225727   2.754   2.901  15.001 -0.9262 -0.7004 -0.7875
 1438TIP3   OH225728   0.506   6.711  11.258  0.0708  0.1428 -0.3898
 1438TIP3    H125729   0.472   6.786  11.211  0.0024  0.5537  0.2975
 1438TIP3    H225730   0.445   6.698  11.331  0.1870 -0.4546 -0.3924
 1439TIP3   OH225731   4.433   6.530   4.664 -0.0780  0.2666 -0.1238
 1439TIP3    H125732   4.447   6.477   4.742 -1.1081  0.1885  0.0105
 1439TIP3    H225733   4.445   6.620   4.694 -2.9375  0.4326  0.7353
 1440TIP3   OH225734   1.914   6.553  13.147 -0.1629 -0.0524 -0.4178
 1440TIP3    H125735   1.897   6.490  13.216 -1.8081 -0.0875 -0.8211
 1440TIP3    H225736   1.849   6.622  13.161  0.3207  0.5725 -1.1639
 1441TIP3   OH225737   1.633   0.317  16.436  0.0664  0.3006  0.3181
 1441TIP3    H125738   1.683   0.256  16.490 -0.0964  1.4511  1.8346
 1441TIP3    H225739   1.690   0.393  16.425 -0.4427  0.6572  0.0688
 1442TIP3   OH225740   3.316   3.372  13.090  0.3380 -0.0931 -0.3446
 1442TIP3    H125741   3.249   3.347  13.027 -0.3984  1.3246 -0.1719
 1442TIP3    H225742   3.267   3.394  13.169  1.2759 -2.3905  0.9709
 1443TIP3   OH225743   1.571   6.090   5.080  0.3433  0.2348  0.3865
 1443TIP3    H125744   1.508   6.052   5.140 -0.1501  1.0935  0.4265
 1443TIP3    H225745   1.562   6.185   5.092  2.1128  0.3838  0.8978
 1444TIP3   OH225746   6.041   5.442  12.056  0.0702 -0.3324  0.0551
 1444TIP3    H125747   6.042   5.397  11.972  2.3027 -0.6210  0.1866
 1444TIP3    H225748   6.018   5.374  12.120  0.3012 -0.5692 -0.1111
 1445TIP3   OH225749   2.320   0.292   5.659 -0.2157  0.2857  0.6175
 1445TIP3    H125750   2.269   0.343   5.595 -0.7879 -0.8455  0.1187
 1445TIP3    H225751   2.378   0.238   5.605 -0.8800 -0.8677  1.0068
 1446TIP3   OH225752   6.181   4.450   3.656  0.2952  0.0225 -0.6204
 1446TIP3    H125753   6.205   4.535   3.619  0.1777 -0.1692 -1.1380
 1446TIP3    H225754   6.087   4.457   3.672  0.3965  0.2082 -0.0763
 1447TIP3   OH225755   6.699   2.555   5.788 -0.2583 -0.7866 -0.0715
 1447TIP3    H125756   6.611   2.523   5.810  0.8965 -3.7902  0.7526
 1447TIP3    H225757   6.723   2.505   5.709  0.9722 -0.5891  0.1630
 1448TIP3   OH225758   5.530   4.058   4.641 -0.0067 -0.1990 -1.0195
 1448TIP3    H125759   5.602   4.117   4.622  0.1103  0.4421  1.1838
 1448TIP3    H225760   5.568   3.971   4.636  1.5069  0.1598  1.8584
 1449TIP3   OH225761   0.153   2.736  16.726 -0.2229 -0.3172  0.1061
 1449TIP3    H125762   0.176   2.644  16.727  0.5756 -0.1730 -1.5417
 1449TIP3    H225763   0.099   2.748  16.804  1.0563 -1.7899  1.3046
 1450TIP3   OH225764   4.243   1.340   2.188  0.2911 -0.6576 -0.4735
 1450TIP3    H125765   4.184   1.288   2.242 -0.6406  0.4481 -0.3838
 1450TIP3    H225766   4.228   1.430   2.216  3.8960 -0.4808  1.3737
 1451TIP3   OH225767   0.864   6.515  15.525 -0.0883  0.1292 -0.4040
 1451TIP3    H125768   0.839   6.568  15.449  1.4367 -2.6615 -3.1112
 1451TIP3    H225769   0.949   6.551  15.551 -0.4096  0.8177 -0.2728
 1452TIP3   OH225770   4.777   3.154   4.628 -0.1268  0.4656  0.2790
 1452TIP3    H125771   4.694   3.172   4.583 -0.3243 -2.1129 -0.5510
 1452TIP3    H225772   4.844   3.171   4.561  0.1980  3.3311  1.1788
 1453TIP3   OH225773   4.123   5.878   1.542  0.4615  0.7301  0.4431
 1453TIP3    H125774   4.121   5.866   1.447  1.0634 -0.2399  0.5423
 1453TIP3    H225775   4.046   5.829   1.573 -0.0516  1.5038  0.4220
 1454TIP3   OH225776   1.847   2.903   6.575  0.0380  0.3680 -0.1796
 1454TIP3    H125777   1.794   2.983   6.582  0.2459  0.5486 -0.6715
 1454TIP3    H225778   1.810   2.845   6.642  2.3321  2.2379  2.9896
 1455TIP3   OH225779   0.335   4.730  17.262 -0.0669 -0.1279  0.6646
 1455TIP3    H125780   0.427   4.714  17.242 -0.0223  0.6028  0.2093
 1455TIP3    H225781   0.310   4.801  17.202 -0.9810 -0.4585  0.6380
 1456TIP3   OH225782   3.381   5.141   2.298  0.1922 -0.3790 -0.0283
 1456TIP3    H125783   3.445   5.185   2.354  0.1178 -1.0020  0.5565
 1456TIP3    H225784   3.364   5.204   2.228 -0.1247  0.6466  0.9271
 1457TIP3   OH225785   0.947   5.505   0.899  0.3863 -0.0847  0.0277
 1457TIP3    H125786   0.929   5.425   0.850  0.5008 -1.9914  2.8437
 1457TIP3    H225787   0.865   5.554   0.896 -0.0168 -0.7956 -0.9111
 1458TIP3   OH225788   2.904   3.472  16.993 -0.2072  0.4515 -0.0389
 1458TIP3    H125789   2.897   3.551  17.047  4.0466 -0.1445  1.8037
 1458TIP3    H225790   2.855   3.405  17.041 -0.5363  1.0612  0.4824
 1459TIP3   OH225791   3.033   0.934  14.364  0.4763  0.1703  0.0777
 1459TIP3    H125792   3.086   1.000  14.319 -0.0722 -0.1605 -1.0920
 1459TIP3    H225793   3.096   0.869  14.394  1.0370  1.2310  1.3197
 1460TIP3   OH225794   3.307   5.980   6.230  0.0771 -0.1836 -0.5275
 1460TIP3    H125795   3.243   6.050   6.237  0.5506  0.2710 -0.6430
 1460TIP3    H225796   3.385   6.016   6.273  0.6013 -0.2991 -1.3619
 1461TIP3   OH225797   0.708   0.527   6.948  0.2453 -0.4137  0.1135
 1461TIP3    H125798   0.618   0.553   6.964  0.4395  0.1047  0.3699
 1461TIP3    H225799   0.745   0.599   6.896  0.3645 -0.8626 -0.4350
 1462TIP3   OH225800   5.591   4.785  13.456 -0.0879 -0.1869 -0.1556
 1462TIP3    H125801   5.681   4.814  13.442 -0.7399  1.3165 -1.4911
 1462TIP3    H225802   5.574   4.723  13.386 -0.3642  0.1914 -0.4257
 1463TIP3   OH225803   1.901   0.775   4.266  1.1987 -0.4104 -0.1906
 1463TIP3    H125804   1.983   0.774   4.216  0.2747 -1.9218 -1.7483
 1463TIP3    H225805   1.861   0.690   4.250  0.3035 -0.5465  2.2906
 1464TIP3   OH225806   6.310   5.102   2.457 -0.3285  0.5916 -0.3583
 1464TIP3    H125807   6.385   5.065   2.503 -0.4609  0.0441 -0.5841
 1464TIP3    H225808   6.347   5.175   2.407 -0.2839  1.6015  1.0764
 1465TIP3   OH225809   0.684   1.552  14.995 -0.0926  1.1058  0.0847
 1465TIP3    H125810   0.742   1.601  15.055 -0.2583  1.2034  0.1656
 1465TIP3    H225811   0.692   1.597  14.912  0.3251  0.8254 -0.0303
 1466TIP3   OH225812   2.726   5.955   4.830  0.6624  0.0555  0.3926
 1466TIP3    H125813   2.712   5.921   4.919 -1.4397  0.1222  0.1189
 1466TIP3    H225814   2.818   5.983   4.830  0.7456 -0.0562  2.5019
 1467TIP3   OH225815   4.205   4.625   5.055 -0.2862  0.2324  0.1498
 1467TIP3    H125816   4.197   4.719   5.042 -2.9571 -0.0766 -1.0155
 1467TIP3    H225817   4.183   4.611   5.147  0.3313  0.7404  0.3811
 1468TIP3   OH225818   2.417   1.493   5.265  0.1222  0.3593  0.4963
 1468TIP3    H125819   2.384   1.581   5.249 -0.7810  0.1384  1.1244
 1468TIP3    H225820   2.425   1.454   5.177 -2.1267  0.1157  0.3622
 1469TIP3   OH225821   3.607   2.435   0.548  0.7415 -0.1827  0.4040
 1469TIP3    H125822   3.687   2.423   0.497  1.1666  0.1956  0.9694
 1469TIP3    H225823   3.541   2.458   0.483  1.0405 -0.7104 -0.0945
 1470TIP3   OH225824   4.536   2.886   5.804 -0.1367  0.1851 -0.7783
 1470TIP3    H125825   4.441   2.871   5.811 -0.0489 -0.0751 -0.0188
 1470TIP3    H225826   4.556   2.873   5.712 -0.8069  0.0208 -0.9062
 1471TIP3   OH225827   4.750   3.491   1.379  0.3291 -0.1147 -0.0356
 1471TIP3    H125828   4.772   3.569   1.430 -0.6556  0.2656 -0.1600
 1471TIP3    H225829   4.662   3.468   1.408 -0.1675 -0.0091 -1.4037
 1472TIP3   OH225830   5.667   0.175  14.267 -0.3550  0.2709 -0.4034
 1472TIP3    H125831   5.628   0.259  14.291  0.9166  0.5634  0.7944
 1472TIP3    H225832   5.628   0.112  14.327 -1.0132  0.0703 -1.0368
 1473TIP3   OH225833   5.598   1.172   4.613  0.3366 -0.1587  0.5734
 1473TIP3    H125834   5.557   1.163   4.699  0.1256  1.0409  0.6080
 1473TIP3    H225835   5.530   1.209   4.557  0.7101 -0.2060  0.0819
 1474TIP3   OH225836   4.223   6.525   2.678  0.6483  0.2341  0.2073
 1474TIP3    H125837   4.303   6.561   2.715  0.3585  0.5041  0.5800
 1474TIP3    H225838   4.152   6.564   2.730  0.3317 -1.0224  0.7499
 1475TIP3   OH225839   2.710   3.504  17.418 -0.2130  0.4436 -0.4961
 1475TIP3    H125840   2.694   3.442  17.489 -0.0354  1.1235  0.1471
 1475TIP3    H225841   2.803   3.495  17.399 -0.1075  0.7779 -0.1456
 1476TIP3   OH225842   0.260   3.595   1.618 -0.5169 -0.2893  0.1369
 1476TIP3    H125843   0.340   3.571   1.663  0.0960  1.0403 -0.1749
 1476TIP3    H225844   0.284   3.673   1.567 -1.1855 -1.6344 -2.3905
 1477TIP3   OH225845   0.338   2.008   6.030 -0.0949  0.0837 -0.3083
 1477TIP3    H125846   0.349   1.971   6.117 -2.0650 -1.2375 -0.5534
 1477TIP3    H225847   0.384   1.947   5.972 -3.3603 -2.2594 -0.7150
 1478TIP3   OH225848   3.997   5.878   5.532  0.7467 -0.2450 -0.3040
 1478TIP3    H125849   4.032   5.855   5.618  0.8645  0.7042 -0.0837
 1478TIP3    H225850   4.072   5.873   5.473  0.7851 -0.3693 -0.2429
 1479TIP3   OH225851   3.301   0.186  17.200  0.1642 -0.3281 -0.0986
 1479TIP3    H125852   3.310   0.212  17.291 -0.9058 -0.6147  0.1014
 1479TIP3    H225853   3.322   0.265  17.150 -2.4571  0.8165  0.4778
 1480TIP3   OH225854   2.123   4.868   2.263 -0.1611  0.4315 -0.9003
 1480TIP3    H125855   2.111   4.815   2.342  1.8905  0.8999 -0.1907
 1480TIP3    H225856   2.042   4.918   2.254 -0.8239 -0.3832  0.3130
 1481TIP3   OH225857   0.405   1.123   5.094  0.3235  0.3853  0.2659
 1481TIP3    H125858   0.338   1.178   5.055  0.7544  0.3797 -0.5090
 1481TIP3    H225859   0.373   1.105   5.183 -1.0134 -0.1540 -0.2948
 1482TIP3   OH225860   4.553   2.102   4.158  0.0016  0.0637 -0.0323
 1482TIP3    H125861   4.503   2.061   4.228 -0.3064  0.1417 -0.2047
 1482TIP3    H225862   4.626   2.042   4.143 -0.4336 -0.4191 -0.2686
 1483TIP3   OH225863   3.893   4.565   0.426 -0.5533 -0.0379 -0.2077
 1483TIP3    H125864   3.972   4.518   0.453  0.8565  2.0766 -0.3448
 1483TIP3    H225865   3.820   4.511   0.456  0.9297 -2.2353 -0.3472
 1484TIP3   OH225866   1.420   4.289   3.809  0.3840  0.0865  0.2444
 1484TIP3    H125867   1.336   4.333   3.819 -0.1232 -0.8013 -0.0110
 1484TIP3    H225868   1.448   4.270   3.899  0.0038 -0.1837  0.3066
 1485TIP3   OH225869   4.505   2.632   0.883  0.0741 -0.6844 -0.2240
 1485TIP3    H125870   4.535   2.721   0.866 -0.5051 -0.3841  0.2797
 1485TIP3    H225871   4.584   2.585   0.909  0.3405 -0.2468 -0.2281
 1486TIP3   OH225872   0.401   4.086   2.026  0.3252  0.0124 -0.1798
 1486TIP3    H125873   0.380   4.034   2.104  1.6521 -1.1094 -0.5390
 1486TIP3    H225874   0.482   4.132   2.048  0.1660  0.4770 -0.5451
 1487TIP3   OH225875   5.184   6.074   3.450  0.8853  0.1160 -0.2654
 1487TIP3    H125876   5.258   6.014   3.461  1.4735  0.8835  0.0545
 1487TIP3    H225877   5.170   6.079   3.356  2.0380  0.9010 -0.4129
 1488TIP3   OH225878   2.661   1.340  11.728  0.0265 -0.0737  0.1382
 1488TIP3    H125879   2.684   1.389  11.650  1.4089 -1.0658 -0.1061
 1488TIP3    H225880   2.597   1.395  11.773 -1.6764  0.0362 -2.2155
 1489TIP3   OH225881   4.462   1.310  12.220  0.3448  0.2909  0.2403
 1489TIP3    H125882   4.429   1.226  12.250 -0.1197  0.5986  0.6157
 1489TIP3    H225883   4.427   1.373  12.283  0.7466  0.7550  0.0069
 1490TIP3   OH225884   1.715   5.012  14.541  0.0153  0.4193  0.4867
 1490TIP3    H125885   1.667   5.017  14.458  0.7457 -2.6075 -0.2360
 1490TIP3    H225886   1.807   5.007  14.516  0.2259 -0.9462  1.4192
 1491TIP3   OH225887   5.363   3.365   3.231 -0.2601  0.9396 -0.2191
 1491TIP3    H125888   5.403   3.279   3.215 -0.4075  0.7303  0.4881
 1491TIP3    H225889   5.319   3.386   3.149  0.6914  0.8419 -0.7685
 1492TIP3   OH225890   0.288   2.709  12.788  0.3245 -0.3150  0.0535
 1492TIP3    H125891   0.378   2.704  12.821  0.3729 -1.7122 -0.2226
 1492TIP3    H225892   0.280   2.797  12.751  1.5823 -0.1810  0.0775
 1493TIP3   OH225893   3.991   5.047  11.850  0.2465 -0.2760  0.3248
 1493TIP3    H125894   3.984   5.110  11.922 -0.4418  0.7622 -0.6247
 1493TIP3    H225895   4.049   5.090  11.787 -1.1472 -0.0378 -0.8563
 1494TIP3   OH225896   1.619   1.031  14.289  0.1400 -0.7683 -0.3229
 1494TIP3    H125897   1.528   1.050  14.268 -0.1451 -1.8031 -0.0610
 1494TIP3    H225898   1.663   1.116  14.283 -0.5056 -0.5092 -2.1156
 1495TIP3   OH225899   2.737   5.614  13.757 -0.0327 -0.1082 -0.1575
 1495TIP3    H125900   2.734   5.524  13.725 -1.1183 -0.6063  1.2321
 1495TIP3    H225901   2.822   5.648  13.727  0.5531 -1.7037 -0.3859
 1496TIP3   OH225902   2.582   4.778  11.205  0.1587  0.2404 -0.1737
 1496TIP3    H125903   2.634   4.736  11.137  0.7235  0.0401  0.3751
 1496TIP3    H225904   2.492   4.776  11.172  0.2912 -0.7177 -0.4840
 1497TIP3   OH225905   0.310   1.108   6.843 -0.0988 -0.0352  0.2871
 1497TIP3    H125906   0.325   1.190   6.796  1.8970 -0.7081 -0.3693
 1497TIP3    H225907   0.217   1.089   6.831  0.1958  0.0748 -3.0430
 1498TIP3   OH225908   0.088   0.772   4.069  0.5299  0.1760  0.1398
 1498TIP3    H125909   0.104   0.781   3.975 -2.0569 -1.3009 -0.5448
 1498TIP3    H225910   0.071   0.679   4.081 -1.4118  0.6686  1.6502
 1499TIP3   OH225911   3.971   1.384  16.049 -0.0922  0.1433  0.2916
 1499TIP3    H125912   3.978   1.295  16.083  1.2115  1.8178  5.2158
 1499TIP3    H225913   3.886   1.416  16.080 -0.3122  0.8777 -0.9601
 1500TIP3   OH225914   6.652   0.608   4.786  0.2343 -0.2652 -0.4750
 1500TIP3    H125915   6.669   0.603   4.692 -1.9891  0.8342 -1.0043
 1500TIP3    H225916   6.619   0.521   4.809  0.0091 -0.2942 -0.8986
 1501TIP3   OH225917   3.464   6.684  15.436 -0.0957 -0.2904 -0.1411
 1501TIP3    H125918   3.444   6.735  15.514  1.1240 -0.6557  0.4431
 1501TIP3    H225919   3.558   6.666  15.443 -0.2881 -1.7382 -0.8492
 1502TIP3   OH225920   1.383   5.580  11.690 -0.3289 -0.1903  0.4251
 1502TIP3    H125921   1.467   5.621  11.668  0.4035 -1.4444  0.7556
 1502TIP3    H225922   1.329   5.592  11.612  0.0821  0.8016  0.2751
 1503TIP3   OH225923   4.256   0.342   2.011  0.0350  0.5847  0.7428
 1503TIP3    H125924   4.186   0.367   1.950 -0.6322  0.7585  1.5679
 1503TIP3    H225925   4.272   0.250   1.991 -0.2996  0.5898  0.4181
 1504TIP3   OH225926   5.185   2.954  15.049  0.5411  0.8175 -0.1533
 1504TIP3    H125927   5.225   2.973  15.134 -0.2868  1.8515  0.0154
 1504TIP3    H225928   5.206   3.030  14.995 -0.1102  0.7847 -0.4563
 1505TIP3   OH225929   0.438   1.329   5.969 -0.1938  0.0001 -0.3467
 1505TIP3    H125930   0.403   1.240   5.968  0.2508 -0.1928 -1.9159
 1505TIP3    H225931   0.432   1.356   6.060 -1.4499 -1.1888 -0.0394
 1506TIP3   OH225932   6.155   4.435   4.875 -0.2837 -0.6169 -0.4337
 1506TIP3    H125933   6.124   4.381   4.947 -2.6929  1.9469  0.6469
 1506TIP3    H225934   6.248   4.450   4.894 -0.6010 -0.9045  1.5413
 1507TIP3   OH225935   1.559   4.751  13.941  0.0332  0.5215  0.5643
 1507TIP3    H125936   1.512   4.669  13.955 -0.5096  1.0099  1.6423
 1507TIP3    H225937   1.580   4.750  13.847 -2.3308  0.3967 -0.0208
 1508TIP3   OH225938   3.566   1.731   2.394 -0.2227 -0.3850  0.8933
 1508TIP3    H125939   3.540   1.776   2.313  1.9421  0.7851  0.7642
 1508TIP3    H225940   3.620   1.795   2.440 -0.7556 -1.3222  2.9163
 1509TIP3   OH225941   0.569   5.969  15.300 -0.1676 -0.2464  0.0010
 1509TIP3    H125942   0.598   6.037  15.361 -1.0941  0.1751 -0.0205
 1509TIP3    H225943   0.474   5.976  15.299 -0.2363 -1.0912 -0.5350
 1510TIP3   OH225944   3.473   2.683   7.248 -0.2936 -0.1367 -0.1311
 1510TIP3    H125945   3.472   2.687   7.153  0.1172  2.5615 -0.1222
 1510TIP3    H225946   3.537   2.750   7.274  0.7714 -1.8782  2.0316
 1511TIP3   OH225947   4.186   3.421   5.303 -0.5691 -0.0132  0.4176
 1511TIP3    H125948   4.169   3.515   5.300  1.8074  0.4941  0.4202
 1511TIP3    H225949   4.232   3.403   5.221  0.1763 -0.8801  1.0090
 1512TIP3   OH225950   2.596   1.240  16.017 -0.0542 -0.1006 -0.6516
 1512TIP3    H125951   2.594   1.266  15.925 -1.2974  0.2177 -0.5480
 1512TIP3    H225952   2.590   1.145  16.015  2.8661 -0.3931 -0.9702
 1513TIP3   OH225953   3.520   4.775   6.265  0.3073 -0.2389  0.0543
 1513TIP3    H125954   3.483   4.713   6.327 -0.7341  0.3681  0.0527
 1513TIP3    H225955   3.473   4.856   6.281  0.9030  0.2621 -0.6804
 1514TIP3   OH225956   5.962   2.832  15.187  0.1424  0.4402  0.1028
 1514TIP3    H125957   5.898   2.808  15.254  1.5356 -0.4443  1.1975
 1514TIP3    H225958   6.030   2.880  15.235  0.6201  0.7940 -0.9004
 1515TIP3   OH225959   4.260   5.563   0.035 -0.6874  0.3614 -0.6365
 1515TIP3    H125960   4.320   5.632   0.066 -0.2928 -0.0669 -0.4458
 1515TIP3    H225961   4.233   5.592  -0.052  0.4204  0.1610 -1.0537
 1516TIP3   OH225962   5.559   5.147   5.114  0.0092 -0.0457  0.3315
 1516TIP3    H125963   5.518   5.186   5.036  0.0444  2.6798  1.5312
 1516TIP3    H225964   5.485   5.120   5.168 -0.0765 -0.0302  0.2223
 1517TIP3   OH225965   4.418   3.023   1.846 -0.2599  0.1231  0.6527
 1517TIP3    H125966   4.512   3.021   1.866  0.0776  0.7021 -0.7781
 1517TIP3    H225967   4.407   3.098   1.788 -0.7594 -2.5950 -3.1198
 1518TIP3   OH225968   4.206   3.941   4.166  0.2424  0.3467 -0.5348
 1518TIP3    H125969   4.166   3.856   4.180  1.2900 -0.2927 -1.2946
 1518TIP3    H225970   4.148   3.985   4.104 -0.5237  0.3636  0.1774
 1519TIP3   OH225971   2.490   3.208   3.574  0.2054 -0.3157  0.1830
 1519TIP3    H125972   2.453   3.217   3.486 -0.3239  1.0100  0.5092
 1519TIP3    H225973   2.551   3.135   3.567 -0.3479 -0.6956 -1.1044
 1520TIP3   OH225974   5.592   2.565  14.168 -0.7593  0.1173 -0.1646
 1520TIP3    H125975   5.617   2.487  14.217  1.4421  0.3786 -0.7408
 1520TIP3    H225976   5.507   2.590  14.204 -1.6924 -2.6910 -0.1867
 1521TIP3   OH225977   0.281   5.823  11.454 -0.2597  0.0601  0.5526
 1521TIP3    H125978   0.322   5.908  11.468  1.9374 -1.1036  1.7682
 1521TIP3    H225979   0.194   5.843  11.421  0.8195  2.7287 -0.9680
 1522TIP3   OH225980   5.555   5.343  10.962 -0.4264  0.7697  0.2797
 1522TIP3    H125981   5.501   5.290  11.021  0.1968  2.3399  2.4159
 1522TIP3    H225982   5.569   5.287  10.885 -0.0688 -2.0627  2.2199
 1523TIP3   OH225983   0.333   6.526   0.687 -0.0799 -0.1144 -0.3467
 1523TIP3    H125984   0.252   6.493   0.649 -1.2180  1.8461  0.2587
 1523TIP3    H225985   0.320   6.518   0.782 -0.0279  1.1892 -0.2134
 1524TIP3   OH225986   4.362   4.576   2.797 -0.2190 -1.0850 -0.0793
 1524TIP3    H125987   4.398   4.642   2.856 -2.5536  0.3337 -0.1027
 1524TIP3    H225988   4.288   4.539   2.846 -0.4207 -1.9489 -1.0080
 1525TIP3   OH225989   4.991   2.810  16.723  0.0359 -0.2236 -0.2951
 1525TIP3    H125990   5.013   2.732  16.672  2.4076  0.3056 -0.2289
 1525TIP3    H225991   5.019   2.789  16.812  1.0591  0.7914 -0.3464
 1526TIP3   OH225992   6.155   2.846  12.875  0.8523  0.2788  0.3203
 1526TIP3    H125993   6.124   2.874  12.789  0.3166  1.4854  0.8749
 1526TIP3    H225994   6.194   2.925  12.913  0.1726  0.0362  1.5715
 1527TIP3   OH225995   5.953   5.185  14.932  0.3707 -0.6471  0.0756
 1527TIP3    H125996   5.887   5.253  14.927  1.7905  0.8178  0.3177
 1527TIP3    H225997   5.962   5.166  15.026 -0.1877 -1.3632 -0.0065
 1528TIP3   OH225998   5.546   5.162  13.988 -0.5670  0.7897  0.0344
 1528TIP3    H125999   5.594   5.238  13.954 -0.9688  0.8654 -0.3831
 1528TIP3    H226000   5.461   5.167  13.944  0.0153 -0.9036 -1.3902
 1529TIP3   OH226001   1.972   3.788  15.030 -0.2497 -0.3766  0.1253
 1529TIP3    H126002   1.913   3.784  14.955 -0.4152  1.3151  0.1223
 1529TIP3    H226003   2.038   3.854  15.006  0.4182 -0.7091  0.9678
 1530TIP3   OH226004   2.803   3.290   0.870  0.3606  0.2651  0.1350
 1530TIP3    H126005   2.821   3.222   0.805  1.4182 -0.6669  1.3414
 1530TIP3    H226006   2.773   3.242   0.947  0.4831  1.2158  0.7957
 1531TIP3   OH226007   6.521   2.417   1.202  0.2501  0.6682 -0.2335
 1531TIP3    H126008   6.434   2.458   1.206 -0.1030 -0.1588  1.3847
 1531TIP3    H226009   6.531   2.373   1.286  0.5966 -2.5968 -1.8173
 1532TIP3   OH226010   6.381   0.036  11.673 -0.1666  0.4504 -0.4187
 1532TIP3    H126011   6.473   0.024  11.696  0.3259  2.7703 -1.0019
 1532TIP3    H226012   6.340  -0.048  11.694  1.9743 -0.4685  0.3034
 1533TIP3   OH226013   3.633   6.616  13.471 -0.0587  0.1451  0.3147
 1533TIP3    H126014   3.557   6.641  13.419 -0.1040  3.1393  1.5923
 1533TIP3    H226015   3.692   6.691  13.464  1.0048 -0.4063  2.4894
 1534TIP3   OH226016   3.373   3.888   0.480  0.2211  0.1041 -0.3781
 1534TIP3    H126017   3.350   3.974   0.444  0.2123 -0.5234 -1.9418
 1534TIP3    H226018   3.459   3.902   0.521 -0.3618  1.1428  0.5234
 1535TIP3   OH226019   3.066   1.783   1.829  0.6502  0.6943  0.1603
 1535TIP3    H126020   3.026   1.865   1.860  0.1099  0.3516  0.3800
 1535TIP3    H226021   3.073   1.794   1.734  3.0853  2.1023  0.4056
 1536TIP3   OH226022   1.197   5.040  11.369 -0.3306  0.3749  0.1051
 1536TIP3    H126023   1.230   4.981  11.301  0.2651  1.0671 -0.2157
 1536TIP3    H226024   1.214   4.994  11.451  3.9334  1.7145  0.2264
 1537TIP3   OH226025   2.658   5.910   5.428 -0.2285  0.0702 -0.5016
 1537TIP3    H126026   2.565   5.931   5.436 -0.9457 -2.8155  0.1333
 1537TIP3    H226027   2.680   5.869   5.512  0.8307 -1.7699 -1.6058
 1538TIP3   OH226028   4.259   0.804   3.237  0.6301  0.4246 -0.3929
 1538TIP3    H126029   4.246   0.820   3.144  1.7036  3.7794 -0.1125
 1538TIP3    H226030   4.342   0.757   3.243 -0.7301 -2.2647 -1.1552
 1539TIP3   OH226031   5.669   0.473   4.698 -0.1477 -0.0645  0.0631
 1539TIP3    H126032   5.583   0.449   4.664 -0.2571 -0.6990  0.7532
 1539TIP3    H226033   5.701   0.394   4.742  1.2530 -0.1698 -1.0698
 1540TIP3   OH226034   4.884   1.941   0.395  0.1633  0.1873 -0.5573
 1540TIP3    H126035   4.975   1.968   0.409  0.4026 -0.6955 -0.3286
 1540TIP3    H226036   4.864   1.968   0.306  0.1018  1.8681 -0.0558
 1541TIP3   OH226037   5.931   1.570  11.581  0.2580 -0.1979  0.1412
 1541TIP3    H126038   5.950   1.476  11.576 -1.8822 -0.6385 -1.1702
 1541TIP3    H226039   5.952   1.594  11.671  3.3580 -1.2960 -0.1811
 1542TIP3   OH226040   6.111   3.678  13.271 -0.1633  0.1412 -0.4001
 1542TIP3    H126041   6.056   3.741  13.225  2.0556  1.2262 -1.6874
 1542TIP3    H226042   6.072   3.593  13.249 -2.3030  0.9062  0.1583
 1543TIP3   OH226043   3.067   3.892  13.860 -0.2227 -0.1912  0.2131
 1543TIP3    H126044   3.144   3.929  13.818 -0.0720 -0.5444  0.1783
 1543TIP3    H226045   2.993   3.941  13.821 -0.0753 -0.3895 -0.3300
 1544TIP3   OH226046   2.082   2.912  12.093  0.2422  0.2458  0.6238
 1544TIP3    H126047   2.027   2.925  12.171  1.2478 -1.9259  1.7699
 1544TIP3    H226048   2.028   2.944  12.021 -2.2668 -1.0832  1.7810
 1545TIP3   OH226049   2.489   6.434  16.828  0.2350  0.6189 -0.1595
 1545TIP3    H126050   2.543   6.377  16.773  0.4642 -1.5154  2.1104
 1545TIP3    H226051   2.551   6.500  16.862  1.1546 -0.7964  1.0717
 1546TIP3   OH226052   5.517   6.090   4.235  0.2739  0.0587  0.0216
 1546TIP3    H126053   5.566   6.098   4.153  0.7697 -0.1424  0.2934
 1546TIP3    H226054   5.426   6.077   4.208  0.6154 -1.3234 -0.5236
 1547TIP3   OH226055   1.354   0.712  14.765  0.7460 -0.0665 -0.1237
 1547TIP3    H126056   1.278   0.768  14.777 -0.2817 -1.5457  0.4734
 1547TIP3    H226057   1.350   0.685  14.674  1.8273  1.5819 -0.7161
 1548TIP3   OH226058   0.491   2.686   6.019 -0.2801  0.3407  0.2913
 1548TIP3    H126059   0.424   2.715   5.958 -1.2085 -0.5518  0.8678
 1548TIP3    H226060   0.519   2.601   5.986 -0.4568  0.0641  0.8442
 1549TIP3   OH226061   1.756   4.426  12.194  0.4655  0.1639  0.2659
 1549TIP3    H126062   1.664   4.433  12.171  0.0293 -0.8261  1.5493
 1549TIP3    H226063   1.785   4.344  12.152  0.5174  0.0225  0.5722
 1550TIP3   OH226064   0.540   3.599  14.387 -0.1284 -0.0109  0.0696
 1550TIP3    H126065   0.480   3.580  14.315 -0.4497  0.4897  0.2030
 1550TIP3    H226066   0.567   3.690  14.374 -2.3788  1.0627  2.1007
 1551TIP3   OH226067   3.256   5.683   5.710 -0.1929  0.3580 -0.3249
 1551TIP3    H126068   3.305   5.605   5.684  0.2349  0.4435  0.2056
 1551TIP3    H226069   3.316   5.756   5.692 -0.7087  0.6053 -1.1189
 1552TIP3   OH226070   6.615   3.856  14.835  0.0130 -0.1803 -0.6794
 1552TIP3    H126071   6.537   3.865  14.781 -1.5524 -0.4622  1.3981
 1552TIP3    H226072   6.609   3.928  14.898 -0.2194 -1.9197  1.3891
 1553TIP3   OH226073   3.705   1.220   2.010 -0.3624 -0.0738  0.1770
 1553TIP3    H126074   3.783   1.274   1.998  0.7295 -1.2764  1.5472
 1553TIP3    H226075   3.644   1.277   2.057  0.5739  0.1672  1.1410
 1554TIP3   OH226076   3.751   4.294  13.048  0.1029 -0.0667 -0.1418
 1554TIP3    H126077   3.664   4.288  13.007  0.7153 -2.1155 -1.3258
 1554TIP3    H226078   3.755   4.217  13.106  1.4545 -0.5809 -0.8675
 1555TIP3   OH226079   3.369   0.932  12.783  0.0970  0.2614  0.9388
 1555TIP3    H126080   3.393   0.871  12.713  0.5743  2.1061 -0.6052
 1555TIP3    H226081   3.275   0.943  12.774  0.2043  0.7420  0.3492
 1556TIP3   OH226082   3.680   4.021   4.606  0.1835  0.1952  0.3654
 1556TIP3    H126083   3.682   4.044   4.699  0.0454 -0.3620  0.5091
 1556TIP3    H226084   3.711   4.100   4.561  2.1089 -0.1547  0.9832
 1557TIP3   OH226085   4.329   3.586   3.523 -0.4412 -0.2292 -0.2589
 1557TIP3    H126086   4.378   3.535   3.588 -1.2295 -0.6370  0.0241
 1557TIP3    H226087   4.396   3.619   3.463  0.3263  0.3750  0.9069
 1558TIP3   OH226088   4.515   2.212   2.218  0.0011  0.2637  0.3362
 1558TIP3    H126089   4.461   2.134   2.205 -0.1414  0.3184  0.5803
 1558TIP3    H226090   4.503   2.263   2.138 -0.1900  0.2026  0.3247
 1559TIP3   OH226091   5.326   0.048   1.751 -0.0924  0.0102 -0.2443
 1559TIP3    H126092   5.295   0.137   1.763  2.3402  0.7394  1.1740
 1559TIP3    H226093   5.338   0.014   1.839  0.1396 -1.3243 -0.7632
 1560TIP3   OH226094   1.545   1.588   0.286  0.0805  0.2621  0.0451
 1560TIP3    H126095   1.480   1.628   0.344  0.0745  1.4822 -0.7693
 1560TIP3    H226096   1.494   1.554   0.213  0.0563 -1.5483  0.8663
 1561TIP3   OH226097   3.682   1.505  15.520 -0.3843  0.5750  0.3350
 1561TIP3    H126098   3.632   1.547  15.451 -0.3481 -0.9402 -0.6632
 1561TIP3    H226099   3.728   1.432  15.477  2.7838  1.8904  1.1632
 1562TIP3   OH226100   1.036   2.565   7.077 -0.2488  0.7023  0.4300
 1562TIP3    H126101   1.032   2.521   6.992 -2.0659  0.7245  0.4692
 1562TIP3    H226102   1.009   2.655   7.058 -1.7798  0.4329  1.1628
 1563TIP3   OH226103   5.009   6.617  17.185  0.5458  0.3569 -0.8843
 1563TIP3    H126104   4.932   6.562  17.205  0.2501  0.8217 -0.7346
 1563TIP3    H226105   5.050   6.632  17.270  0.8051  0.1157 -0.9621
 1564TIP3   OH226106   2.851   3.262  13.094  0.7278  0.0559 -0.0820
 1564TIP3    H126107   2.841   3.236  13.186  0.4550  1.6450  0.3756
 1564TIP3    H226108   2.763   3.253  13.058  0.8148 -0.4776 -0.1641
 1565TIP3   OH226109   6.152   1.664  16.558  0.1730 -0.1220  0.4595
 1565TIP3    H126110   6.232   1.665  16.504 -0.2173 -0.8274 -0.1345
 1565TIP3    H226111   6.087   1.709  16.504 -0.3832 -1.3653  0.0708
 1566TIP3   OH226112   3.588   4.057  16.767 -0.4253 -0.1969 -0.5140
 1566TIP3    H126113   3.537   3.994  16.716  0.8734 -2.1902  0.4851
 1566TIP3    H226114   3.679   4.026  16.760  0.3104  1.7140 -0.1387
 1567TIP3   OH226115   3.174   4.848   2.448  0.0350  0.1482  0.2295
 1567TIP3    H126116   3.247   4.836   2.387  2.3385  0.3546  2.7066
 1567TIP3    H226117   3.174   4.941   2.468 -0.5953  0.0700  0.6195
 1568TIP3   OH226118   4.098   4.992  15.903  0.0402  0.2316 -0.2325
 1568TIP3    H126119   4.175   5.045  15.880  0.8947 -0.8587  0.0577
 1568TIP3    H226120   4.118   4.904  15.871 -1.4290  0.0862 -0.8455
 1569TIP3   OH226121   0.402   2.044  12.532 -0.2660  0.3819 -0.0934
 1569TIP3    H126122   0.378   2.090  12.451 -1.2407 -1.5323 -0.9603
 1569TIP3    H226123   0.488   2.079  12.555 -1.3006  3.2445 -0.1790
 1570TIP3   OH226124   0.803   0.924  14.253 -0.5237 -0.0876 -0.0616
 1570TIP3    H126125   0.754   0.927  14.171  0.5434  0.0948 -0.7149
 1570TIP3    H226126   0.740   0.892  14.317 -1.5183  0.2406 -0.8466
 1571TIP3   OH226127   6.293   4.706  12.757 -0.2717 -0.4180 -0.1966
 1571TIP3    H126128   6.301   4.747  12.843  3.7556  0.9055 -0.9646
 1571TIP3    H226129   6.320   4.775  12.695  0.6627 -2.4178 -2.1427
 1572TIP3   OH226130   1.106   3.439   3.057 -0.1249  0.1742  0.3581
 1572TIP3    H126131   1.018   3.405   3.040  0.4836  0.1650 -4.0374
 1572TIP3    H226132   1.094   3.534   3.066 -0.5787  0.2168 -0.5835
 1573TIP3   OH226133   3.038   1.162  15.627 -0.3080 -0.2709  0.1672
 1573TIP3    H126134   2.955   1.117  15.612 -0.4673  0.8699 -3.2430
 1573TIP3    H226135   3.020   1.225  15.697 -1.8587 -1.0946  0.5357
 1574TIP3   OH226136   1.699   2.477   1.623 -0.3320  0.0803 -0.3516
 1574TIP3    H126137   1.616   2.522   1.614  0.6236  1.6610 -1.8889
 1574TIP3    H226138   1.742   2.487   1.538  1.9684  0.4579  0.7595
 1575TIP3   OH226139   1.227   1.944  14.434 -0.3019 -0.6820 -0.0791
 1575TIP3    H126140   1.183   1.867  14.471 -1.0532 -0.4962 -0.5642
 1575TIP3    H226141   1.181   1.961  14.352  0.4918 -0.2935 -0.4527
 1576TIP3   OH226142   4.742   6.176  15.359 -0.5222  0.1721  0.7094
 1576TIP3    H126143   4.687   6.117  15.308 -0.2260  0.3407  0.1870
 1576TIP3    H226144   4.829   6.170  15.319 -0.2783  0.2930  1.2054
 1577TIP3   OH226145   2.529   3.574  14.568  0.5755 -0.2926  0.4975
 1577TIP3    H126146   2.477   3.566  14.488 -0.6688  1.0253  1.1024
 1577TIP3    H226147   2.479   3.526  14.634 -0.6944  2.0771  1.3968
 1578TIP3   OH226148   5.094   1.769   3.535 -0.8540  0.5674 -0.4097
 1578TIP3    H126149   5.085   1.675   3.553 -0.7605  0.5516 -0.4411
 1578TIP3    H226150   5.050   1.812   3.608  0.3037  0.5183  0.3498
 1579TIP3   OH226151   1.206   0.496   2.239 -0.2837 -0.3695 -0.0851
 1579TIP3    H126152   1.215   0.526   2.329 -1.3417 -0.6735  0.1277
 1579TIP3    H226153   1.164   0.569   2.193 -0.5776 -0.5662 -0.1286
 1580TIP3   OH226154   5.834   2.976  14.023 -0.4033  0.0746  0.0350
 1580TIP3    H126155   5.796   2.916  14.087  3.8303 -1.8499  1.1323
 1580TIP3    H226156   5.917   2.935  13.999  0.8516  3.5619 -2.4108
 1581TIP3   OH226157   0.135   1.226   0.968  0.5656 -0.1166 -1.0082
 1581TIP3    H126158   0.196   1.177   0.912  2.6129 -1.0545  1.7830
 1581TIP3    H226159   0.156   1.318   0.952  1.2962 -0.3772 -1.6037
 1582TIP3   OH226160   0.172   6.014   1.218  0.4138 -0.0607  0.0827
 1582TIP3    H126161   0.249   5.992   1.272  0.5563 -0.7453 -0.3821
 1582TIP3    H226162   0.121   6.074   1.272  1.2063  0.2896  0.4598
 1583TIP3   OH226163   6.307   4.031  12.573  0.6873 -0.5320 -0.2273
 1583TIP3    H126164   6.370   4.082  12.521 -2.2533  3.0347 -0.6863
 1583TIP3    H226165   6.329   4.051  12.664 -0.1506  1.3862 -0.3953
 1584TIP3   OH226166   0.731   2.164  11.326  0.5364 -0.1721  0.2393
 1584TIP3    H126167   0.707   2.185  11.235 -1.0989  0.2182  0.7183
 1584TIP3    H226168   0.782   2.240  11.355 -0.4935  0.5594  0.1935
 1585TIP3   OH226169   2.828   1.755   3.265 -1.0084 -0.0674  0.3989
 1585TIP3    H126170   2.903   1.762   3.323 -0.2447 -3.1733 -0.0443
 1585TIP3    H226171   2.806   1.846   3.242  1.8261  0.9767  1.4610
 1586TIP3   OH226172   4.695   0.446   6.003 -0.2288 -0.2118  1.0287
 1586TIP3    H126173   4.632   0.444   5.931 -0.0695  0.5664  0.8497
 1586TIP3    H226174   4.773   0.403   5.967  0.3600  1.4389  0.1894
 1587TIP3   OH226175   0.596   3.804   1.475  0.3517  0.0451 -0.3283
 1587TIP3    H126176   0.661   3.841   1.535 -0.3799  1.2661 -0.2477
 1587TIP3    H226177   0.512   3.821   1.519  0.0003 -2.6269  0.1929
 1588TIP3   OH226178   3.078   1.453   1.455 -0.2139 -0.4826 -0.4978
 1588TIP3    H126179   3.097   1.547   1.457  2.6072 -0.9331 -0.9227
 1588TIP3    H226180   3.027   1.441   1.375 -1.9816  0.8337  0.3654
 1589TIP3   OH226181   5.749   5.157   5.965  0.0680 -0.2518 -0.1650
 1589TIP3    H126182   5.817   5.097   5.935  1.0702 -0.1371  1.6989
 1589TIP3    H226183   5.794   5.215   6.027 -1.6386  0.0630  0.8504
 1590TIP3   OH226184   3.658   3.186  12.017  0.1330 -0.0825 -0.1628
 1590TIP3    H126185   3.580   3.151  12.060 -0.7170 -0.3947 -1.8588
 1590TIP3    H226186   3.628   3.268  11.977  0.8885  0.1896 -0.1836
 1591TIP3   OH226187   3.612   0.308  11.479  0.0318  0.2812 -0.3850
 1591TIP3    H126188   3.689   0.260  11.449  0.0218  0.7390 -1.1918
 1591TIP3    H226189   3.551   0.241  11.508  0.5617 -0.1092 -0.1592
 1592TIP3   OH226190   0.708   5.802   3.201  0.0777  0.5646 -0.2939
 1592TIP3    H126191   0.713   5.708   3.184  0.3272  0.5780 -0.2957
 1592TIP3    H226192   0.796   5.835   3.180 -0.5583  1.1299 -2.3379
 1593TIP3   OH226193   4.156   5.467   1.518 -0.4402  0.0408 -0.0887
 1593TIP3    H126194   4.131   5.375   1.528 -0.6254  0.1313  0.2975
 1593TIP3    H226195   4.105   5.499   1.444 -0.2784 -0.1996 -0.3070
 1594TIP3   OH226196   5.995   1.619   2.927  0.0112  0.1351  0.1005
 1594TIP3    H126197   5.905   1.617   2.893  0.4005  2.9501 -1.3903
 1594TIP3    H226198   6.037   1.543   2.887 -1.3360 -0.4319 -0.3030
 1595TIP3   OH226199   3.610   2.300  14.154  0.1518 -0.2120 -0.3885
 1595TIP3    H126200   3.667   2.372  14.180  0.2495 -0.1959 -0.6511
 1595TIP3    H226201   3.661   2.221  14.173 -0.2000 -0.2429  0.5130
 1596TIP3   OH226202   4.846   1.300  10.908 -0.4382 -0.4172  0.5283
 1596TIP3    H126203   4.924   1.329  10.861 -0.5032 -0.8332  0.1564
 1596TIP3    H226204   4.822   1.217  10.866 -1.0594 -0.3114  0.6656
 1597TIP3   OH226205   1.743   6.570  17.031  0.0368  0.0868 -0.1903
 1597TIP3    H126206   1.803   6.641  17.011 -1.3218  0.8390 -1.8529
 1597TIP3    H226207   1.746   6.513  16.954 -1.0357 -0.0833 -0.1333
 1598TIP3   OH226208   2.367   4.292  14.206  0.1214  0.7188 -0.2508
 1598TIP3    H126209   2.347   4.231  14.135  1.0844  2.6831 -2.3000
 1598TIP3    H226210   2.310   4.264  14.278 -0.5129 -1.6620 -1.5787
 1599TIP3   OH226211   5.974   6.122   5.361 -0.1847  0.2930  0.0060
 1599TIP3    H126212   5.880   6.142   5.359 -0.4822 -0.8272  1.4762
 1599TIP3    H226213   5.993   6.104   5.453  1.4777  0.4259 -0.2768
 1600TIP3   OH226214   0.706   5.267   4.811 -0.3388  0.4523  0.1074
 1600TIP3    H126215   0.702   5.339   4.874 -3.0975  0.2662  0.2380
 1600TIP3    H226216   0.677   5.190   4.860  0.7638 -0.4192 -0.5442
 1601TIP3   OH226217   1.589   4.690   4.439  0.4919 -0.2864 -0.6412
 1601TIP3    H126218   1.655   4.757   4.456 -0.8587  1.4937 -1.9389
 1601TIP3    H226219   1.601   4.667   4.347 -1.2228  0.8169 -1.2051
 1602TIP3   OH226220   2.367   0.669  17.083 -0.1079  0.1461 -0.2693
 1602TIP3    H126221   2.402   0.733  17.021  0.3230  0.4831  0.3181
 1602TIP3    H226222   2.445   0.627  17.121 -0.3768 -0.3667 -0.2755
 1603TIP3   OH226223   0.094   4.223   4.881 -0.3847  0.1764 -0.7358
 1603TIP3    H126224   0.040   4.150   4.912 -0.7176  0.9262  0.5253
 1603TIP3    H226225   0.141   4.188   4.806 -0.1934 -1.4741  0.1106
 1604TIP3   OH226226   2.966   5.408  10.795  0.6307  0.4729  0.3166
 1604TIP3    H126227   3.057   5.430  10.777  0.9078 -0.4623  0.5235
 1604TIP3    H226228   2.964   5.312  10.796 -0.3322  0.4836  0.4235
 1605TIP3   OH226229   2.846   4.580   2.748  0.1847 -0.0374  0.1728
 1605TIP3    H126230   2.906   4.584   2.673  0.5096  1.6739  0.5000
 1605TIP3    H226231   2.776   4.522   2.718  0.2966  0.6150 -1.4910
 1606TIP3   OH226232   5.039   6.027  15.898 -0.0555 -0.2247  0.6340
 1606TIP3    H126233   5.132   6.011  15.913 -0.1449  1.0051  2.9186
 1606TIP3    H226234   5.037   6.101  15.837  0.3971 -1.7125 -1.2576
 1607TIP3   OH226235   3.242   4.765  11.808  0.0079 -0.0779 -0.0142
 1607TIP3    H126236   3.173   4.775  11.873 -0.4879 -1.9817 -0.1876
 1607TIP3    H226237   3.205   4.800  11.727 -0.7619 -1.0321 -0.0916
 1608TIP3   OH226238   5.458   2.048   6.138 -0.1274 -0.2976  0.5862
 1608TIP3    H126239   5.532   2.107   6.152  1.2005 -1.5938 -0.6341
 1608TIP3    H226240   5.432   2.020   6.225  0.4152  0.6441  1.0623
 1609TIP3   OH226241   6.207   0.361   2.947 -0.0918 -0.0466 -0.2284
 1609TIP3    H126242   6.185   0.437   3.001 -1.1480 -1.8156  1.9947
 1609TIP3    H226243   6.292   0.332   2.979 -0.0439 -0.2452 -0.5347
 1610TIP3   OH226244   0.094   5.235  12.822 -0.1787 -0.3392 -0.0007
 1610TIP3    H126245   0.147   5.293  12.876  0.3675  0.1921 -1.0998
 1610TIP3    H226246   0.008   5.235  12.865 -0.3547  1.6953 -0.2630
 1611TIP3   OH226247   6.223   5.865   5.618 -0.0433  0.4538 -0.2795
 1611TIP3    H126248   6.133   5.831   5.623 -0.2079  1.0646  1.8114
 1611TIP3    H226249   6.277   5.797   5.657  0.3728  0.3109 -1.0690
 1612TIP3   OH226250   5.839   6.676  13.462  0.2644 -0.0026 -0.1565
 1612TIP3    H126251   5.757   6.722  13.484  0.3222 -0.4785  1.1578
 1612TIP3    H226252   5.860   6.707  13.374 -0.3591  1.5468  0.1880
 1613TIP3   OH226253   4.898   4.404   3.075 -0.4195  0.3533 -0.8899
 1613TIP3    H126254   4.823   4.450   3.113 -1.2152 -0.6194 -1.2464
 1613TIP3    H226255   4.860   4.343   3.013  0.5287 -1.3732  0.1549
 1614TIP3   OH226256   2.233   0.659   2.952 -0.1084 -0.4771  0.0321
 1614TIP3    H126257   2.218   0.565   2.963 -0.3241 -0.4481 -0.0138
 1614TIP3    H226258   2.234   0.672   2.857  0.1343 -0.4675  0.0363
 1615TIP3   OH226259   2.448   4.308  16.676 -0.4878  0.0276  0.4676
 1615TIP3    H126260   2.389   4.378  16.705 -0.5212 -0.0177  0.5077
 1615TIP3    H226261   2.391   4.247  16.629 -0.3157  0.4631 -0.3323
 1616TIP3   OH226262   4.042   2.608   1.578 -0.0686 -0.1909 -0.8164
 1616TIP3    H126263   3.957   2.645   1.552 -0.3441 -0.3081 -0.0961
 1616TIP3    H226264   4.058   2.645   1.665  0.5336 -0.3149 -0.8746
 1617TIP3   OH226265   4.431   1.463  12.804  0.1528 -0.7812  0.0425
 1617TIP3    H126266   4.378   1.389  12.833  0.6529 -0.6025  1.4701
 1617TIP3    H226267   4.401   1.537  12.857  0.2980 -0.1701 -0.7121
 1618TIP3   OH226268   0.203   3.513   2.148 -0.0482 -0.1677  0.4885
 1618TIP3    H126269   0.143   3.578   2.186  1.0736  1.2575 -0.0693
 1618TIP3    H226270   0.280   3.564   2.123  0.8017 -1.7120 -0.1504
 1619TIP3   OH226271   3.621   1.457   4.881  0.3174  0.4707  0.5923
 1619TIP3    H126272   3.690   1.507   4.838 -0.6171  1.6584  0.4054
 1619TIP3    H226273   3.540   1.505   4.860 -0.6633 -1.2977  0.1743
 1620TIP3   OH226274   4.658   6.238   4.180  0.0746 -0.9240  0.5531
 1620TIP3    H126275   4.714   6.283   4.243 -1.0278  0.0737  0.8633
 1620TIP3    H226276   4.683   6.146   4.187 -0.0688 -0.8556  2.5237
 1621TIP3   OH226277   4.387   2.559   3.614  0.1075 -0.4883  0.1467
 1621TIP3    H126278   4.301   2.587   3.644 -0.5695 -2.5763  0.3101
 1621TIP3    H226279   4.435   2.538   3.695  0.3750 -0.4187  0.0082
 1622TIP3   OH226280   5.963   1.787   0.961 -0.2175 -0.4852  0.4982
 1622TIP3    H126281   6.045   1.821   0.995 -0.5670 -0.3545  1.2219
 1622TIP3    H226282   5.975   1.692   0.959  0.4794 -0.3839 -0.7979
 1623TIP3   OH226283   2.799   4.952   4.536 -0.1423  0.1256 -0.0231
 1623TIP3    H126284   2.792   4.948   4.631 -0.2750  1.3315  0.0380
 1623TIP3    H226285   2.877   5.007   4.520 -0.8921  1.0656 -0.5779
 1624TIP3   OH226286   3.077   0.062  13.229 -0.0806  0.4590 -0.1147
 1624TIP3    H126287   3.106  -0.028  13.221 -2.4712 -0.3606 -0.2648
 1624TIP3    H226288   3.081   0.098  13.140  0.3176  0.3349 -0.1481
 1625TIP3   OH226289   5.795   2.206   2.928 -0.1921 -0.2263  0.5052
 1625TIP3    H126290   5.780   2.247   2.842 -1.9515  0.9528  1.3255
 1625TIP3    H226291   5.818   2.115   2.907  0.7823  0.3679 -1.2545
 1626TIP3   OH226292   0.785   2.893  16.276  0.7693 -0.0348  0.3674
 1626TIP3    H126293   0.727   2.966  16.295 -0.7084 -0.4436 -2.1416
 1626TIP3    H226294   0.833   2.920  16.198  1.7447 -0.9222  0.6273
 1627TIP3   OH226295   0.321   5.757  16.774 -0.2749 -0.3802  0.2456
 1627TIP3    H126296   0.318   5.773  16.679  0.0219  3.6274  0.7341
 1627TIP3    H226297   0.243   5.801  16.807  1.0009  0.5917  2.0861
 1628TIP3   OH226298   0.937   3.047  17.194 -0.6707 -0.2912  0.1418
 1628TIP3    H126299   0.937   3.071  17.287  2.0952  3.0203 -0.5168
 1628TIP3    H226300   0.846   3.024  17.175 -1.7786  1.0227  3.1895
 1629TIP3   OH226301   5.729   0.089   3.335  0.2921  0.6666  0.0067
 1629TIP3    H126302   5.817   0.070   3.304 -0.5721 -2.0785 -1.0851
 1629TIP3    H226303   5.701   0.164   3.283  1.5672  0.8246 -0.4883
 1630TIP3   OH226304   5.296   5.065  16.994  0.6577  0.4732 -0.3571
 1630TIP3    H126305   5.327   5.060  17.084 -0.1796  1.7765  0.0347
 1630TIP3    H226306   5.211   5.109  17.001  0.8604  1.1344 -1.8418
 1631TIP3   OH226307   3.450   3.335  12.483 -0.3980 -0.0441  0.2153
 1631TIP3    H126308   3.397   3.302  12.555 -0.0167  0.7159  0.8681
 1631TIP3    H226309   3.410   3.299  12.404 -0.2571 -1.6788  0.8587
 1632TIP3   OH226310   6.354   2.483   6.124  0.4680  0.4918  0.3861
 1632TIP3    H126311   6.348   2.473   6.219 -1.4667 -1.9011  0.0931
 1632TIP3    H226312   6.276   2.532   6.100  0.7632  0.7691 -0.0350
 1633TIP3   OH226313   0.925   5.949   3.096  0.2892  0.2108 -0.9293
 1633TIP3    H126314   0.976   5.935   3.017 -0.2991 -1.2590 -1.0771
 1633TIP3    H226315   0.942   6.040   3.120 -0.5135  1.1159 -3.4533
 1634TIP3   OH226316   2.150   2.616   2.756  0.2570 -0.2381 -0.1256
 1634TIP3    H126317   2.160   2.710   2.772 -0.3141  0.1157 -1.6867
 1634TIP3    H226318   2.235   2.587   2.724  0.3051 -0.1572 -0.0702
 1635TIP3   OH226319   3.389   5.604  16.246  0.0145 -0.5722 -0.0994
 1635TIP3    H126320   3.435   5.582  16.165  0.4378  0.3262 -0.1163
 1635TIP3    H226321   3.330   5.675  16.222 -0.7705 -1.1477  0.1137
 1636TIP3   OH226322   3.529   2.234  11.625  0.2729 -0.1503  0.6096
 1636TIP3    H126323   3.451   2.286  11.606  0.3382 -0.3049 -0.1273
 1636TIP3    H226324   3.495   2.146  11.642  0.3110 -0.3466 -0.2547
 1637TIP3   OH226325   5.726   3.512   4.445 -0.1137 -0.9726  0.5850
 1637TIP3    H126326   5.758   3.602   4.456  2.3002 -1.9174  2.3219
 1637TIP3    H226327   5.632   3.521   4.434  0.1262  1.7996 -0.0281
 1638TIP3   OH226328   6.515   2.887  16.756  0.0359 -0.3439 -0.4527
 1638TIP3    H126329   6.542   2.803  16.720  0.4646 -1.2276  1.7780
 1638TIP3    H226330   6.455   2.865  16.827  0.5848  1.1746  0.5337
 1639TIP3   OH226331   2.112   3.693   4.126  0.2654 -0.2915 -0.6841
 1639TIP3    H126332   2.158   3.668   4.206  0.3160  1.3160 -0.1668
 1639TIP3    H226333   2.176   3.681   4.056  1.7166  2.2524  0.0629
 1640TIP3   OH226334   3.682   2.330   1.311  0.3872 -0.0677 -0.3087
 1640TIP3    H126335   3.718   2.418   1.321 -2.8489  1.2586  1.5792
 1640TIP3    H226336   3.669   2.299   1.401 -0.8074 -1.4189 -0.8995
 1641TIP3   OH226337   4.214   1.997  16.104  0.2671  0.1796  0.1661
 1641TIP3    H126338   4.219   2.073  16.046 -0.7135 -0.3101 -0.5856
 1641TIP3    H226339   4.249   1.925  16.051 -0.4120 -0.2206  0.2542
 1642TIP3   OH226340   1.585   1.184   5.313  0.8602  0.5765  0.6210
 1642TIP3    H126341   1.590   1.164   5.220 -0.5874  1.1309  0.4035
 1642TIP3    H226342   1.619   1.273   5.321  3.2533 -0.3025  0.9949
 1643TIP3   OH226343   4.383   1.295  14.676 -0.2300  0.6338  0.3413
 1643TIP3    H126344   4.355   1.333  14.593 -0.1502 -0.7100 -0.3187
 1643TIP3    H226345   4.310   1.239  14.702  0.2391  0.1205  0.5680
 1644TIP3   OH226346   1.522   2.120  14.202 -0.0830  0.0758  0.8002
 1644TIP3    H126347   1.545   2.072  14.123  0.4980 -0.9203  1.5444
 1644TIP3    H226348   1.451   2.178  14.175  0.4316  0.1183 -0.5582
 1645TIP3   OH226349   2.781   1.970  12.458  0.1279 -0.5581 -0.0117
 1645TIP3    H126350   2.785   1.936  12.368  2.5182 -0.0937 -0.1575
 1645TIP3    H226351   2.707   2.030  12.458  0.1735 -0.4462 -1.7154
 1646TIP3   OH226352   4.051   0.673  10.862  0.2591 -0.2626  0.1169
 1646TIP3    H126353   4.109   0.596  10.858 -0.2633 -0.7081  0.8354
 1646TIP3    H226354   4.091   0.736  10.802  0.4888 -1.2375 -0.7790
 1647TIP3   OH226355   4.494   3.837  16.780  0.1158 -0.2241 -0.0572
 1647TIP3    H126356   4.438   3.763  16.759  2.8290 -1.9492 -1.8896
 1647TIP3    H226357   4.450   3.913  16.741 -1.4611 -1.2827 -0.3953
 1648TIP3   OH226358   4.257   0.973  11.261 -0.6993  0.3307 -0.9781
 1648TIP3    H126359   4.255   0.921  11.341  0.3933  0.4697 -0.8426
 1648TIP3    H226360   4.341   0.952  11.221  0.1145  2.5047 -0.5412
 1649TIP3   OH226361   0.711   3.225   0.180 -0.0397  0.4576  0.4554
 1649TIP3    H126362   0.668   3.277   0.111  0.7329  1.9778  1.0758
 1649TIP3    H226363   0.708   3.135   0.147  1.7305  1.2915 -2.3771
 1650TIP3   OH226364   6.652   2.696  13.320 -0.5885 -0.7830  0.1703
 1650TIP3    H126365   6.719   2.672  13.256 -0.6530 -0.8878  0.1414
 1650TIP3    H226366   6.687   2.774  13.364 -1.9545  1.3499 -2.2407
 1651TIP3   OH226367   4.931   4.588   2.844  0.6385  1.1059  0.3875
 1651TIP3    H126368   4.928   4.595   2.748 -0.3440 -0.2275  0.2895
 1651TIP3    H226369   5.005   4.531   2.862  0.1236  0.4111  0.3395
 1652TIP3   OH226370   4.184   1.806  11.662 -0.6998 -0.3464  0.4287
 1652TIP3    H126371   4.112   1.787  11.601 -0.6597 -1.4233  0.6996
 1652TIP3    H226372   4.258   1.755  11.629 -0.5560 -0.6042  1.1299
 1653TIP3   OH226373   4.319   0.975  15.081 -0.0582 -0.5760  0.2364
 1653TIP3    H126374   4.270   1.056  15.074 -1.7617 -1.5774  0.0176
 1653TIP3    H226375   4.407   1.002  15.108 -0.2333  1.4107 -1.0155
 1654TIP3   OH226376   1.120   3.481   2.451 -0.2545  0.3495  0.6167
 1654TIP3    H126377   1.053   3.547   2.436 -1.5537 -0.8063  1.1217
 1654TIP3    H226378   1.144   3.450   2.364  0.1180  1.2198  0.4000
 1655TIP3   OH226379   3.343   6.537   2.452 -0.0910  0.2944 -0.1294
 1655TIP3    H126380   3.407   6.470   2.476 -1.3005 -1.9252 -2.5400
 1655TIP3    H226381   3.393   6.602   2.403  0.8387  0.3716  0.8809
 1656TIP3   OH226382   1.972   2.384  14.043 -0.2222 -0.0076 -0.0447
 1656TIP3    H126383   1.997   2.371  13.952  0.1253  0.2412  0.0124
 1656TIP3    H226384   2.013   2.311  14.090  0.9645  0.7565  0.1428
 1657TIP3   OH226385   3.008   3.780   3.294  0.3447 -0.4438 -0.1233
 1657TIP3    H126386   2.977   3.869   3.277 -0.2198 -0.5676  0.2403
 1657TIP3    H226387   2.964   3.726   3.228 -0.0280 -0.5847  0.2387
 1658TIP3   OH226388   5.996   0.880  12.221  0.3010  0.6256 -0.3509
 1658TIP3    H126389   5.991   0.864  12.126 -1.6503 -0.3926 -0.1475
 1658TIP3    H226390   5.971   0.796  12.259 -1.4820  1.7051  1.0047
 1659TIP3   OH226391   6.610   3.520   2.866  0.5041  0.0914  0.1995
 1659TIP3    H126392   6.684   3.580   2.865 -0.5230  1.4056  0.0864
 1659TIP3    H226393   6.569   3.534   2.952  0.4674 -0.7228  0.3194
 1660TIP3   OH226394   3.038   2.068   2.838  0.7180  0.1530 -0.7953
 1660TIP3    H126395   3.057   2.033   2.751  0.1120 -0.5463 -0.6490
 1660TIP3    H226396   3.058   2.162   2.830  0.5875  0.1178 -1.7117
 1661TIP3   OH226397   3.622   2.019   5.070  0.4457  0.3122 -0.5880
 1661TIP3    H126398   3.547   2.060   5.027 -0.2614  0.6739  0.9110
 1661TIP3    H226399   3.657   1.958   5.005  0.4188  1.9771 -2.2251
 1662TIP3   OH226400   6.318   0.734  12.069 -0.1024 -0.0355 -0.2009
 1662TIP3    H126401   6.247   0.671  12.084 -1.1091  0.7152 -1.5691
 1662TIP3    H226402   6.383   0.713  12.136 -3.2144  1.6891  3.8301
 1663TIP3   OH226403   0.245   5.750  15.265  0.1840  0.0751 -0.3633
 1663TIP3    H126404   0.288   5.835  15.274  1.5717 -0.5576 -0.8249
 1663TIP3    H226405   0.277   5.715  15.182 -1.7762 -0.1417 -1.0942
 1664TIP3   OH226406   3.989   0.945   1.688 -0.1927 -0.0509  0.6053
 1664TIP3    H126407   3.969   1.001   1.613  1.7810 -0.5189 -0.3196
 1664TIP3    H226408   4.025   1.005   1.753  1.0542 -0.0729 -0.0393
 1665TIP3   OH226409   4.161   5.788  16.127  0.3895 -0.0961  0.4593
 1665TIP3    H126410   4.207   5.854  16.075  0.0368  0.3158  0.6740
 1665TIP3    H226411   4.222   5.713  16.128  0.3829 -0.1436 -0.6053
 1666TIP3   OH226412   6.055   4.721   1.012  0.6358 -0.4175 -0.4443
 1666TIP3    H126413   6.081   4.808   0.981  2.9386 -0.6801  0.5663
 1666TIP3    H226414   5.977   4.700   0.960  1.0031  1.5255 -1.9170
 1667TIP3   OH226415   6.158   0.911  17.536 -0.4640  0.0342  0.1932
 1667TIP3    H126416   6.196   0.825  17.517  1.4916  0.8650  0.1256
 1667TIP3    H226417   6.165   0.919  17.631  0.1480  0.4405  0.1209
 1668TIP3   OH226418   5.240   2.785  14.839  0.4845  0.4063  0.0169
 1668TIP3    H126419   5.225   2.857  14.777 -2.5176 -0.1037 -0.0332
 1668TIP3    H226420   5.226   2.825  14.925 -1.8644 -0.1385 -0.0399
 1669TIP3   OH226421   6.594   2.551  15.804  0.2262  0.1732  0.7621
 1669TIP3    H126422   6.630   2.466  15.830 -1.9855 -1.8637 -2.1896
 1669TIP3    H226423   6.501   2.544  15.824 -0.0642  1.7652  0.0705
 1670TIP3   OH226424   5.447   3.743   5.471  0.6962  0.3306 -0.5197
 1670TIP3    H126425   5.538   3.713   5.484  0.3039 -1.8025 -2.1494
 1670TIP3    H226426   5.409   3.679   5.412 -1.2921  2.3526 -1.5922
 1671TIP3   OH226427   1.991   0.571  14.957 -0.1292  0.2635  0.4008
 1671TIP3    H126428   1.979   0.476  14.963  1.6854 -0.0835 -0.4779
 1671TIP3    H226429   2.000   0.587  14.863 -0.2157  1.2716  0.5574
 1672TIP3   OH226430   5.482   4.074  14.097 -0.0733 -0.1573 -0.6817
 1672TIP3    H126431   5.553   4.013  14.114 -0.2373 -0.3009 -0.5151
 1672TIP3    H226432   5.408   4.042  14.149 -1.0861 -1.5305 -2.8473
 1673TIP3   OH226433   3.535   2.556  13.006 -0.1400  0.0733 -0.4134
 1673TIP3    H126434   3.455   2.602  13.033 -0.4757 -0.4636 -0.4755
 1673TIP3    H226435   3.556   2.594  12.920 -1.5112 -1.1884 -1.3717
 1674TIP3   OH226436   4.675   2.983  13.278  0.0771  0.0953  0.3288
 1674TIP3    H126437   4.701   2.899  13.240  1.0016 -0.0062  1.1571
 1674TIP3    H226438   4.696   2.975  13.371  0.7830  1.4809  0.3122
 1675TIP3   OH226439   1.475   5.650  16.584  0.3818  0.2332 -0.1736
 1675TIP3    H126440   1.559   5.696  16.584 -0.1843  1.4416  2.1351
 1675TIP3    H226441   1.463   5.621  16.675 -0.9246 -1.4568 -0.8144
 1676TIP3   OH226442   3.031   1.345  13.778  0.4069 -0.0259  0.3330
 1676TIP3    H126443   3.010   1.402  13.704  0.1663  1.2420  1.3434
 1676TIP3    H226444   3.039   1.258  13.739 -0.9388  0.3921 -1.0022
 1677TIP3   OH226445   0.881   4.396  11.661  0.5887  0.2628 -0.3914
 1677TIP3    H126446   0.796   4.439  11.677  0.9445  0.2591  1.6810
 1677TIP3    H226447   0.871   4.356  11.574 -1.4246  0.5133 -0.3259
 1678TIP3   OH226448   2.873   4.384  11.461  0.1584  0.6001  0.3330
 1678TIP3    H126449   2.878   4.305  11.516  3.8228  0.6737  0.3462
 1678TIP3    H226450   2.884   4.352  11.372 -0.8065  0.9199  0.0879
 1679TIP3   OH226451   4.658   1.459  17.407  0.2424  0.6390 -0.5507
 1679TIP3    H126452   4.744   1.417  17.409 -0.4711 -0.8880  0.8823
 1679TIP3    H226453   4.622   1.437  17.321  0.0376 -1.5141  0.0291
 1680TIP3   OH226454   2.192   1.318   1.002  1.0695 -0.2695  0.2284
 1680TIP3    H126455   2.164   1.332   1.093  1.3948  1.4232  0.0998
 1680TIP3    H226456   2.110   1.313   0.952  0.6901 -4.5643  0.9352
 1681TIP3   OH226457   5.830   4.636  13.325  0.5603  0.1796  0.3241
 1681TIP3    H126458   5.869   4.580  13.257  1.2095  0.3018  0.5823
 1681TIP3    H226459   5.857   4.724  13.302 -2.5360  0.7803 -1.5054
 1682TIP3   OH226460   6.333   3.085  17.600 -0.2981 -0.2242  0.2215
 1682TIP3    H126461   6.388   3.013  17.632 -0.0291  0.0351  0.3495
 1682TIP3    H226462   6.291   3.049  17.521  0.1533 -0.3838  0.0469
 1683TIP3   OH226463   5.919   5.777  16.684  0.0071  0.1909 -0.8341
 1683TIP3    H126464   5.922   5.732  16.600  0.4145 -1.2655 -0.0602
 1683TIP3    H226465   5.999   5.749  16.730 -0.2092  0.9547  0.0500
 1684TIP3   OH226466   0.775   6.224   3.925  0.6774 -0.1235 -0.2244
 1684TIP3    H126467   0.768   6.210   3.830 -2.0518 -0.8441 -0.0038
 1684TIP3    H226468   0.797   6.316   3.934  1.7214 -0.2037 -1.5441
 1685TIP3   OH226469   2.826   1.351   4.141  0.6228 -0.4416 -0.1747
 1685TIP3    H126470   2.843   1.330   4.233 -0.1572 -0.0136  0.0828
 1685TIP3    H226471   2.868   1.280   4.092  0.7307 -0.8778  0.5267
 1686TIP3   OH226472   3.293   0.732  13.203  0.3908 -0.3305 -0.2433
 1686TIP3    H126473   3.347   0.792  13.151 -0.4362 -0.3546 -1.1614
 1686TIP3    H226474   3.309   0.758  13.294  1.8787 -0.3008 -0.4971
 1687TIP3   OH226475   0.711   0.902   3.603  0.4930  0.2730 -0.2054
 1687TIP3    H126476   0.668   0.866   3.526 -0.4501  1.7531 -0.4198
 1687TIP3    H226477   0.697   0.997   3.596  1.7798  0.5842  0.9559
 1688TIP3   OH226478   2.891   3.051  17.587  0.1531  0.2412  0.4157
 1688TIP3    H126479   2.840   2.989  17.639  1.2319  1.0475  2.5628
 1688TIP3    H226480   2.981   3.019  17.594  0.6079  1.5683  0.9127
 1689TIP3   OH226481   1.358   1.767   0.014  0.3060  0.0685 -0.0567
 1689TIP3    H126482   1.410   1.807  -0.055  0.3355 -0.3455 -0.2768
 1689TIP3    H226483   1.403   1.685   0.034  1.1449  0.8555  1.4970
 1690TIP3   OH226484   5.266   5.958  16.377  0.1375 -0.0667  0.4065
 1690TIP3    H126485   5.257   5.863  16.362 -0.7531  0.2023 -0.9843
 1690TIP3    H226486   5.307   5.965  16.463  0.7446 -1.7264  0.2969
 1691TIP3   OH226487   4.471   3.405  11.936  1.1118  0.1194 -0.3044
 1691TIP3    H126488   4.429   3.339  11.881 -0.4459  0.4355  0.4429
 1691TIP3    H226489   4.398   3.446  11.982  2.0360  2.3689 -0.7506
 1692TIP3   OH226490   4.027   6.489  16.572  0.4201 -0.3570  0.5929
 1692TIP3    H126491   4.099   6.526  16.623  1.0548 -0.7848  0.0171
 1692TIP3    H226492   3.956   6.552  16.581  1.0477  0.3383  0.7042
 1693TIP3   OH226493   6.285   2.645  11.942  0.1852  0.5471 -0.0621
 1693TIP3    H126494   6.356   2.657  11.879  1.1705 -1.5984  0.5511
 1693TIP3    H226495   6.222   2.590  11.897 -0.0643  0.6615  0.1458
 1694TIP3   OH226496   5.248   2.664  13.149  0.1457  0.3426  0.1521
 1694TIP3    H126497   5.207   2.688  13.066 -1.3069 -0.2775  0.6663
 1694TIP3    H226498   5.216   2.576  13.168  2.4567 -0.5573  0.1409
 1695TIP3   OH226499   0.681   6.514  16.011  0.1363  0.1009 -0.4403
 1695TIP3    H126500   0.633   6.530  16.092  0.2185 -0.1502 -0.3386
 1695TIP3    H226501   0.721   6.427  16.024  0.7131  0.3574 -0.4735
 1696TIP3   OH226502   6.145   2.984  17.401  0.0606  0.4081 -0.2270
 1696TIP3    H126503   6.081   3.050  17.373  2.8660  2.5336 -2.1455
 1696TIP3    H226504   6.164   2.935  17.321  1.7508  0.6799 -0.0130
 1697TIP3   OH226505   0.063   1.604   5.982  0.6141 -0.0273 -0.0110
 1697TIP3    H126506   0.088   1.685   6.026  1.9808  0.4070 -1.5217
 1697TIP3    H226507  -0.008   1.569   6.036  2.8211 -0.0650  3.1361
 1698TIP3   OH226508   0.630   0.831   3.096 -0.0307 -0.2587 -0.2667
 1698TIP3    H126509   0.568   0.810   3.027  1.3698 -0.8495 -1.3965
 1698TIP3    H226510   0.674   0.748   3.116 -0.4857 -0.1321  1.4482
 1699TIP3   OH226511   4.070   2.844   3.547  0.3636  0.1469  0.0358
 1699TIP3    H126512   3.994   2.843   3.605 -0.0813  0.8769 -0.5042
 1699TIP3    H226513   4.137   2.795   3.593 -0.3161 -0.1775  0.6964
 1700TIP3   OH226514   3.954   2.204   5.580 -0.2328  0.8994 -0.0506
 1700TIP3    H126515   4.025   2.226   5.640 -0.8961  1.4763  0.5365
 1700TIP3    H226516   3.945   2.281   5.524 -0.7982  1.0830  0.2827
 1701TIP3   OH226517   6.596   4.556  13.853  0.0091  0.4495  0.6113
 1701TIP3    H126518   6.587   4.599  13.938 -0.6568 -0.2318  0.8908
 1701TIP3    H226519   6.512   4.512  13.839 -0.1075  1.0373 -0.6750
 1702TIP3   OH226520   6.038   1.074  16.447 -0.1870  0.1394  0.2732
 1702TIP3    H126521   5.955   1.077  16.400 -0.3573 -2.3180  0.2629
 1702TIP3    H226522   6.059   1.165  16.467 -1.3220  1.0842 -2.4359
 1703TIP3   OH226523   1.527   5.591   0.666 -0.0521  0.1629  0.0538
 1703TIP3    H126524   1.611   5.557   0.637 -0.7953 -0.9121 -0.9583
 1703TIP3    H226525   1.505   5.538   0.744  0.0451  0.1925  0.1010
 1704TIP3   OH226526   4.526   1.098   5.460  0.0213 -0.6278 -0.8144
 1704TIP3    H126527   4.477   1.029   5.504  2.1668 -0.9388  1.3415
 1704TIP3    H226528   4.524   1.171   5.522  1.4183 -0.3258 -1.0967
 1705TIP3   OH226529   4.686   1.627   2.473 -0.3618  0.1477  1.1363
 1705TIP3    H126530   4.643   1.547   2.445 -0.4410  0.2056  1.0934
 1705TIP3    H226531   4.766   1.597   2.517 -0.3255  0.0506  1.0056
 1706TIP3   OH226532   1.412   2.902  15.491 -0.2007  0.2001  0.1660
 1706TIP3    H126533   1.417   2.930  15.400  0.2122  2.1215  0.7300
 1706TIP3    H226534   1.483   2.839  15.501  0.6328  1.0135 -0.5057
 1707TIP3   OH226535   1.829   5.685   1.647  0.3786 -0.8359 -1.1172
 1707TIP3    H126536   1.893   5.692   1.576  0.4153  0.5554 -0.9693
 1707TIP3    H226537   1.846   5.761   1.703  0.6241 -2.1199  0.6453
 1708TIP3   OH226538   0.368   2.158   4.414 -0.1851 -0.9737 -0.3535
 1708TIP3    H126539   0.368   2.122   4.326 -1.4136 -0.3832 -0.6088
 1708TIP3    H226540   0.281   2.196   4.425  0.2223 -0.3251  0.8195
 1709TIP3   OH226541   5.996   6.068   3.028 -0.0978 -0.3286 -0.3290
 1709TIP3    H126542   6.083   6.098   3.002  0.4870 -2.9322 -1.8282
 1709TIP3    H226543   6.000   6.060   3.124  0.8562  0.8221 -0.2617
 1710TIP3   OH226544   2.007   2.144   4.310  0.2343 -0.2665  0.1135
 1710TIP3    H126545   2.041   2.122   4.223 -0.3635 -0.5012 -0.0630
 1710TIP3    H226546   1.953   2.221   4.297  0.3082 -0.1793  0.3144
 1711TIP3   OH226547   6.546   4.053   4.466  0.3175  0.1312 -0.5737
 1711TIP3    H126548   6.478   4.118   4.450  1.3886  0.9205 -2.2005
 1711TIP3    H226549   6.501   3.982   4.511 -0.7339  2.2590  1.9461
 1712TIP3   OH226550   4.026   4.856   1.686 -0.1041 -0.0012  0.2594
 1712TIP3    H126551   4.102   4.800   1.668  1.1598  1.2435  1.4606
 1712TIP3    H226552   3.984   4.816   1.762  0.1467  0.0478  0.4258
 1713TIP3   OH226553   1.226   5.337   0.134 -0.4078  0.6804 -0.8137
 1713TIP3    H126554   1.158   5.317   0.199  0.4577  0.2589 -0.0136
 1713TIP3    H226555   1.226   5.433   0.130 -1.0521  0.6848 -0.8264
 1714TIP3   OH226556   1.355   5.640   5.682 -0.5830 -0.1481  0.2801
 1714TIP3    H126557   1.279   5.599   5.642 -0.3876 -0.1947 -0.0436
 1714TIP3    H226558   1.386   5.577   5.747 -1.4869  0.3329  1.2142
 1715TIP3   OH226559   3.216   6.414   3.451 -0.9595 -0.0522  0.4359
 1715TIP3    H126560   3.247   6.505   3.456  0.6096 -0.3810 -1.8613
 1715TIP3    H226561   3.292   6.365   3.419 -1.6250 -2.3024  2.1069
 1716TIP3   OH226562   4.794   5.627   2.862 -0.0488  0.1100 -0.3028
 1716TIP3    H126563   4.710   5.668   2.885 -0.0011  0.6191 -0.9712
 1716TIP3    H226564   4.803   5.644   2.768  0.8506  0.1552 -0.2189
 1717TIP3   OH226565   5.799   3.688   2.626 -0.1886 -0.2225  0.1644
 1717TIP3    H126566   5.826   3.597   2.618 -0.8404 -0.3416 -0.8767
 1717TIP3    H226567   5.821   3.727   2.541 -2.3899 -0.1122 -0.4165
 1718TIP3   OH226568   2.749   6.387  15.942 -0.6559 -0.3446  0.2336
 1718TIP3    H126569   2.686   6.316  15.952 -1.4811  0.6143  2.9190
 1718TIP3    H226570   2.831   6.344  15.918 -1.3853 -2.0808  0.6890
 1719TIP3   OH226571   3.743   4.011  15.511 -0.5570 -0.5240 -0.0422
 1719TIP3    H126572   3.692   3.938  15.547 -2.1288  0.1916 -0.7193
 1719TIP3    H226573   3.697   4.034  15.430  0.7889  0.2565 -0.6125
 1720TIP3   OH226574   2.447   6.245   1.601 -0.1238 -0.3016 -0.3762
 1720TIP3    H126575   2.494   6.324   1.628 -0.0086 -0.7986  0.9505
 1720TIP3    H226576   2.368   6.244   1.656 -0.4982 -0.7228 -0.9090
 1721TIP3   OH226577   6.474   4.794   0.175  0.0027  0.4111  0.4977
 1721TIP3    H126578   6.501   4.739   0.102 -0.5234  1.2105 -0.3281
 1721TIP3    H226579   6.472   4.736   0.251  1.3898 -0.2471  0.0537
 1722TIP3   OH226580   2.112   3.926   3.740 -0.1128 -0.0572  1.2029
 1722TIP3    H126581   2.191   3.940   3.792 -0.0717 -0.6538  1.3018
 1722TIP3    H226582   2.043   3.973   3.787  0.1160  0.1889  1.2914
 1723TIP3   OH226583   3.383   3.062   3.258 -0.1185  0.4307  0.1354
 1723TIP3    H126584   3.395   3.053   3.352 -1.4116  2.5415  0.5691
 1723TIP3    H226585   3.459   3.111   3.228 -0.7841  1.7268  0.5026
 1724TIP3   OH226586   6.290   1.456   0.602 -0.1920 -0.0245  0.3308
 1724TIP3    H126587   6.227   1.522   0.632  1.7243  1.4182  1.4615
 1724TIP3    H226588   6.300   1.473   0.509 -0.0331  1.0595  0.5252
 1725TIP3   OH226589   4.918   1.325   2.311 -0.0747 -0.1351 -0.6513
 1725TIP3    H126590   4.996   1.296   2.265  0.8916 -0.8594  1.3552
 1725TIP3    H226591   4.860   1.249   2.311 -0.5694  0.2151 -1.5966
 1726TIP3   OH226592   1.469   3.614   0.200  0.3673 -0.3468  0.3925
 1726TIP3    H126593   1.379   3.628   0.230  0.1511  0.0509 -0.4341
 1726TIP3    H226594   1.519   3.686   0.241  0.2834 -0.4586  0.6971
 1727TIP3   OH226595   1.184   0.018  16.927 -0.0486  0.4503 -0.0047
 1727TIP3    H126596   1.262   0.071  16.910 -1.1008  1.7118 -1.1079
 1727TIP3    H226597   1.125   0.037  16.853 -0.9630 -1.3238  0.2141
 1728TIP3   OH226598   1.860   2.111  14.061  0.1407 -0.6774  0.1363
 1728TIP3    H126599   1.836   2.194  14.020 -1.1426 -1.3580 -0.5335
 1728TIP3    H226600   1.836   2.122  14.153 -0.5662 -0.5099 -0.0676
 1729TIP3   OH226601   4.530   4.764   6.369  0.2653 -0.6221 -0.4688
 1729TIP3    H126602   4.522   4.859   6.372 -0.0831 -0.6693  1.9595
 1729TIP3    H226603   4.442   4.732   6.391  1.1984 -1.4054  2.5686
 1730TIP3   OH226604   4.444   2.763  11.174  0.2493  0.7789  0.4669
 1730TIP3    H126605   4.421   2.837  11.117  0.5473  1.4327  1.1774
 1730TIP3    H226606   4.504   2.711  11.121  0.6104  1.4398  0.2080
 1731TIP3   OH226607   1.362   2.895   2.433 -0.4452  0.2283 -0.6473
 1731TIP3    H126608   1.390   2.983   2.456  1.1588 -0.4323  0.0435
 1731TIP3    H226609   1.266   2.900   2.430 -0.3554  2.1916 -1.5454
 1732TIP3   OH226610   2.251   0.144  14.623 -0.6159 -0.2433 -0.4501
 1732TIP3    H126611   2.339   0.181  14.614 -0.5541 -0.4553 -0.7482
 1732TIP3    H226612   2.246   0.077  14.555 -0.4978 -1.2514  0.5061
 1733TIP3   OH226613   5.658   2.101  14.705 -0.6023 -0.1689 -0.2294
 1733TIP3    H126614   5.707   2.174  14.743  0.6647 -2.4552  3.0143
 1733TIP3    H226615   5.576   2.140  14.676  0.6300  2.7806 -0.1057
 1734TIP3   OH226616   1.193   2.514  15.655  0.0903  0.4026  0.0624
 1734TIP3    H126617   1.121   2.500  15.594 -0.6707 -0.1025  1.0333
 1734TIP3    H226618   1.244   2.433  15.652  0.0851  0.3994  0.0655
 1735TIP3   OH226619   4.912   5.599  12.582 -0.5459  0.2705 -0.2822
 1735TIP3    H126620   4.868   5.585  12.666 -1.2252 -4.3202 -1.1809
 1735TIP3    H226621   4.999   5.561  12.594 -0.1759  0.7550 -1.3232
 1736TIP3   OH226622   0.073   0.302  11.988  0.1632 -0.0028  0.1133
 1736TIP3    H126623   0.063   0.325  12.080 -1.4003  0.0839 -0.0570
 1736TIP3    H226624   0.053   0.383  11.941 -0.9792 -0.5476 -0.3536
 1737TIP3   OH226625   0.731   0.283   4.285  0.5793  0.0436  0.0844
 1737TIP3    H126626   0.797   0.293   4.354 -0.5852 -1.3639  1.4827
 1737TIP3    H226627   0.655   0.332   4.317  0.3507  0.1870 -0.6613
 1738TIP3   OH226628   0.308   2.540   3.974 -0.0605  0.3545  0.0901
 1738TIP3    H126629   0.218   2.561   3.999 -0.3274 -0.6157  0.0022
 1738TIP3    H226630   0.329   2.462   4.025  0.6274  0.4053 -0.1145
 1739TIP3   OH226631   2.162   0.869   2.053  0.2709 -0.3617  0.5665
 1739TIP3    H126632   2.235   0.812   2.030  0.1315 -0.3116 -0.0363
 1739TIP3    H226633   2.138   0.912   1.970  2.0867  2.6079  1.4393
 1740TIP3   OH226634   5.083   0.408  11.448  0.7196  0.2018 -0.2396
 1740TIP3    H126635   5.110   0.408  11.356  2.1206  0.9590  0.1457
 1740TIP3    H226636   5.085   0.500  11.474 -0.3188  0.0663  0.3785
 1741TIP3   OH226637   4.610   4.246  17.257 -0.2228  0.0638 -0.2511
 1741TIP3    H126638   4.516   4.227  17.255 -0.3117  0.5097 -0.3760
 1741TIP3    H226639   4.616   4.340  17.240  0.2153  0.1457  0.3503
 1742TIP3   OH226640   0.683   3.786  15.468 -0.3551  0.5066  0.6245
 1742TIP3    H126641   0.612   3.849  15.479 -0.5252  0.5207 -0.5348
 1742TIP3    H226642   0.645   3.713  15.420 -0.7750 -1.5749  3.7739
 1743TIP3   OH226643   4.591   0.887   4.814  0.0592  0.0278  0.2762
 1743TIP3    H126644   4.567   0.815   4.873  0.7514 -0.2539  0.2191
 1743TIP3    H226645   4.514   0.945   4.815 -0.7229 -0.9772 -0.1051
 1744TIP3   OH226646   1.603   1.541   5.601  0.1428 -0.0112 -0.1492
 1744TIP3    H126647   1.573   1.560   5.513  2.7401 -1.6673 -1.5285
 1744TIP3    H226648   1.579   1.450   5.617  1.0540 -0.2147  0.1776
 1745TIP3   OH226649   2.345   4.942  15.488  0.3501 -0.2860 -0.2237
 1745TIP3    H126650   2.350   5.037  15.499  2.4899 -0.2545 -0.9565
 1745TIP3    H226651   2.294   4.931  15.408 -0.9323  0.1647  0.5013
 1746TIP3   OH226652   2.542   6.565   0.357  0.0629  0.0267 -0.0056
 1746TIP3    H126653   2.471   6.501   0.348 -0.5006  0.8099 -1.4573
 1746TIP3    H226654   2.531   6.600   0.446 -0.8576 -0.4653  0.0862
 1747TIP3   OH226655   3.760   2.361   4.457 -0.2109 -0.7049 -0.1982
 1747TIP3    H126656   3.690   2.296   4.450 -1.2736  0.5010 -1.3404
 1747TIP3    H226657   3.713   2.444   4.472  1.0471 -0.0259  0.0929
 1748TIP3   OH226658   6.562   0.851   3.301  0.0677 -0.1894  0.4219
 1748TIP3    H126659   6.488   0.807   3.259  0.1048  0.8397 -0.7581
 1748TIP3    H226660   6.637   0.794   3.282  0.2314  0.6315 -1.6371
 1749TIP3   OH226661   4.862   5.669  13.464  0.2715 -0.0344 -0.1291
 1749TIP3    H126662   4.956   5.687  13.467  0.4417 -0.9868  1.0382
 1749TIP3    H226663   4.855   5.574  13.456 -0.5842 -0.0968  1.0658
 1750TIP3   OH226664   5.200   1.908  15.131 -0.1396 -0.0168  0.8962
 1750TIP3    H126665   5.230   1.958  15.055 -1.8108 -1.1481 -0.6101
 1750TIP3    H226666   5.281   1.880  15.175  0.8435  1.9410  0.4370
 1751TIP3   OH226667   1.626   0.559   0.172  0.0293  0.3053  0.0037
 1751TIP3    H126668   1.642   0.555   0.078 -0.4393  1.4984 -0.1434
 1751TIP3    H226669   1.561   0.491   0.188  0.2771 -0.0546 -0.4906
 1752TIP3   OH226670   5.566   3.055   3.388  0.4678 -0.5170  0.0081
 1752TIP3    H126671   5.555   3.009   3.305  0.0016 -0.8975  0.2769
 1752TIP3    H226672   5.479   3.090   3.408  0.6537 -0.1403  0.1676
 1753TIP3   OH226673   2.619   5.703  11.662  0.1901 -0.5050 -0.6764
 1753TIP3    H126674   2.523   5.710  11.657  0.2591  1.5445  0.1608
 1753TIP3    H226675   2.650   5.744  11.582  0.3985  0.7036  0.0058
 1754TIP3   OH226676   2.544   2.892   5.707  0.0868 -0.2617 -0.0644
 1754TIP3    H126677   2.489   2.832   5.758  0.1375  0.0720  0.3902
 1754TIP3    H226678   2.619   2.839   5.681 -0.0384 -0.4914  0.0331
 1755TIP3   OH226679   0.268   0.232   3.332 -0.0499 -0.0381 -0.2049
 1755TIP3    H126680   0.262   0.143   3.368  0.7594 -0.4209 -0.9652
 1755TIP3    H226681   0.358   0.259   3.349  1.1264 -1.1207 -3.7906
 1756TIP3   OH226682   4.144   4.477   0.517 -0.3607  0.3449 -0.7324
 1756TIP3    H126683   4.201   4.438   0.450  1.1922 -1.3084  1.3979
 1756TIP3    H226684   4.199   4.543   0.559 -0.7676  0.2896 -0.1053
 1757TIP3   OH226685   4.319   3.771  14.255 -0.1200 -0.9597  0.2908
 1757TIP3    H126686   4.255   3.700  14.241 -0.9081  0.0271 -1.4341
 1757TIP3    H226687   4.292   3.812  14.336 -0.0191 -2.2240  1.0000
 1758TIP3   OH226688   5.097   4.860  17.198 -0.1760 -0.0935  0.3421
 1758TIP3    H126689   5.025   4.894  17.252 -1.8472 -1.0435 -1.1645
 1758TIP3    H226690   5.055   4.839  17.114  1.8371 -0.9368 -0.4948
 1759TIP3   OH226691   3.683   1.524  15.942 -0.2143  0.4227  1.2080
 1759TIP3    H126692   3.703   1.449  15.886  1.5639  2.0220 -0.4871
 1759TIP3    H226693   3.651   1.486  16.023  1.7046 -2.2404  0.8664
 1760TIP3   OH226694   6.194   4.149   6.477  0.7978 -0.0888 -0.5119
 1760TIP3    H126695   6.223   4.087   6.411  1.0698  0.3089 -0.7711
 1760TIP3    H226696   6.234   4.232   6.451  0.2814  0.2374 -0.2821
 1761TIP3   OH226697   5.275   0.947  17.065 -0.2161 -0.1493  0.3168
 1761TIP3    H126698   5.362   0.983  17.082 -0.2970 -0.5685  1.7824
 1761TIP3    H226699   5.288   0.891  16.988  0.8390 -0.3035  0.5826
 1762TIP3   OH226700   3.364   2.864  12.834 -0.4020  0.0308  0.2543
 1762TIP3    H126701   3.330   2.947  12.800  1.1848  0.6057 -0.0404
 1762TIP3    H226702   3.289   2.821  12.875 -1.0117  2.1676  1.5037
 1763TIP3   OH226703   4.821   1.282  14.487 -0.3342 -0.2282 -0.2681
 1763TIP3    H126704   4.796   1.368  14.452 -0.5714 -0.2268 -0.0943
 1763TIP3    H226705   4.858   1.301  14.574 -0.5022 -0.3155 -0.1781
 1764TIP3   OH226706   3.487   4.747   2.771  0.4151  0.2180 -0.4938
 1764TIP3    H126707   3.408   4.789   2.806 -0.1782 -1.0345 -0.2795
 1764TIP3    H226708   3.520   4.809   2.706 -0.7386  0.7711 -0.5795
 1765TIP3   OH226709   2.017   0.856  16.793  0.0502 -0.6419 -0.1728
 1765TIP3    H126710   2.052   0.779  16.749 -1.0284 -0.8598 -0.6967
 1765TIP3    H226711   1.952   0.821  16.854  0.2479 -0.2182  0.2806
 1766TIP3   OH226712   3.844   4.359   3.554 -0.4658  0.2459 -0.3493
 1766TIP3    H126713   3.781   4.428   3.535 -1.0933 -0.1209  0.3540
 1766TIP3    H226714   3.929   4.399   3.537 -0.5114  2.4508  3.4624
 1767TIP3   OH226715   2.308   6.340   1.840 -0.0696  0.6540 -0.2908
 1767TIP3    H126716   2.259   6.266   1.876 -0.5852  0.5057 -1.2639
 1767TIP3    H226717   2.381   6.353   1.902  0.6757 -1.3661 -0.6572
 1768TIP3   OH226718   4.594   5.359   4.567  0.0474  0.0032 -0.3692
 1768TIP3    H126719   4.678   5.388   4.530  0.2845 -1.4069 -1.0048
 1768TIP3    H226720   4.528   5.412   4.522  0.5680  1.2248  0.2345
 1769TIP3   OH226721   4.362   5.901  16.291  0.0179  0.2138 -0.7122
 1769TIP3    H126722   4.280   5.900  16.242 -0.4523  0.3837  0.0602
 1769TIP3    H226723   4.391   5.810  16.291 -0.7399 -0.0338 -0.0439
 1770TIP3   OH226724   4.284   0.691   1.218 -0.0587  0.1355  0.2501
 1770TIP3    H126725   4.314   0.607   1.181 -2.0989  0.6628 -3.0311
 1770TIP3    H226726   4.330   0.757   1.166  0.5438  1.0887  1.9368
 1771TIP3   OH226727   2.040   0.863   2.380 -0.5771  0.2826  0.2734
 1771TIP3    H126728   2.107   0.795   2.374 -0.7834  0.0083  0.9480
 1771TIP3    H226729   2.083   0.943   2.350 -0.0456  0.0379  0.3838
 1772TIP3   OH226730   1.007   0.130   2.696 -0.0272 -0.3158  0.7767
 1772TIP3    H126731   1.023   0.066   2.626 -1.1207 -0.8128  0.9542
 1772TIP3    H226732   1.031   0.084   2.776 -2.4873 -1.2045  1.0824
 1773TIP3   OH226733   2.407   0.745  16.579 -0.0835 -0.5829 -0.1067
 1773TIP3    H126734   2.414   0.758  16.484  0.5933  0.6359  0.0941
 1773TIP3    H226735   2.314   0.726  16.593  0.0139 -1.9800 -1.1404
 1774TIP3   OH226736   3.010   4.985  12.853  0.6641  0.1154  0.4238
 1774TIP3    H126737   2.932   5.018  12.808 -1.0820  2.7664  4.7264
 1774TIP3    H226738   2.983   4.900  12.887  0.2526  0.2856  0.5300
 1775TIP3   OH226739   2.194   4.957   4.914  0.4389 -0.0683 -0.2006
 1775TIP3    H126740   2.219   4.885   4.972 -0.0841  1.2211  1.7344
 1775TIP3    H226741   2.179   5.031   4.973  0.2389  1.4361 -2.0487
 1776TIP3   OH226742   4.293   0.504   5.094  0.1011  0.1425  0.2676
 1776TIP3    H126743   4.372   0.451   5.087  0.8614  1.2821 -0.1796
 1776TIP3    H226744   4.246   0.488   5.012  0.1672 -0.0615  0.2688
 1777TIP3   OH226745   1.759   6.618   0.221 -0.1423  0.2385  0.2424
 1777TIP3    H126746   1.804   6.622   0.137  0.6096  0.7997  0.6632
 1777TIP3    H226747   1.780   6.531   0.256  1.6109  0.9139  0.9625
 1778TIP3   OH226748   2.924   2.076  15.752  0.0011  1.1420 -0.0103
 1778TIP3    H126749   3.000   2.086  15.696 -0.7543 -1.2401 -1.6226
 1778TIP3    H226750   2.959   2.074  15.841  2.1121 -1.5254 -0.7615
 1779TIP3   OH226751   2.369   2.508  17.098 -0.0761 -0.3115 -0.2860
 1779TIP3    H126752   2.321   2.543  17.023  1.7173 -1.1516 -1.9045
 1779TIP3    H226753   2.390   2.585  17.151 -0.8167  0.3728 -0.9546
 1780TIP3   OH226754   3.692   1.811   0.404 -0.0723  0.3471 -0.1176
 1780TIP3    H126755   3.632   1.872   0.361 -0.0297  0.2327 -0.3373
 1780TIP3    H226756   3.754   1.868   0.450 -1.1931  0.4786  1.3099
 1781TIP3   OH226757   3.026   0.683   0.655 -0.4461 -0.4239 -0.3112
 1781TIP3    H126758   2.974   0.661   0.578 -0.3013  1.3155 -0.9664
 1781TIP3    H226759   2.963   0.682   0.728 -0.7998 -1.0614 -0.6203
 1782TIP3   OH226760   2.893   2.783   3.385  0.2575  0.3809  0.3699
 1782TIP3    H126761   2.804   2.815   3.393  0.0663 -0.1740  0.5091
 1782TIP3    H226762   2.926   2.822   3.304 -0.8425 -1.1453 -0.8621
 1783TIP3   OH226763   0.856   5.324   4.596 -0.1895  0.4652  0.0337
 1783TIP3    H126764   0.868   5.255   4.530  1.0123 -0.6463  1.3371
 1783TIP3    H226765   0.788   5.289   4.655 -0.2775  0.8363  0.1514
 1784TIP3   OH226766   2.033   3.079  14.519 -0.5668  0.4656 -0.2745
 1784TIP3    H126767   1.941   3.056  14.533 -0.7946  1.4927 -0.0186
 1784TIP3    H226768   2.054   3.138  14.592 -0.0508  1.1721 -0.9795
 1785TIP3   OH226769   0.898   4.653   3.846 -0.0435 -0.0220  0.1259
 1785TIP3    H126770   0.946   4.668   3.928 -0.7156 -0.9727  0.7046
 1785TIP3    H226771   0.809   4.681   3.864  0.2973  1.9743 -1.0298
 1786TIP3   OH226772   6.664   4.826  12.936 -0.4712 -0.3809 -0.0612
 1786TIP3    H126773   6.613   4.772  12.874 -0.2061  0.0834 -0.6974
 1786TIP3    H226774   6.663   4.776  13.017 -1.2769 -0.7590 -0.2894
 1787TIP3   OH226775   1.874   2.154   5.414  0.5827 -0.9053  0.5728
 1787TIP3    H126776   1.848   2.102   5.338 -0.6943 -0.9451  1.0027
 1787TIP3    H226777   1.805   2.221   5.421  0.8002 -0.7684  1.5652
 1788TIP3   OH226778   0.384   0.267  12.212 -0.2714 -0.7133  0.4069
 1788TIP3    H126779   0.384   0.337  12.147 -0.3933 -1.5304 -0.5009
 1788TIP3    H226780   0.292   0.255  12.234 -0.3271 -1.0826 -0.0049
 1789TIP3   OH226781   4.977   2.843  16.354 -0.3440  0.9780  0.4454
 1789TIP3    H126782   5.062   2.882  16.376 -0.8019  2.5869 -0.5024
 1789TIP3    H226783   4.997   2.779  16.286  0.2895  0.2148  1.3177
 1790TIP3   OH226784   0.040   4.257   0.277 -0.4394  0.0351  0.3026
 1790TIP3    H126785   0.006   4.168   0.283  0.4035 -0.3409 -0.2537
 1790TIP3    H226786   0.104   4.262   0.349  1.2375 -0.6260 -1.0633
 1791TIP3   OH226787   1.342   4.843  11.820  0.2075 -0.2320 -1.2777
 1791TIP3    H126788   1.421   4.879  11.860 -0.7909 -0.0053  0.5690
 1791TIP3    H226789   1.372   4.766  11.771  1.1287 -2.9580  3.0299
 1792TIP3   OH226790   0.251   6.211  16.191  0.3907  0.2549 -0.3459
 1792TIP3    H126791   0.244   6.138  16.253 -0.3466  1.0030  0.4890
 1792TIP3    H226792   0.275   6.170  16.108  0.4107 -0.8863  0.2055
 1793TIP3   OH226793   2.608   0.578   2.353  0.1519  0.1251 -0.0598
 1793TIP3    H126794   2.543   0.624   2.299 -0.2084 -0.3113  0.0023
 1793TIP3    H226795   2.685   0.635   2.350  0.4233 -0.2798 -1.7178
 1794TIP3   OH226796   6.211   4.900  14.024 -0.1223  0.0283  0.1084
 1794TIP3    H126797   6.225   4.994  14.010 -0.0367 -0.0873 -0.6207
 1794TIP3    H226798   6.165   4.895  14.108 -0.0307  0.7156  0.2043
 1795TIP3   OH226799   5.029   0.903   5.184 -0.3619  0.4098 -1.1610
 1795TIP3    H126800   4.976   0.872   5.111 -4.2810  1.0627  1.1474
 1795TIP3    H226801   4.995   0.990   5.204 -0.0311 -0.0466  1.8778
 1796TIP3   OH226802   4.661   0.492  12.993 -0.3392 -0.3299 -0.0493
 1796TIP3    H126803   4.702   0.458  12.914 -0.8583  1.9308 -1.4100
 1796TIP3    H226804   4.723   0.556  13.027 -1.2372  0.6584 -0.2001
 1797TIP3   OH226805   3.129   0.437  13.533 -0.6180  0.4903  0.1415
 1797TIP3    H126806   3.038   0.466  13.543 -0.9220 -0.2652 -0.3587
 1797TIP3    H226807   3.145   0.383  13.610 -0.8649 -0.0261 -0.1570
 1798TIP3   OH226808   5.990   6.699   6.757  0.3814  0.6751  0.0804
 1798TIP3    H126809   6.043   6.674   6.833  0.3104 -2.6144 -0.7983
 1798TIP3    H226810   5.901   6.710   6.792 -0.4142 -4.1430  0.2570
 1799TIP3   OH226811   0.381   0.036  10.866 -0.1264  0.4244 -0.9648
 1799TIP3    H126812   0.469   0.008  10.840  0.2555  0.0543  0.6154
 1799TIP3    H226813   0.388   0.131  10.878 -0.4982  0.7201 -2.8309
 1800TIP3   OH226814   4.601   6.423  11.600 -0.1033  0.2366  0.1770
 1800TIP3    H126815   4.630   6.438  11.510 -0.6760  0.6847  0.0604
 1800TIP3    H226816   4.636   6.498  11.649 -0.8619  0.6653  0.0772
 1801TIP3   OH226817   2.986   6.235  15.609  0.2172 -1.0337  0.3258
 1801TIP3    H126818   3.041   6.258  15.534 -0.9326 -1.6885 -0.7438
 1801TIP3    H226819   2.903   6.280  15.595  0.0136 -1.0775  1.2679
 1802TIP3   OH226820   2.686   2.382  15.685 -0.4884 -0.0617  0.2754
 1802TIP3    H126821   2.676   2.299  15.639  0.8469 -0.4379  0.6216
 1802TIP3    H226822   2.779   2.403  15.676 -0.9850  1.9720 -0.7797
 1803TIP3   OH226823   0.011   6.084  13.249  0.5470 -0.7595 -0.0912
 1803TIP3    H126824   0.088   6.072  13.194  0.7753  1.1297 -0.2650
 1803TIP3    H226825  -0.004   6.179  13.248 -1.9625 -1.0947 -0.3059
 1804TIP3   OH226826   3.993   3.179  12.573  0.2614 -0.1793 -0.8083
 1804TIP3    H126827   3.898   3.176  12.577  0.1866  2.1028  0.3922
 1804TIP3    H226828   4.013   3.175  12.480 -1.0429 -0.0579 -1.1094
 1805TIP3   OH226829   2.289   4.087   2.886  0.0859  0.2327  0.1766
 1805TIP3    H126830   2.340   4.059   2.962 -1.2206 -3.2902 -0.1049
 1805TIP3    H226831   2.199   4.062   2.906 -0.4420  0.0378 -2.1440
 1806TIP3   OH226832   2.129   2.562   3.883 -0.3903 -0.1686  0.7419
 1806TIP3    H126833   2.178   2.555   3.801 -0.0324  2.4156  0.6587
 1806TIP3    H226834   2.066   2.491   3.879  0.8205 -1.2391 -0.9205
 1807TIP3   OH226835   4.819   6.144  13.211  0.7736  0.1063  0.1097
 1807TIP3    H126836   4.913   6.127  13.208  0.7697  0.1222 -0.1210
 1807TIP3    H226837   4.783   6.089  13.141  0.7514  1.0375 -0.6247
 1808TIP3   OH226838   5.678   6.410  16.679  0.6551 -0.4205 -0.1230
 1808TIP3    H126839   5.668   6.415  16.774  3.7042 -1.1643  0.3252
 1808TIP3    H226840   5.651   6.496  16.647 -0.2679 -0.1145  1.3825
 1809TIP3   OH226841   1.347   3.130  15.676  0.0296 -0.2979 -0.0821
 1809TIP3    H126842   1.353   3.208  15.621 -1.4109  1.4952  2.1067
 1809TIP3    H226843   1.363   3.057  15.616  1.2037  1.6291 -2.2772
 1810TIP3   OH226844   3.037   1.772  13.996  0.9574 -0.1031 -0.4796
 1810TIP3    H126845   3.055   1.683  14.026  0.1332 -0.5917 -1.3603
 1810TIP3    H226846   3.026   1.763  13.901 -0.7515  0.6531 -0.3809
 1811TIP3   OH226847   3.603   2.848   2.059 -0.0556  0.2279 -0.5233
 1811TIP3    H126848   3.688   2.804   2.051 -0.5603 -0.4826 -2.6387
 1811TIP3    H226849   3.620   2.937   2.029  0.1936  0.4810  0.3275
 1812TIP3   OH226850   5.888   4.440   3.249 -0.6477  0.2892  0.5241
 1812TIP3    H126851   5.955   4.447   3.181 -2.2672 -0.5734 -1.2610
 1812TIP3    H226852   5.898   4.351   3.284 -0.0271  0.6182  1.1948
 1813TIP3   OH226853   6.018   4.005   2.511 -0.4988 -0.2416 -0.3865
 1813TIP3    H126854   6.106   4.039   2.494 -0.5679  0.2532  0.2222
 1813TIP3    H226855   5.964   4.083   2.522 -0.7567 -0.5336  0.5302
 1814TIP3   OH226856   5.845   1.023   4.326  0.2696 -0.2270 -0.1594
 1814TIP3    H126857   5.860   1.082   4.401 -3.1820  0.0655  0.4364
 1814TIP3    H226858   5.865   1.077   4.250 -1.9624  1.5348  0.4072
 1815TIP3   OH226859   4.713   5.283   3.420  0.8562  0.0537  0.5011
 1815TIP3    H126860   4.697   5.290   3.326  0.5428 -2.1648  0.3332
 1815TIP3    H226861   4.805   5.305   3.431  1.2409 -0.9641 -0.5358
 1816TIP3   OH226862   1.147   4.953  14.597  0.0648 -0.4237 -0.2613
 1816TIP3    H126863   1.234   4.973  14.562 -0.1525  0.0924 -0.5161
 1816TIP3    H226864   1.096   4.925  14.521  0.0666 -0.9473 -0.0771
 1817TIP3   OH226865   4.018   1.178   5.838  0.5436  0.5166 -0.0806
 1817TIP3    H126866   3.971   1.240   5.895 -0.1576  0.8247 -0.9692
 1817TIP3    H226867   4.052   1.112   5.898 -2.3906 -0.6188  0.5086
 1818TIP3   OH226868   4.387   1.035   3.963  0.3554  0.4893 -0.5011
 1818TIP3    H126869   4.371   1.119   3.922  0.0297  0.3772 -0.6092
 1818TIP3    H226870   4.356   0.970   3.900 -0.6271  0.3321  0.1164
 1819TIP3   OH226871   2.255   0.091   2.583 -0.5105 -0.0492  0.6723
 1819TIP3    H126872   2.341   0.049   2.585 -0.0640  0.5130 -2.1509
 1819TIP3    H226873   2.193   0.018   2.582  0.2050 -0.7739 -2.8110
 1820TIP3   OH226874   5.348   3.207   4.748 -0.0460  0.2196  0.0875
 1820TIP3    H126875   5.343   3.145   4.822 -0.8399 -0.1370 -0.2466
 1820TIP3    H226876   5.313   3.157   4.674 -1.3324  1.2692 -0.0442
 1821TIP3   OH226877   4.314   0.421  13.399  0.2067  0.5463  0.3688
 1821TIP3    H126878   4.345   0.378  13.319 -0.6882 -0.3307  0.4728
 1821TIP3    H226879   4.219   0.415  13.394  0.1076 -1.3355  2.4122
 1822TIP3   OH226880   4.884   4.989  12.095 -0.7353  0.2083  0.0232
 1822TIP3    H126881   4.886   5.002  12.001  1.5503  0.9580  0.1165
 1822TIP3    H226882   4.883   5.078  12.131  1.5857  0.0569  0.6489
 1823TIP3   OH226883   4.198   3.293   4.214 -0.1613 -0.3057  0.0675
 1823TIP3    H126884   4.188   3.280   4.309  0.4113 -1.2188  0.0173
 1823TIP3    H226885   4.281   3.341   4.205 -1.1553  1.4862  0.1200
 1824TIP3   OH226886   5.966   5.867   2.758 -0.1710 -0.2339 -0.1839
 1824TIP3    H126887   5.978   5.882   2.852  2.3625 -0.2387 -0.4385
 1824TIP3    H226888   5.911   5.939   2.729 -0.9852 -0.2220  1.2875
 1825TIP3   OH226889   2.947   0.380   6.034 -0.1629  0.0047 -0.8227
 1825TIP3    H126890   3.029   0.367   6.083 -0.4245 -0.0250 -0.3821
 1825TIP3    H226891   2.885   0.320   6.076 -0.5386  0.3832 -0.8309
 1826TIP3   OH226892   0.901   4.496  13.004 -0.1926 -0.0838 -0.5362
 1826TIP3    H126893   0.974   4.540  12.961 -0.2819  0.5995 -0.0136
 1826TIP3    H226894   0.826   4.511  12.946  0.0959 -0.9035 -1.1399
 1827TIP3   OH226895   1.623   3.039  15.919  0.1641 -0.0617  0.4961
 1827TIP3    H126896   1.591   2.951  15.939  0.0618 -0.1332  0.0264
 1827TIP3    H226897   1.639   3.038  15.825  1.1223  0.1160  0.6455
 1828TIP3   OH226898   2.423   0.833  12.406 -0.1733 -0.2697 -0.5174
 1828TIP3    H126899   2.493   0.850  12.343  0.5357  0.4289  0.4240
 1828TIP3    H226900   2.461   0.856  12.491 -1.0133 -1.4158  0.2119
 1829TIP3   OH226901   0.095   2.277  17.523  0.3949 -0.4307 -0.4148
 1829TIP3    H126902   0.145   2.277  17.605 -1.6256  2.4504  0.9817
 1829TIP3    H226903   0.037   2.201  17.530  2.1284 -1.8411 -0.5427
 1830TIP3   OH226904   1.998   0.288  13.326 -0.4198  0.3783  0.4303
 1830TIP3    H126905   2.070   0.295  13.389  0.9728 -2.2066 -0.7022
 1830TIP3    H226906   2.019   0.351  13.258  0.6616 -0.1492  0.2510
 1831TIP3   OH226907   4.579   4.882  11.802  0.1443  0.0218 -0.0891
 1831TIP3    H126908   4.662   4.860  11.846  0.2604 -1.1839 -0.8738
 1831TIP3    H226909   4.515   4.823  11.841 -0.0545 -0.0112 -0.4610
 1832TIP3   OH226910   1.097   3.228  17.585  0.4069 -0.6266  0.4562
 1832TIP3    H126911   1.134   3.192  17.666  1.6082 -0.1997  0.1098
 1832TIP3    H226912   1.120   3.321  17.587 -1.8025 -0.0312  0.8453
 1833TIP3   OH226913   5.549   5.462   4.330  0.4407 -0.0259  0.0296
 1833TIP3    H126914   5.552   5.384   4.385  0.1851  1.0852  1.6798
 1833TIP3    H226915   5.477   5.446   4.269 -0.9095 -0.2656  1.6364
 1834TIP3   OH226916   3.480   5.184  13.033  0.3589 -0.0076  0.3845
 1834TIP3    H126917   3.520   5.102  13.005 -0.6265 -0.2825 -0.2758
 1834TIP3    H226918   3.419   5.206  12.963 -1.6219 -0.2916  1.9407
 1835TIP3   OH226919   3.431   4.134  12.039  0.2051  0.4395  0.1305
 1835TIP3    H126920   3.420   4.111  12.131 -0.5082  1.4141  0.2933
 1835TIP3    H226921   3.503   4.078  12.009 -0.3610 -0.7547  0.9529
 1836TIP3   OH226922   3.073   2.361  16.022  0.6739 -0.4495 -0.3561
 1836TIP3    H126923   3.077   2.375  16.117 -0.1833  0.4183 -0.4381
 1836TIP3    H226924   3.028   2.277  16.012 -0.0690 -0.1014 -0.0098
 1837TIP3   OH226925   5.967   1.839   1.654  0.0152 -0.4522  0.0387
 1837TIP3    H126926   5.964   1.902   1.727  0.1150 -0.0821 -0.2728
 1837TIP3    H226927   5.917   1.764   1.686  1.4945 -1.0210  1.1593
 1838TIP3   OH226928   1.006   2.796   5.385 -0.3303 -0.5968 -0.2935
 1838TIP3    H126929   0.943   2.737   5.344 -0.2302 -2.7498  2.3542
 1838TIP3    H226930   1.081   2.741   5.407 -0.1472  0.4814  2.1519
 1839TIP3   OH226931   3.634   3.900   0.560 -0.1356 -0.0706 -0.1210
 1839TIP3    H126932   3.653   3.859   0.644 -0.5528 -1.4026 -0.6462
 1839TIP3    H226933   3.719   3.934   0.530 -0.3761  2.7690  1.9534
 1840TIP3   OH226934   3.462   0.710   0.595  0.3071 -0.7258  0.2076
 1840TIP3    H126935   3.474   0.732   0.502  0.1178 -1.0806  0.0949
 1840TIP3    H226936   3.534   0.651   0.615  0.3148 -0.6948  0.2686
 1841TIP3   OH226937   4.425   6.563  15.047 -0.0743  0.2106 -0.7105
 1841TIP3    H126938   4.510   6.596  15.076  0.0315 -0.0937 -0.6706
 1841TIP3    H226939   4.396   6.627  14.982 -0.7995  1.5029  0.7893
 1842TIP3   OH226940   1.509   2.321  13.610 -0.3706 -0.4363 -0.4000
 1842TIP3    H126941   1.447   2.285  13.674 -1.9736  0.2427 -1.4898
 1842TIP3    H226942   1.519   2.252  13.545  0.7660 -0.8894  0.2343
 1843TIP3   OH226943   4.000   6.337   2.570 -0.4714 -0.8352  0.1796
 1843TIP3    H126944   4.040   6.349   2.656  1.7015 -0.2503 -0.8490
 1843TIP3    H226945   4.026   6.249   2.543  0.3557 -0.3649 -0.5984
 1844TIP3   OH226946   5.201   0.915   2.902  0.1687 -0.5117  0.9221
 1844TIP3    H126947   5.292   0.905   2.931  0.3022 -0.7176  0.4281
 1844TIP3    H226948   5.190   1.009   2.890 -0.5495 -0.1125  3.7976
 1845TIP3   OH226949   0.363   5.228  11.316  0.3176  0.0036 -0.1694
 1845TIP3    H126950   0.425   5.286  11.273 -2.2161  3.5707  0.5088
 1845TIP3    H226951   0.306   5.197  11.246  0.6450 -0.2806 -0.3125
 1846TIP3   OH226952   5.775   0.920  16.100 -0.5210  0.2529  0.2080
 1846TIP3    H126953   5.815   0.953  16.019 -1.0240 -0.4268 -0.3321
 1846TIP3    H226954   5.823   0.839  16.119  1.4500  1.7674  2.1390
 1847TIP3   OH226955   2.130   6.657  12.681  0.5452  0.6724 -0.3053
 1847TIP3    H126956   2.157   6.576  12.724  0.3523  0.7679 -0.0021
 1847TIP3    H226957   2.138   6.724  12.748  3.1084  1.3843 -1.2153
 1848TIP3   OH226958   2.076   4.640  17.411 -0.5521 -0.0075 -0.0339
 1848TIP3    H126959   2.085   4.732  17.438 -0.8740 -0.1993  0.7639
 1848TIP3    H226960   2.155   4.622  17.360 -0.8514  0.9296 -0.8530
 1849TIP3   OH226961   3.598   4.207  12.537  0.6598 -0.4767  0.2776
 1849TIP3    H126962   3.690   4.225  12.557  0.8318 -0.4509 -0.4907
 1849TIP3    H226963   3.591   4.111  12.543  0.9013 -0.5355 -0.2969
 1850TIP3   OH226964   3.494   2.597  12.521  0.5986 -0.1620 -0.3886
 1850TIP3    H126965   3.537   2.610  12.437  0.3567  0.5661 -0.4042
 1850TIP3    H226966   3.412   2.646  12.515  0.6277 -0.0064  0.3092
 1851TIP3   OH226967   2.965   2.268  11.431 -0.2658  0.9711 -0.9149
 1851TIP3    H126968   2.898   2.240  11.369 -0.1977  0.6535 -0.8456
 1851TIP3    H226969   2.980   2.360  11.410 -0.8183  1.0796 -0.8416
 1852TIP3   OH226970   0.463   6.425   1.265  0.1155 -0.1429  0.0073
 1852TIP3    H126971   0.547   6.444   1.222  0.2206 -1.9417 -0.7048
 1852TIP3    H226972   0.417   6.509   1.267  0.7157  0.3275 -2.3713
 1853TIP3   OH226973   1.960   1.455   0.860 -0.1084  0.0735  0.1840
 1853TIP3    H126974   1.899   1.514   0.905 -2.4077 -0.1293 -2.3940
 1853TIP3    H226975   2.013   1.513   0.805  0.6853  0.0557  0.9009
 1854TIP3   OH226976   2.650   4.200  14.309 -0.2267 -0.4104  0.4033
 1854TIP3    H126977   2.561   4.220  14.278  0.0118  2.1388  1.1820
 1854TIP3    H226978   2.637   4.150  14.390 -1.0032  0.8997  1.1140
 1855TIP3   OH226979   5.029   4.408  15.516 -0.2324  0.1860 -0.4533
 1855TIP3    H126980   4.975   4.365  15.450 -0.5069  0.1956 -0.2346
 1855TIP3    H226981   5.001   4.370  15.600 -1.1038  1.4257 -0.1659
 1856TIP3   OH226982   3.483   4.507   0.818  0.7863  0.0982  0.2235
 1856TIP3    H126983   3.438   4.500   0.903 -1.3333 -0.0801 -0.8416
 1856TIP3    H226984   3.415   4.539   0.758  2.2471  0.2780 -1.4098
 1857TIP3   OH226985   6.434   5.306   4.286 -0.6300  0.0415  0.3438
 1857TIP3    H126986   6.516   5.259   4.269  0.5217  2.4138 -1.1731
 1857TIP3    H226987   6.368   5.257   4.237  0.2040 -0.9191  0.1520
 1858TIP3   OH226988   4.724   0.905   1.900  0.5441 -0.4011 -0.2243
 1858TIP3    H126989   4.757   0.966   1.834 -1.7399  0.6040 -0.5192
 1858TIP3    H226990   4.677   0.838   1.851  0.8592 -1.0026  0.2696
 1859TIP3   OH226991   0.559   6.041   5.504 -0.0908 -0.3015  0.2752
 1859TIP3    H126992   0.573   6.040   5.409  0.3457 -0.7385  0.3401
 1859TIP3    H226993   0.498   5.969   5.520  1.6301 -1.7536  0.5777
 1860TIP3   OH226994   6.705   4.660   4.338 -0.1315 -0.2844 -0.1214
 1860TIP3    H126995   6.652   4.621   4.268  0.9677 -1.1025 -0.5352
 1860TIP3    H226996   6.767   4.591   4.362  3.3288  1.7048 -2.3323
 1861TIP3   OH226997   1.884   2.994   2.202  0.2425  0.2403 -0.4225
 1861TIP3    H126998   1.884   2.918   2.260 -1.1293  0.3526 -0.2261
 1861TIP3    H226999   1.868   2.957   2.115  2.7868  0.0233 -0.8587
 1862TIP3   OH227000   2.142   5.772   2.278 -0.1093 -0.6578  0.2634
 1862TIP3    H127001   2.182   5.780   2.365 -4.5382 -0.0912  2.5499
 1862TIP3    H227002   2.167   5.853   2.233  2.8479 -1.2687  0.6061
 1863TIP3   OH227003   1.561   1.105  13.336  0.2252 -0.0464  0.5324
 1863TIP3    H127004   1.531   1.056  13.259  0.8683 -0.8293  0.7699
 1863TIP3    H227005   1.655   1.085  13.342  0.6793  1.7556  0.2350
 1864TIP3   OH227006   1.316   5.345   5.880  0.0889 -0.3533  0.0727
 1864TIP3    H127007   1.246   5.284   5.903 -0.1489 -0.7790 -1.6839
 1864TIP3    H227008   1.280   5.431   5.901 -1.5762 -0.4366 -2.1004
 1865TIP3   OH227009   0.782   4.365  11.025 -0.4791 -0.0310 -0.3700
 1865TIP3    H127010   0.776   4.436  11.089  0.8337  1.2640 -1.5973
 1865TIP3    H227011   0.770   4.409  10.940 -1.7945 -1.6281 -1.0702
 1866TIP3   OH227012   5.578   5.768  13.392 -0.3792 -0.0045 -0.4184
 1866TIP3    H127013   5.641   5.816  13.445  1.4427  1.2444 -3.4207
 1866TIP3    H227014   5.493   5.789  13.430  0.6625  2.3788  0.8147
 1867TIP3   OH227015   0.123   6.282   4.026 -0.1182  0.4957 -0.4703
 1867TIP3    H127016   0.040   6.317   4.060 -0.9154  0.5605 -2.3349
 1867TIP3    H227017   0.179   6.359   4.015 -0.8023  0.8497 -1.7325
 1868TIP3   OH227018   5.733   0.578  14.023  0.2171 -0.3501  0.3654
 1868TIP3    H127019   5.700   0.488  14.019  0.6124 -0.5963  1.8260
 1868TIP3    H227020   5.656   0.630  14.047  0.5166 -0.7154  2.2788
 1869TIP3   OH227021   5.167   3.091  16.039 -0.0299 -0.3420 -0.8938
 1869TIP3    H127022   5.081   3.133  16.031  0.3953  0.8662  0.3236
 1869TIP3    H227023   5.224   3.140  15.979  0.1928  0.0777 -0.3585
 1870TIP3   OH227024   4.182   3.351   3.396 -0.5152 -0.1863 -0.1001
 1870TIP3    H127025   4.251   3.373   3.458 -0.7421 -0.6436  0.3232
 1870TIP3    H227026   4.118   3.422   3.406 -0.9889 -0.7195  0.8709
 1871TIP3   OH227027   4.917   4.291  16.744 -0.2633  0.0426 -0.5642
 1871TIP3    H127028   4.930   4.345  16.666  1.0955  0.4578 -0.0672
 1871TIP3    H227029   4.998   4.301  16.794 -1.6161  0.9193  1.5977
 1872TIP3   OH227030   1.880   5.820   0.681  0.0822  0.3510 -0.5131
 1872TIP3    H127031   1.875   5.878   0.757 -1.5473 -0.5070  0.0744
 1872TIP3    H227032   1.853   5.734   0.714 -1.2475  0.0769 -2.1494
 1873TIP3   OH227033   0.870   5.238   2.789 -0.1545  0.3433  0.5282
 1873TIP3    H127034   0.855   5.332   2.799 -2.1012  0.0749  0.4755
 1873TIP3    H227035   0.950   5.232   2.737 -0.5282  2.0024 -0.3124
 1874TIP3   OH227036   4.778   6.638   2.366  0.0529 -0.1296 -0.1553
 1874TIP3    H127037   4.775   6.731   2.385  0.9820 -0.0015 -0.5713
 1874TIP3    H227038   4.818   6.632   2.279  1.1832 -0.9607  0.3885
 1875TIP3   OH227039   0.163   6.098  12.407 -0.4060 -0.1724  0.2606
 1875TIP3    H127040   0.114   6.063  12.481 -0.6043 -1.3012 -0.3833
 1875TIP3    H227041   0.201   6.180  12.440 -2.7906  0.8345  0.7649
 1876TIP3   OH227042   4.636   0.025  12.873  0.9162 -0.0479 -0.0754
 1876TIP3    H127043   4.565   0.084  12.847  0.1676 -1.0350 -0.3459
 1876TIP3    H227044   4.684   0.073  12.941 -0.0507  0.6138  0.1590
 1877TIP3   OH227045   5.876   4.041   1.256 -0.4872  0.6300 -0.1104
 1877TIP3    H127046   5.935   4.058   1.330  1.1702 -0.9118 -0.9966
 1877TIP3    H227047   5.799   4.094   1.275 -0.2315  0.1481  2.8219
 1878TIP3   OH227048   0.501   2.380  17.612 -0.1357 -0.6168  0.4712
 1878TIP3    H127049   0.529   2.396  17.522 -0.7798  0.5353  0.4584
 1878TIP3    H227050   0.518   2.462  17.658  0.7056 -1.3760  1.5528
 1879TIP3   OH227051   5.322   3.779  16.652  0.9768 -0.1506  0.3119
 1879TIP3    H127052   5.360   3.693  16.631 -1.2369 -1.1291  0.0846
 1879TIP3    H227053   5.307   3.820  16.567 -0.0119 -0.4881  0.3141
 1880TIP3   OH227054   6.561   2.409   2.379 -0.2119 -0.1269  0.1371
 1880TIP3    H127055   6.608   2.365   2.450 -0.4755 -0.1275  0.3112
 1880TIP3    H227056   6.603   2.376   2.300 -0.9352 -1.3304  0.2202
 1881TIP3   OH227057   4.946   2.527  10.948  0.2404  0.0632 -0.1958
 1881TIP3    H127058   5.034   2.560  10.929 -0.1012 -0.0296 -2.1714
 1881TIP3    H227059   4.948   2.436  10.919 -0.4760  0.0382 -0.1725
 1882TIP3   OH227060   0.863   0.210  14.442  0.1704 -0.5673 -0.7339
 1882TIP3    H127061   0.829   0.170  14.363 -0.8498  0.0308 -0.6069
 1882TIP3    H227062   0.898   0.295  14.413  1.1581 -0.9776 -0.7849
 1883TIP3   OH227063   1.688   3.330  14.433 -0.3651  0.1416  0.4471
 1883TIP3    H127064   1.601   3.359  14.461 -1.5362 -2.7832  0.1376
 1883TIP3    H227065   1.704   3.250  14.483  1.6481 -0.0554 -0.4165
 1884TIP3   OH227066   2.661   6.377   3.264 -0.1438 -0.7960  0.1651
 1884TIP3    H127067   2.640   6.449   3.323  1.8418 -1.4965  1.8651
 1884TIP3    H227068   2.585   6.318   3.269 -1.5924  0.9006 -0.9117
 1885TIP3   OH227069   6.220   4.119   2.388  0.6305 -0.0687  0.6615
 1885TIP3    H127070   6.150   4.133   2.325  0.8866 -0.1417  0.3608
 1885TIP3    H227071   6.288   4.182   2.364  1.5838 -1.4261 -0.4014
 1886TIP3   OH227072   3.945   3.084  15.567 -0.6261  0.0447 -0.6105
 1886TIP3    H127073   3.954   3.001  15.519  0.0657 -0.5403  0.4775
 1886TIP3    H227074   4.030   3.097  15.608 -0.0620  2.3341 -2.3124
 1887TIP3   OH227075   0.948   4.460  13.663  0.1915  0.3751 -0.3621
 1887TIP3    H127076   0.880   4.513  13.623  0.7904  2.5597  1.2979
 1887TIP3    H227077   0.908   4.423  13.742 -0.0436 -1.1995 -1.1942
 1888TIP3   OH227078   2.573   2.326  14.561 -0.1455 -1.0706 -0.0154
 1888TIP3    H127079   2.522   2.249  14.538 -1.2218 -0.6797  0.9574
 1888TIP3    H227080   2.664   2.295  14.560 -0.4577 -2.0390 -0.7758
 1889TIP3   OH227081   2.034   4.523   1.889 -0.4103  0.0071  0.4224
 1889TIP3    H127082   1.984   4.490   1.816  0.6766 -1.5489  0.3330
 1889TIP3    H227083   2.125   4.520   1.860  0.0049 -0.2058  1.6483
 1890TIP3   OH227084   3.927   0.802  12.808 -0.0587 -0.2351  0.5880
 1890TIP3    H127085   3.899   0.863  12.876 -0.1906 -1.1152  1.3538
 1890TIP3    H227086   3.910   0.715  12.846  2.5418 -0.8303  0.6302
 1891TIP3   OH227087   0.549   1.839  17.274  0.0970 -0.1392 -0.0690
 1891TIP3    H127088   0.633   1.797  17.257  0.6114 -0.4638  2.7671
 1891TIP3    H227089   0.515   1.793  17.351 -1.2767  1.9618  0.6467
 1892TIP3   OH227090   1.095   5.384  11.708  0.2130  0.5523 -0.0182
 1892TIP3    H127091   1.186   5.354  11.708  0.1898  0.2143 -2.4919
 1892TIP3    H227092   1.045   5.310  11.673 -0.6011  1.6356 -1.2576
 1893TIP3   OH227093   5.947   2.476  16.580 -0.0032 -0.0548  0.2669
 1893TIP3    H127094   5.998   2.395  16.570 -0.2225 -0.3043  1.1314
 1893TIP3    H227095   6.012   2.546  16.572  1.0226 -0.3987  3.8756
 1894TIP3   OH227096   2.572   2.059   1.614  0.0218  0.3773  0.0467
 1894TIP3    H127097   2.552   2.112   1.536  2.4671  0.6339 -0.4665
 1894TIP3    H227098   2.582   1.970   1.580  0.9779  0.4700  0.0677
 1895TIP3   OH227099   6.421   2.065   6.037 -0.4044 -0.0081  0.4849
 1895TIP3    H127100   6.469   2.041   5.958 -0.9691  2.0215 -0.5413
 1895TIP3    H227101   6.329   2.067   6.011 -1.0233 -2.5166  2.0852
 1896TIP3   OH227102   4.025   3.758   0.770 -0.3288  0.1163  0.0177
 1896TIP3    H127103   3.975   3.683   0.735  0.3672 -0.7034  0.7523
 1896TIP3    H227104   4.091   3.719   0.826 -0.3923  1.3342  0.9742
 1897TIP3   OH227105   4.511   3.893  13.442 -0.1189  0.5071  0.2632
 1897TIP3    H127106   4.510   3.898  13.537  1.2416  2.5955  0.2407
 1897TIP3    H227107   4.583   3.833  13.422 -0.5312 -0.0831  0.5532
 1898TIP3   OH227108   5.885   6.100  13.372  0.0839 -0.3935 -0.2005
 1898TIP3    H127109   5.906   6.032  13.307 -0.4028  0.2245 -1.0220
 1898TIP3    H227110   5.936   6.176  13.346  1.0831 -0.6031  1.0670
 1899TIP3   OH227111   0.488   4.194   5.520 -0.2781  0.1575  0.2628
 1899TIP3    H127112   0.477   4.254   5.447 -1.0310 -0.7407 -0.3813
 1899TIP3    H227113   0.483   4.250   5.598  1.4558  1.2601 -0.3483
 1900TIP3   OH227114   4.128   2.460   5.739 -0.1909 -0.1649  0.3890
 1900TIP3    H127115   4.222   2.476   5.734 -0.1038 -0.9453 -1.1769
 1900TIP3    H227116   4.121   2.372   5.777 -0.3378  0.2014  1.2366
 1901TIP3   OH227117   4.271   3.096   1.133  0.1446  0.1504 -0.6010
 1901TIP3    H127118   4.265   3.001   1.121  0.3582 -0.4439  2.9353
 1901TIP3    H227119   4.180   3.123   1.148  0.1861  0.3476 -0.7145
 1902TIP3   OH227120   3.882   0.406   6.008 -0.4165  0.6981 -0.5938
 1902TIP3    H127121   3.857   0.471   6.074  0.4590  1.1651 -0.7020
 1902TIP3    H227122   3.958   0.444   5.964 -0.5199  0.0518 -1.3630
 1903TIP3   OH227123   1.674   0.280  15.067 -0.0661 -0.0124  0.5324
 1903TIP3    H127124   1.634   0.249  14.986  1.3266 -0.2642 -0.0913
 1903TIP3    H227125   1.608   0.264  15.134 -1.8765  1.6343 -0.7521
 1904TIP3   OH227126   3.793   3.655   4.780 -0.3410 -0.1018 -1.0122
 1904TIP3    H127127   3.765   3.575   4.735 -0.4104 -0.8201  0.2363
 1904TIP3    H227128   3.722   3.717   4.766 -1.0302 -0.7935 -0.7062
 1905TIP3   OH227129   2.151   0.644   4.617 -0.0392 -0.1404  0.1465
 1905TIP3    H127130   2.197   0.674   4.696  0.1115 -0.4783  0.1883
 1905TIP3    H227131   2.125   0.725   4.573  1.2499  0.0781 -0.2608
 1906TIP3   OH227132   2.391   1.842   4.451 -0.0949  0.1322 -0.0740
 1906TIP3    H127133   2.386   1.849   4.547 -0.3283 -0.7753 -0.0086
 1906TIP3    H227134   2.344   1.919   4.419  1.5449  1.4475  0.5171
 1907TIP3   OH227135   0.602   0.763   4.317  0.4780  0.2732 -0.1027
 1907TIP3    H127136   0.542   0.753   4.243  0.7324  0.6559 -0.3649
 1907TIP3    H227137   0.634   0.853   4.310  0.4857  0.3207  0.4900
 1908TIP3   OH227138   3.556   2.162   3.731  0.1239 -0.0055  0.0126
 1908TIP3    H127139   3.526   2.205   3.650 -0.0972 -0.4729 -0.1585
 1908TIP3    H227140   3.637   2.117   3.706  0.3971  0.3694  0.2106
 1909TIP3   OH227141   5.317   2.385  13.886 -0.1983  0.3577  0.1765
 1909TIP3    H127142   5.382   2.332  13.840  0.1389  0.0904  0.9559
 1909TIP3    H227143   5.289   2.331  13.960 -0.3511  0.9901  0.5867
 1910TIP3   OH227144   1.575   4.770   2.410  0.4461 -0.5612  0.1312
 1910TIP3    H127145   1.643   4.820   2.456 -0.1401  0.1172  0.2700
 1910TIP3    H227146   1.561   4.694   2.465  1.5903 -1.0832 -0.2524
 1911TIP3   OH227147   4.736   2.642  13.634  0.3180 -0.2339 -0.0094
 1911TIP3    H127148   4.646   2.612  13.621  0.5017 -0.6184 -0.3824
 1911TIP3    H227149   4.727   2.721  13.688 -0.1847 -0.7338  0.6564
 1912TIP3   OH227150   1.287   6.264   0.004  0.2953  0.4448 -0.1976
 1912TIP3    H127151   1.270   6.349   0.045  0.6180  0.3350  0.1755
 1912TIP3    H227152   1.292   6.203   0.078 -0.9352 -0.0811 -0.5219
 1913TIP3   OH227153   6.258   0.060  16.242  0.4142  0.1524  0.4124
 1913TIP3    H127154   6.327   0.091  16.184 -0.2025  1.4283  0.3425
 1913TIP3    H227155   6.251  -0.034  16.222  1.0815  0.3110 -0.6662
 1914TIP3   OH227156   0.455   4.874  13.821 -0.2637 -0.0756  0.3289
 1914TIP3    H127157   0.454   4.968  13.805  1.7830  0.2140  1.4316
 1914TIP3    H227158   0.363   4.847  13.818 -0.9984  2.1518  1.0108
 1915TIP3   OH227159   3.825   2.604   0.802  0.0679 -0.2592  0.3760
 1915TIP3    H127160   3.798   2.579   0.713 -0.9731 -1.4551  0.9880
 1915TIP3    H227161   3.871   2.527   0.835  0.0497  0.0085  1.0367
 1916TIP3   OH227162   6.694   5.527   3.657 -0.3194 -0.0250 -0.2534
 1916TIP3    H127163   6.650   5.451   3.619 -2.1508  1.0137 -0.3619
 1916TIP3    H227164   6.762   5.491   3.714 -0.8133 -1.7152 -0.6999
 1917TIP3   OH227165   0.647   4.221  11.217 -0.4365 -0.7099 -0.0604
 1917TIP3    H127166   0.607   4.140  11.186  1.7969 -2.1524  0.5400
 1917TIP3    H227167   0.679   4.264  11.138 -1.5417 -0.4334 -0.3751
 1918TIP3   OH227168   0.624   6.471  16.692 -0.5753  0.4078 -0.4339
 1918TIP3    H127169   0.669   6.401  16.645 -0.4251  0.7065 -0.7459
 1918TIP3    H227170   0.532   6.447  16.690 -0.4036 -0.3476  0.4450
 1919TIP3   OH227171   4.975   2.864   4.680 -0.5503  0.1072  0.0488
 1919TIP3    H127172   4.937   2.793   4.628  0.7303 -0.2830 -0.3832
 1919TIP3    H227173   4.903   2.892   4.738 -1.1160 -1.4681  0.1617
 1920TIP3   OH227174   1.197   4.483  14.672  0.2290 -0.3824  0.3131
 1920TIP3    H127175   1.153   4.545  14.731 -1.1726 -1.2919  0.2562
 1920TIP3    H227176   1.141   4.479  14.595  0.2108 -1.8239  0.3746
 1921TIP3   OH227177   1.142   4.869  14.102 -0.3050  0.7401  0.6151
 1921TIP3    H127178   1.237   4.885  14.102 -0.2923  0.7507 -0.2978
 1921TIP3    H227179   1.133   4.777  14.079 -0.5396  1.2520 -1.6156
 1922TIP3   OH227180   5.679   2.248   4.428 -0.4920  0.3462 -0.0819
 1922TIP3    H127181   5.750   2.183   4.434  1.4017  2.3978  1.1387
 1922TIP3    H227182   5.637   2.245   4.514 -0.2459  0.8997  0.0571
 1923TIP3   OH227183   0.820   6.300  16.576  0.3935  0.3949 -0.3151
 1923TIP3    H127184   0.813   6.210  16.544 -2.1493 -0.4670  2.1781
 1923TIP3    H227185   0.913   6.320  16.573  0.7331 -0.9534 -4.1962
 1924TIP3   OH227186   5.099   3.021  15.460 -0.0127 -0.0542 -0.6068
 1924TIP3    H127187   5.126   3.108  15.487  0.1862 -0.6950  1.4277
 1924TIP3    H227188   5.025   3.035  15.402  0.2006  1.4617 -0.5429
 1925TIP3   OH227189   1.404   1.428  15.469 -0.1380  0.2621  0.2541
 1925TIP3    H127190   1.363   1.513  15.455  0.9122  0.7641  0.2009
 1925TIP3    H227191   1.381   1.378  15.390 -1.8992 -0.0060  0.8698
 1926TIP3   OH227192   1.720   6.185  13.519 -0.0659 -0.2578  0.0995
 1926TIP3    H127193   1.771   6.148  13.591  2.5010 -0.2812 -1.6000
 1926TIP3    H227194   1.666   6.112  13.488  4.1252 -2.7062 -2.5038
 1927TIP3   OH227195   6.278   0.580   1.533  0.7685 -0.2795  0.3239
 1927TIP3    H127196   6.358   0.567   1.482  0.6918 -2.1522  0.5967
 1927TIP3    H227197   6.207   0.558   1.473  0.5933 -0.9201  0.7541
 1928TIP3   OH227198   1.593   1.258   4.451  0.4423 -0.1691  0.5856
 1928TIP3    H127199   1.597   1.315   4.374 -0.1661 -1.3352 -0.3425
 1928TIP3    H227200   1.682   1.222   4.459  0.6304  0.3240  0.7171
 1929TIP3   OH227201   4.911   2.874  15.006 -0.1745 -0.3930  0.1767
 1929TIP3    H127202   5.000   2.898  15.031 -0.5898  0.5253  0.8192
 1929TIP3    H227203   4.858   2.893  15.083 -1.2149  0.8380 -0.7910
 1930TIP3   OH227204   0.440   3.822  12.539 -0.5301 -0.2857 -0.4863
 1930TIP3    H127205   0.375   3.876  12.495 -2.1985 -1.2136  0.7215
 1930TIP3    H227206   0.513   3.817  12.478 -1.4264  1.0957 -1.7350
 1931TIP3   OH227207   4.052   1.895   6.973  0.6292  0.4983  0.6376
 1931TIP3    H127208   4.103   1.866   6.898  2.2048  2.1709  0.9872
 1931TIP3    H227209   3.962   1.904   6.940  0.6764 -1.6155 -0.2274
 1932TIP3   OH227210   5.056   1.455   0.620 -0.0868  0.1059 -1.2222
 1932TIP3    H127211   5.037   1.549   0.626 -2.1834 -0.2645 -1.2099
 1932TIP3    H227212   5.151   1.451   0.606  0.1954  2.1815 -0.3795
 1933TIP3   OH227213   2.334   4.537   2.784 -1.0959 -0.2067 -0.2003
 1933TIP3    H127214   2.348   4.444   2.800 -2.8463 -0.4136  0.3290
 1933TIP3    H227215   2.356   4.579   2.867  0.6941  0.0052 -0.7411
 1934TIP3   OH227216   2.469   6.602  12.022 -0.2966  0.4327 -0.0818
 1934TIP3    H127217   2.434   6.683  11.986 -1.3398  0.6524  1.3376
 1934TIP3    H227218   2.564   6.611  12.016 -0.4134  1.6129 -0.2605
 1935TIP3   OH227219   5.548   2.015  14.139 -0.4183 -0.0354  0.3895
 1935TIP3    H127220   5.607   1.944  14.114  1.2942  1.3910  0.1181
 1935TIP3    H227221   5.605   2.079  14.182 -2.2055  0.3713  2.3331
 1936TIP3   OH227222   1.398   5.324   3.210 -0.5840  0.9188  0.0297
 1936TIP3    H127223   1.366   5.252   3.156  0.8578 -0.5832  1.0520
 1936TIP3    H227224   1.399   5.288   3.299  2.4303  1.3044  0.2581
 1937TIP3   OH227225   5.935   1.085  13.523 -0.3952 -0.7629  0.1737
 1937TIP3    H127226   5.888   1.149  13.575  2.0725  0.0957  1.4939
 1937TIP3    H227227   5.891   1.086  13.438 -2.0577  0.7078  0.9967
 1938TIP3   OH227228   5.526   1.127   4.884  0.0704  0.2142  0.0010
 1938TIP3    H127229   5.486   1.040   4.877  0.5869 -0.0667  0.5125
 1938TIP3    H227230   5.488   1.164   4.964 -0.1472  0.4575 -0.2154
 1939TIP3   OH227231   4.068   0.492  15.090 -0.3237  0.0903  0.5935
 1939TIP3    H127232   4.005   0.461  15.025 -2.5094  0.8076  2.2602
 1939TIP3    H227233   4.115   0.562  15.045 -1.0630 -0.0900 -0.5189
 1940TIP3   OH227234   4.009   4.022  10.283  0.2127 -0.4749 -0.6938
 1940TIP3    H127235   4.015   3.944  10.339  1.0961 -0.0579 -0.1877
 1940TIP3    H227236   3.939   4.074  10.322  0.1080 -0.6804 -0.6068
 1941TIP3   OH227237   5.708   0.336  11.831 -0.4127 -0.0072  0.1879
 1941TIP3    H127238   5.660   0.295  11.758  1.6341  1.2794 -2.0414
 1941TIP3    H227239   5.667   0.422  11.840 -1.6410 -0.7167  1.6390
 1942TIP3   OH227240   2.420   2.958   1.236 -0.0540  0.5542  0.0484
 1942TIP3    H127241   2.373   2.969   1.153 -1.1493  0.8740  0.6973
 1942TIP3    H227242   2.368   2.896   1.286 -0.2013  1.4544  1.0594
 1943TIP3   OH227243   0.936   6.603  12.679  0.2060  0.1904  0.2241
 1943TIP3    H127244   0.846   6.590  12.651 -0.1945  0.7626  1.1934
 1943TIP3    H227245   0.989   6.555  12.614 -0.7499  0.2759 -0.6454
 1944TIP3   OH227246   0.613   2.213   6.297 -0.2721  0.1568  0.1272
 1944TIP3    H127247   0.532   2.167   6.316 -0.1963  0.4110  1.0927
 1944TIP3    H227248   0.605   2.298   6.340 -1.1085  1.8250 -2.9788
 1945TIP3   OH227249   4.334   2.635   1.970 -0.5733  0.6093 -0.0699
 1945TIP3    H127250   4.416   2.587   1.979  0.1713  1.5611 -1.4111
 1945TIP3    H227251   4.349   2.696   1.898 -2.2576  1.2469  0.0573
 1946TIP3   OH227252   3.219   6.575  15.475  0.3638  0.2290  0.2680
 1946TIP3    H127253   3.191   6.488  15.445 -0.4366  1.0772 -1.6558
 1946TIP3    H227254   3.309   6.583  15.443  0.2373  0.3205 -0.0710
 1947TIP3   OH227255   0.167   0.722   6.090  0.3027 -1.0097 -0.7763
 1947TIP3    H127256   0.100   0.678   6.143 -0.1297 -0.3202 -0.7382
 1947TIP3    H227257   0.248   0.674   6.109  0.4227 -0.0701  1.4594
 1948TIP3   OH227258   5.039   3.840   5.866  0.2884 -0.1424  0.0372
 1948TIP3    H127259   4.982   3.769   5.896  0.8753 -0.2826  0.8709
 1948TIP3    H227260   5.000   3.869   5.784  0.5777 -2.0654 -0.8254
 1949TIP3   OH227261   5.969   3.314   5.686 -0.5193  0.3949 -0.0912
 1949TIP3    H127262   6.053   3.326   5.642  1.4837  0.3523  3.3679
 1949TIP3    H227263   5.967   3.382   5.753 -2.5720 -0.5459  0.8909
 1950TIP3   OH227264   4.920   3.519   4.605  0.0924 -0.3028  0.3616
 1950TIP3    H127265   4.856   3.457   4.640 -0.1994  1.4806  3.2773
 1950TIP3    H227266   4.877   3.605   4.613  1.8074  0.6536 -0.2219
 1951TIP3   OH227267   0.023   2.496  14.437 -0.0259 -0.5405 -0.2282
 1951TIP3    H127268   0.092   2.560  14.452 -0.7107 -0.2185  1.9104
 1951TIP3    H227269   0.069   2.414  14.417  0.8680  0.3713 -2.1226
 1952TIP3   OH227270   2.666   2.332  12.208 -0.3265  0.0533  0.2600
 1952TIP3    H127271   2.589   2.278  12.229 -1.2117  0.9419 -0.5900
 1952TIP3    H227272   2.635   2.422  12.217  1.0351  0.4381  1.3033
 1953TIP3   OH227273   5.897   1.795  11.995 -0.0431  0.3784  0.2919
 1953TIP3    H127274   5.806   1.824  11.985 -0.4992 -0.9896  0.3596
 1953TIP3    H227275   5.912   1.735  11.922  1.1020  1.2371 -0.2222
 1954TIP3   OH227276   4.437   3.277  12.621 -0.1321 -0.6919 -0.1075
 1954TIP3    H127277   4.419   3.202  12.564  0.6521  0.3849 -1.8470
 1954TIP3    H227278   4.357   3.287  12.673 -0.0797 -3.0068  0.5564
 1955TIP3   OH227279   0.752   3.426   0.358  0.3811  0.6850 -0.2561
 1955TIP3    H127280   0.664   3.451   0.386  0.7050 -0.1615  1.6664
 1955TIP3    H227281   0.737   3.357   0.293 -0.3902  2.6148 -2.2574
 1956TIP3   OH227282   6.280   2.431  14.555  0.6699 -0.3830 -0.1248
 1956TIP3    H127283   6.266   2.385  14.473  0.6572 -0.0790 -0.2941
 1956TIP3    H227284   6.340   2.502  14.533  0.5729 -0.2280  0.1043
 1957TIP3   OH227285   1.072   4.834   3.324  0.0809  0.2654 -0.4358
 1957TIP3    H127286   1.062   4.923   3.358 -1.8971 -0.2663  0.5132
 1957TIP3    H227287   1.020   4.833   3.244 -1.3990 -0.4718  0.4920
 1958TIP3   OH227288   6.149   2.271  16.543 -0.2859  0.4239 -0.0045
 1958TIP3    H127289   6.176   2.179  16.542  1.9439  0.9823  0.9472
 1958TIP3    H227290   6.229   2.319  16.519 -0.7467  2.1880  1.7428
 1959TIP3   OH227291   0.956   1.737   2.764  0.2708 -0.0366 -0.2940
 1959TIP3    H127292   0.872   1.775   2.737  0.3662  0.6457  0.3418
 1959TIP3    H227293   1.010   1.738   2.685  0.1162  0.7357 -0.3969
 1960TIP3   OH227294   3.352   3.366   6.002  0.2044  0.6458 -0.2139
 1960TIP3    H127295   3.320   3.293   5.950  0.1108 -0.5011  1.4160
 1960TIP3    H227296   3.367   3.436   5.938 -0.3040 -0.5758 -1.7099
 1961TIP3   OH227297   4.962   2.583   3.519  0.0040 -0.5492 -0.3853
 1961TIP3    H127298   4.982   2.524   3.446 -0.9259 -0.3597 -0.8063
 1961TIP3    H227299   4.932   2.524   3.589  0.1660 -0.6659 -0.4120
 1962TIP3   OH227300   4.014   5.735  12.300  0.5963  0.1985 -0.0119
 1962TIP3    H127301   4.094   5.712  12.348  1.2844  0.4817 -0.9794
 1962TIP3    H227302   3.949   5.752  12.368  1.0525 -1.0611  0.7894
 1963TIP3   OH227303   5.931   3.875   3.474 -0.1693 -0.2690 -0.4701
 1963TIP3    H127304   5.918   3.959   3.430  1.8776  0.5071  0.3229
 1963TIP3    H227305   5.849   3.828   3.459 -1.3069  1.7825 -1.0861
 1964TIP3   OH227306   5.976   1.129   3.989  0.7526 -0.2309 -1.0016
 1964TIP3    H127307   5.995   1.056   4.048  0.4593  0.4583 -0.0221
 1964TIP3    H227308   5.902   1.174   4.030  0.5519  0.2681 -1.9001
 1965TIP3   OH227309   5.537   0.731   1.008 -0.6572  0.0371 -0.3484
 1965TIP3    H127310   5.502   0.712   1.095 -0.0687 -2.5689 -0.5981
 1965TIP3    H227311   5.600   0.661   0.992 -0.2134  0.8680 -2.5925
 1966TIP3   OH227312   5.917   1.203   1.603 -0.0653 -0.7070  0.1447
 1966TIP3    H127313   5.939   1.113   1.577 -1.1176 -0.3043 -2.5507
 1966TIP3    H227314   5.916   1.201   1.698  0.3814 -3.4524  0.1888
 1967TIP3   OH227315   0.561   4.134  16.431  0.7163 -0.3295  0.0603
 1967TIP3    H127316   0.543   4.041  16.429  2.0192 -0.6185 -2.4354
 1967TIP3    H227317   0.616   4.147  16.509  1.1569 -1.7662 -0.0003
 1968TIP3   OH227318   2.293   3.552   1.640 -0.0333  0.3869 -0.1335
 1968TIP3    H127319   2.333   3.628   1.597 -1.3139  0.9857 -0.2932
 1968TIP3    H227320   2.303   3.570   1.733  3.4807 -1.2930 -0.0251
 1969TIP3   OH227321   1.813   3.066  16.259 -0.0754  0.4459 -0.0316
 1969TIP3    H127322   1.761   3.134  16.217  0.6290  0.6990 -0.5041
 1969TIP3    H227323   1.754   2.991  16.264 -1.1406  1.3054  1.2315
 1970TIP3   OH227324   4.440   3.080   6.600  0.1189 -0.3308  0.2504
 1970TIP3    H127325   4.425   3.012   6.666 -1.4085 -0.4887 -0.2370
 1970TIP3    H227326   4.423   3.036   6.516 -1.1584  0.7018 -0.0582
 1971TIP3   OH227327   3.127   4.488   5.279 -0.1394 -0.4477 -0.5983
 1971TIP3    H127328   3.087   4.492   5.366 -0.8260  1.2974 -0.9665
 1971TIP3    H227329   3.208   4.538   5.287 -0.3084 -0.1061 -1.0167
 1972TIP3   OH227330   6.289   2.443  15.132  0.2961 -0.1184 -0.1137
 1972TIP3    H127331   6.380   2.424  15.109  1.0567  1.8259  0.9710
 1972TIP3    H227332   6.287   2.433  15.227 -0.5137  0.2357 -0.0900
 1973TIP3   OH227333   3.276   0.103   5.759  0.0239  0.0532  0.5684
 1973TIP3    H127334   3.333   0.029   5.737  2.3128  2.0520 -0.6703
 1973TIP3    H227335   3.322   0.149   5.828 -2.0071 -0.2794  2.2577
 1974TIP3   OH227336   5.858   2.040   4.333 -0.1828  0.2558 -0.2925
 1974TIP3    H127337   5.936   1.986   4.345 -0.5182  0.0049  0.8951
 1974TIP3    H227338   5.874   2.087   4.251  0.8710 -0.3614 -0.4611
 1975TIP3   OH227339   4.618   5.743  13.543 -0.0355  0.6422  0.2092
 1975TIP3    H127340   4.710   5.720  13.533  0.3150  1.5203  1.1604
 1975TIP3    H227341   4.593   5.782  13.459  0.6920  1.1444  0.2253
 1976TIP3   OH227342   6.683   6.123  12.829  0.1868  0.4156  0.3367
 1976TIP3    H127343   6.696   6.184  12.756  1.5216 -1.4138 -1.0597
 1976TIP3    H227344   6.687   6.178  12.907 -0.8476  2.3991 -0.9172
 1977TIP3   OH227345   4.333   4.616  14.468 -0.0077 -0.2031 -0.4192
 1977TIP3    H127346   4.378   4.607  14.384 -1.1077 -0.1104 -1.0352
 1977TIP3    H227347   4.243   4.638  14.445 -0.4483 -0.6721  0.7844
 1978TIP3   OH227348   6.563   6.384  15.102  0.5362  0.0805  0.1914
 1978TIP3    H127349   6.543   6.391  15.009 -1.6800 -1.6300  0.4787
 1978TIP3    H227350   6.589   6.292  15.115  0.7549  0.2744  1.2849
 1979TIP3   OH227351   6.327   3.505  15.228  0.0091 -0.1123  0.1592
 1979TIP3    H127352   6.396   3.488  15.291 -0.3561  1.0689  0.9024
 1979TIP3    H227353   6.368   3.490  15.143  0.9606 -0.1629  0.6174
 1980TIP3   OH227354   6.154   3.029   3.091 -0.5174  0.4302 -0.1434
 1980TIP3    H127355   6.104   3.079   3.155 -0.5525 -0.7443  0.7810
 1980TIP3    H227356   6.243   3.029   3.125 -0.5273 -0.1607 -0.1069
 1981TIP3   OH227357   2.099   2.560   4.816 -0.3482 -0.2450  0.1230
 1981TIP3    H127358   2.061   2.526   4.896 -1.7653 -0.9991 -0.8294
 1981TIP3    H227359   2.166   2.622   4.845  1.5568 -2.9580  1.9242
 1982TIP3   OH227360   1.576   5.276   6.426  0.1692 -0.0092 -0.1811
 1982TIP3    H127361   1.612   5.363   6.407 -1.7052  0.8020 -0.2358
 1982TIP3    H227362   1.495   5.272   6.374 -0.5522 -1.1944  0.9884
 1983TIP3   OH227363   5.888   1.462   5.941  0.6221 -0.2733  0.1069
 1983TIP3    H127364   5.897   1.449   5.846  1.6570  1.4721 -0.0670
 1983TIP3    H227365   5.908   1.376   5.978  2.5513 -0.4433 -1.1627
 1984TIP3   OH227366   0.354   3.485   6.506  0.4036 -0.2276 -0.3859
 1984TIP3    H127367   0.261   3.480   6.482 -0.6862  3.3791  2.1897
 1984TIP3    H227368   0.355   3.465   6.600  2.4785 -1.1600 -0.5506
 1985TIP3   OH227369   6.215   5.347  15.797 -0.3529  0.0488  0.1580
 1985TIP3    H127370   6.184   5.257  15.805  0.0464 -0.2850 -1.5198
 1985TIP3    H227371   6.145   5.400  15.834 -0.3157 -0.9702  1.7693
 1986TIP3   OH227372   4.312   6.512  16.650  0.8461 -0.0520  0.3543
 1986TIP3    H127373   4.329   6.418  16.657 -3.4301 -0.9427  1.9037
 1986TIP3    H227374   4.299   6.541  16.740  1.9412  2.1158 -0.0914
 1987TIP3   OH227375   0.930   1.577   5.507  0.0152  0.3935  0.2043
 1987TIP3    H127376   0.925   1.667   5.474 -0.3663 -0.1886 -1.4217
 1987TIP3    H227377   1.023   1.562   5.521  0.1515  0.8132 -0.2071
 1988TIP3   OH227378   3.904   6.492   0.132 -0.0245  0.6197 -0.1189
 1988TIP3    H127379   3.910   6.397   0.131 -0.4858  0.5818 -1.0668
 1988TIP3    H227380   3.940   6.518   0.216  1.3938 -0.3049 -0.4022
 1989TIP3   OH227381   2.162   6.513   5.957  0.4335 -0.4021 -0.3225
 1989TIP3    H127382   2.247   6.543   5.987  0.0487  0.7790 -0.3642
 1989TIP3    H227383   2.119   6.478   6.036  0.2982  0.5963  0.0563
 1990TIP3   OH227384   0.893   6.197   3.176 -0.1627 -0.0157 -0.0946
 1990TIP3    H127385   0.831   6.242   3.234  1.4959  1.1311  0.8714
 1990TIP3    H227386   0.886   6.243   3.092 -0.5833  0.1097  0.0077
 1991TIP3   OH227387   4.678   1.879   5.185  0.6035 -0.4875 -0.2806
 1991TIP3    H127388   4.758   1.897   5.234  0.1468  0.5338  0.1006
 1991TIP3    H227389   4.620   1.837   5.249  0.4116 -0.1572 -0.2345
 1992TIP3   OH227390   5.237   1.864  16.769  0.6858  0.3763  0.8888
 1992TIP3    H127391   5.142   1.853  16.776  0.6474  0.4444  0.4850
 1992TIP3    H227392   5.269   1.779  16.740  0.8055  0.1991  1.5403
 1993TIP3   OH227393   5.539   1.253   5.903 -0.3361  0.3577  0.0221
 1993TIP3    H127394   5.519   1.291   5.988  1.2741  1.9704 -0.2328
 1993TIP3    H227395   5.553   1.329   5.846 -1.8867 -0.6647 -1.8513
 1994TIP3   OH227396   2.375   2.177   6.515 -0.3394  0.0712  0.8051
 1994TIP3    H127397   2.298   2.230   6.531 -2.0212 -1.4804 -1.4564
 1994TIP3    H227398   2.391   2.131   6.598 -1.1643  1.2288  1.6314
 1995TIP3   OH227399   5.190   3.404   0.263  0.0351 -0.4888  0.0314
 1995TIP3    H127400   5.178   3.481   0.207  1.2838 -0.4098 -0.1368
 1995TIP3    H227401   5.117   3.347   0.239  0.4109 -0.3646 -1.5201
 1996TIP3   OH227402   5.792   3.979  11.288  0.0926  0.2350  0.5932
 1996TIP3    H127403   5.831   4.032  11.219 -0.3910  1.3067  1.1153
 1996TIP3    H227404   5.802   3.888  11.258  1.6270  0.5652  0.0428
 1997TIP3   OH227405   0.087   0.715   3.230 -0.6671  0.2585  0.4388
 1997TIP3    H127406   0.178   0.744   3.236 -0.0946 -0.9339 -1.4608
 1997TIP3    H227407   0.086   0.629   3.272 -0.9585  0.3389  0.6017
 1998TIP3   OH227408   3.879   0.709  16.099 -0.1980 -0.0022 -0.7523
 1998TIP3    H127409   3.825   0.640  16.138  0.5560 -1.7960 -2.6755
 1998TIP3    H227410   3.816   0.772  16.064 -0.9738 -0.5917 -0.4490
 1999TIP3   OH227411   2.805   2.355   2.832  0.6131 -0.7225  0.2395
 1999TIP3    H127412   2.900   2.346   2.837  0.5819 -0.9668  0.4595
 1999TIP3    H227413   2.790   2.423   2.767  0.9569 -0.2509  0.6463
 2000TIP3   OH227414   5.610   1.524   3.356 -0.3577  0.0787  0.1700
 2000TIP3    H127415   5.670   1.451   3.372 -0.4865 -0.1165 -0.2219
 2000TIP3    H227416   5.524   1.489   3.381 -0.3756  0.2025  0.2818
 2001TIP3   OH227417   5.968   5.703  14.403 -0.6491 -0.0159  0.0368
 2001TIP3    H127418   5.999   5.646  14.474  1.2477 -0.4411 -1.0490
 2001TIP3    H227419   6.025   5.779  14.408 -1.6630  0.7530  0.0352
 2002TIP3   OH227420   5.965   3.615   3.611 -0.4854 -0.0806  0.9563
 2002TIP3    H127421   5.891   3.619   3.671 -0.5273 -2.9249  1.2267
 2002TIP3    H227422   5.976   3.705   3.580 -3.9311  0.4622  1.0052
 2003TIP3   OH227423   3.086   1.800  10.755 -0.0981  0.0666  0.9392
 2003TIP3    H127424   3.103   1.876  10.698  0.4435  1.2053  2.5578
 2003TIP3    H227425   3.137   1.817  10.833 -1.0995 -1.2892  1.9316
 2004TIP3   OH227426   4.431   1.038  14.416 -0.2771  0.0782 -0.1702
 2004TIP3    H127427   4.434   1.130  14.389 -3.2459  0.2481 -0.2627
 2004TIP3    H227428   4.492   1.033  14.490  0.5519  1.9211 -0.6597
 2005TIP3   OH227429   1.192   0.470   4.901 -0.8805  0.1968 -0.4225
 2005TIP3    H127430   1.258   0.424   4.954  0.1506  1.8940 -0.1669
 2005TIP3    H227431   1.224   0.462   4.811  2.3963  4.8138 -0.0262
 2006TIP3   OH227432   4.622   1.659  15.298  0.1031  0.3207 -0.1017
 2006TIP3    H127433   4.613   1.673  15.204 -0.2740 -0.0722 -0.1288
 2006TIP3    H227434   4.532   1.647  15.330  0.0845  1.9797  0.5687
 2007TIP3   OH227435   6.005   3.004   1.052 -0.5957 -0.5561  0.1948
 2007TIP3    H127436   6.079   2.962   1.008 -1.6058 -2.4467  0.1854
 2007TIP3    H227437   6.043   3.081   1.094  0.7959  0.2157 -2.2604
 2008TIP3   OH227438   4.893   5.527   0.963 -0.0954 -0.1010  0.0628
 2008TIP3    H127439   4.906   5.490   1.051 -0.9906 -0.1730  0.1758
 2008TIP3    H227440   4.967   5.494   0.912  0.7450  0.4031  0.9317
 2009TIP3   OH227441   1.543   5.678   2.101  0.1493  0.0040 -0.3148
 2009TIP3    H127442   1.517   5.770   2.111 -0.5670 -0.2697  0.5181
 2009TIP3    H227443   1.638   5.679   2.112  0.0834  0.5818  0.2914
 2010TIP3   OH227444   3.023   2.797   4.590  0.0456  0.4683  0.1803
 2010TIP3    H127445   3.056   2.749   4.513 -1.7429 -2.5959  1.1435
 2010TIP3    H227446   2.962   2.861   4.554 -1.3148 -1.3865 -1.0168
 2011TIP3   OH227447   4.917   2.460  13.004 -0.0873  0.3533  0.3410
 2011TIP3    H127448   4.972   2.458  12.925 -0.0205 -1.3068  0.3865
 2011TIP3    H227449   4.830   2.480  12.972 -0.3844 -1.9084 -0.4304
 2012TIP3   OH227450   1.475   1.316   7.392  0.3056 -0.4513  0.4519
 2012TIP3    H127451   1.499   1.225   7.379 -1.3734 -1.1401  1.6959
 2012TIP3    H227452   1.458   1.350   7.304  2.4450 -0.8457 -0.1503
 2013TIP3   OH227453   5.704   4.439   2.813  0.3086  0.1466  0.6166
 2013TIP3    H127454   5.697   4.390   2.895 -0.7823 -0.2717  0.2896
 2013TIP3    H227455   5.660   4.385   2.748 -0.5746  1.3630  0.1578
 2014TIP3   OH227456   1.129   2.513   5.885 -0.8833 -0.1834 -0.3295
 2014TIP3    H127457   1.202   2.458   5.914 -1.0736  0.0557  0.6346
 2014TIP3    H227458   1.051   2.465   5.910 -1.0743 -0.4353 -1.3616
 2015TIP3   OH227459   3.639   3.441  11.452 -0.3996 -0.5893  0.5544
 2015TIP3    H127460   3.544   3.436  11.460 -0.6321  1.8313  0.0547
 2015TIP3    H227461   3.657   3.417  11.361 -0.5963 -0.4232  0.4714
 2016TIP3   OH227462   4.772   1.033  11.936 -0.0633 -0.5402 -0.0663
 2016TIP3    H127463   4.704   0.967  11.938 -2.0251  1.3437 -0.7267
 2016TIP3    H227464   4.758   1.085  12.015  1.0437 -0.5053  0.1309
 2017TIP3   OH227465   0.013   5.415  15.676 -0.5596 -0.1757 -0.4159
 2017TIP3    H127466  -0.013   5.323  15.680  0.3540 -0.4061  0.3755
 2017TIP3    H227467   0.085   5.416  15.613 -1.5583  0.2613 -1.6005
 2018TIP3   OH227468   4.827   4.622   3.434 -0.6041 -0.3904 -0.9070
 2018TIP3    H127469   4.901   4.562   3.422 -0.1595  0.0190 -0.3010
 2018TIP3    H227470   4.819   4.631   3.529 -0.8505  0.2793 -0.9836
 2019TIP3   OH227471   0.620   2.739   4.592  0.2319  0.4237  0.0762
 2019TIP3    H127472   0.578   2.673   4.538  1.2882 -0.0014 -0.2517
 2019TIP3    H227473   0.680   2.784   4.533  2.8440 -1.3125  1.2123
 2020TIP3   OH227474   0.106   0.875   0.671 -0.5151 -0.5518 -0.1541
 2020TIP3    H127475   0.048   0.943   0.706  0.1879 -0.9223  1.8960
 2020TIP3    H227476   0.084   0.797   0.722  1.2881 -0.8695  0.1999
 2021TIP3   OH227477   4.286   5.102  11.707  0.3445 -0.4586  0.2371
 2021TIP3    H127478   4.375   5.133  11.727  0.4452 -0.5671 -0.0309
 2021TIP3    H227479   4.284   5.012  11.738  0.9974 -1.1498 -1.5464
 2022TIP3   OH227480   3.557   1.264  17.246 -0.0716  0.2473 -0.4999
 2022TIP3    H127481   3.573   1.318  17.323  0.0908  0.7513 -0.8796
 2022TIP3    H227482   3.542   1.327  17.175  2.0047 -0.1438 -1.3760
 2023TIP3   OH227483   2.563   0.571   0.317  0.1282 -0.2408  0.0883
 2023TIP3    H127484   2.586   0.602   0.230 -0.8095 -0.4712 -0.2577
 2023TIP3    H227485   2.554   0.651   0.369 -1.2528  0.0436 -0.5357
 2024TIP3   OH227486   0.461   1.228  15.573 -0.0791  0.1735  0.0354
 2024TIP3    H127487   0.491   1.145  15.611 -1.4501  0.1545  1.1818
 2024TIP3    H227488   0.372   1.239  15.608 -0.8056  0.9797 -1.9438
 2025TIP3   OH227489   6.438   0.124   4.964 -0.4392 -0.5770 -0.1885
 2025TIP3    H127490   6.386   0.161   4.892  0.2162  0.4125 -0.1720
 2025TIP3    H227491   6.433   0.030   4.950 -0.9385 -0.4348 -1.1012
 2026TIP3   OH227492   2.714   1.480  17.615 -0.0569  0.6152 -0.3688
 2026TIP3    H127493   2.791   1.480  17.558  0.4429 -1.0870  0.2490
 2026TIP3    H227494   2.643   1.448  17.559  0.4786 -1.2640 -0.0295
 2027TIP3   OH227495   0.530   2.667   4.036 -0.4351 -0.2160  0.2437
 2027TIP3    H127496   0.584   2.592   4.059 -0.5420 -0.3183  0.1591
 2027TIP3    H227497   0.450   2.629   3.999 -0.2232 -0.0461 -0.3897
 2028TIP3   OH227498   3.926   2.158   3.778 -0.5830  0.0439 -0.0079
 2028TIP3    H127499   3.992   2.183   3.842 -0.6728  0.2501  0.0057
 2028TIP3    H227500   3.869   2.097   3.824  0.6313 -1.5611 -0.5428
 2029TIP3   OH227501   1.705   5.192   4.842 -0.2336  0.0363 -0.3417
 2029TIP3    H127502   1.648   5.250   4.792  0.7172  2.0004  0.7149
 2029TIP3    H227503   1.663   5.106   4.837 -0.8233  0.3852 -3.3879
 2030TIP3   OH227504   1.329   0.914   3.882  0.4257 -0.0819 -0.1900
 2030TIP3    H127505   1.248   0.904   3.933  0.6506  0.9296  0.4009
 2030TIP3    H227506   1.392   0.855   3.925  0.3125 -0.0309  0.0480
 2031TIP3   OH227507   2.295   1.032  17.567  0.1427 -0.5166 -0.2207
 2031TIP3    H127508   2.252   0.978  17.634  0.2359  0.5096  0.6907
 2031TIP3    H227509   2.337   0.968  17.508 -0.0392 -1.4408  0.6217
 2032TIP3   OH227510   0.242   1.751  11.042 -0.0536  0.0151 -0.0466
 2032TIP3    H127511   0.269   1.663  11.069 -0.7280 -0.0328  0.5169
 2032TIP3    H227512   0.180   1.778  11.110 -0.2371  0.7249 -0.4888
 2033TIP3   OH227513   6.531   0.763  15.215  0.4022  0.8574 -0.0671
 2033TIP3    H127514   6.504   0.791  15.128  0.9269  0.6199 -0.3112
 2033TIP3    H227515   6.569   0.842  15.255  0.7296  0.8168 -0.2886
 2034TIP3   OH227516   5.323   3.694  17.156  0.4069 -0.1518  0.1420
 2034TIP3    H127517   5.337   3.783  17.188  1.7596 -0.1070 -0.5213
 2034TIP3    H227518   5.272   3.705  17.076 -2.6460 -0.2419  1.9165
 2035TIP3   OH227519   4.625   6.256  11.864 -0.3378 -0.5505 -0.3282
 2035TIP3    H127520   4.604   6.347  11.842 -1.2232 -0.2248  1.6880
 2035TIP3    H227521   4.571   6.204  11.804 -0.2419  0.2376 -1.1224
 2036TIP3   OH227522   0.016   1.615  13.067 -0.0109 -0.3027  0.6938
 2036TIP3    H127523  -0.012   1.567  12.988  0.2468  2.2520 -1.0769
 2036TIP3    H227524   0.097   1.571  13.094 -0.3578 -1.5349 -0.1666
 2037TIP3   OH227525   6.644   4.434  16.676  0.2288  0.1360  0.1992
 2037TIP3    H127526   6.718   4.449  16.736 -0.7695  0.8862  1.3020
 2037TIP3    H227527   6.573   4.405  16.733 -0.8844  1.2940 -0.5542
 2038TIP3   OH227528   0.526   5.055   4.972 -0.5053  0.6105  0.1897
 2038TIP3    H127529   0.545   5.071   5.065  0.7892  1.1037 -0.1437
 2038TIP3    H227530   0.453   5.114   4.953 -1.5259 -0.2967  1.1553
 2039TIP3   OH227531   5.210   4.714  14.284 -0.0042 -0.4011 -0.1400
 2039TIP3    H127532   5.282   4.690  14.227 -1.1924 -2.7105 -0.8085
 2039TIP3    H227533   5.133   4.717  14.227 -0.6439  0.9984  0.7215
 2040TIP3   OH227534   3.709   4.517   1.144  0.5563 -0.4045  0.4893
 2040TIP3    H127535   3.714   4.530   1.049 -0.4762 -0.0248  0.4820
 2040TIP3    H227536   3.800   4.502   1.170  0.8875 -0.2467 -0.5189
 2041TIP3   OH227537   0.786   2.716  16.512 -0.2113 -0.1181  0.1909
 2041TIP3    H127538   0.771   2.758  16.427 -0.3140 -0.8591 -0.1749
 2041TIP3    H227539   0.779   2.786  16.576  0.0121  0.4842 -0.4286
 2042TIP3   OH227540   3.038   1.780   1.519 -0.0203  0.1668 -0.0510
 2042TIP3    H127541   2.963   1.764   1.461  1.4937 -0.1444 -2.0240
 2042TIP3    H227542   3.059   1.872   1.506 -0.9919  0.6968  1.7449
 2043TIP3   OH227543   2.717   5.965  16.805  0.1812  0.1010 -0.0145
 2043TIP3    H127544   2.695   5.893  16.746  0.7863 -0.9300  0.9739
 2043TIP3    H227545   2.747   5.922  16.886  0.9274  1.4546  0.4709
 2044TIP3   OH227546   6.268   3.871  14.856 -0.2733  0.0089  0.0766
 2044TIP3    H127547   6.181   3.836  14.876  0.1448 -1.2336 -0.1712
 2044TIP3    H227548   6.312   3.877  14.941 -0.5628  0.5516  0.1922
 2045TIP3   OH227549   3.777   4.070   6.637 -0.5533 -0.2196 -0.2476
 2045TIP3    H127550   3.774   4.155   6.679  3.6157 -0.2074  0.5086
 2045TIP3    H227551   3.774   4.089   6.543  1.2664  0.9362 -0.1120
 2046TIP3   OH227552   6.653   4.750   0.487  0.2931  0.1481 -0.1619
 2046TIP3    H127553   6.639   4.817   0.419 -0.5307  1.0703  0.8736
 2046TIP3    H227554   6.737   4.710   0.464  0.8459  1.5768 -0.7988
 2047TIP3   OH227555   3.405   6.281   3.313  0.3414  0.6695  0.1314
 2047TIP3    H127556   3.401   6.185   3.311  0.9053  0.5435  2.3183
 2047TIP3    H227557   3.492   6.301   3.279  0.4929  0.3372  0.3099
 2048TIP3   OH227558   1.031   3.150   5.730 -0.2538  0.2405 -0.1701
 2048TIP3    H127559   1.080   3.220   5.771  0.5594 -0.1261 -0.4847
 2048TIP3    H227560   0.939   3.175   5.740  0.0238  1.3379 -0.2767
 2049TIP3   OH227561   1.151   4.537   0.071  0.0176 -0.5489  0.3545
 2049TIP3    H127562   1.189   4.599   0.133 -3.1948 -0.9480  2.9737
 2049TIP3    H227563   1.098   4.591   0.012  0.9194 -0.4382 -0.3830
 2050TIP3   OH227564   2.705   0.928   1.098  0.6167 -0.6425  0.1482
 2050TIP3    H127565   2.649   0.975   1.036  1.4164  0.1968  0.0344
 2050TIP3    H227566   2.645   0.877   1.151 -0.0728 -1.7839 -1.6262
 2051TIP3   OH227567   4.304   1.003  13.995  0.5460  0.1557  0.3958
 2051TIP3    H127568   4.235   1.032  14.055  1.2508  0.8527  0.8863
 2051TIP3    H227569   4.379   0.985  14.051  0.9655  0.0257 -0.1965
 2052TIP3   OH227570   5.012   1.008  13.171 -0.0467  0.0900  0.2090
 2052TIP3    H127571   4.977   1.029  13.258  1.3248  0.8357  0.6191
 2052TIP3    H227572   4.988   1.082  13.116 -0.1026  0.0559  0.1869
 2053TIP3   OH227573   5.887   4.825  16.415 -0.0111 -0.0467 -0.2708
 2053TIP3    H127574   5.835   4.904  16.432 -1.4821 -1.2938  1.4655
 2053TIP3    H227575   5.926   4.840  16.329 -2.9709  1.1554 -1.5321
 2054TIP3   OH227576   6.027   0.103  12.854  0.0792 -0.7118  0.0846
 2054TIP3    H127577   6.092   0.106  12.925 -0.1541 -1.0017  0.3131
 2054TIP3    H227578   5.967   0.034  12.880 -0.7268  0.0189  0.2183
 2055TIP3   OH227579   0.817   0.948   2.613 -0.3397  0.5551 -0.6279
 2055TIP3    H127580   0.824   0.859   2.650 -0.8070 -0.1132 -2.0947
 2055TIP3    H227581   0.730   0.978   2.639 -0.2314  0.5351 -0.2372
 2056TIP3   OH227582   1.446   2.500  11.931  0.3673  0.0009 -0.0181
 2056TIP3    H127583   1.534   2.535  11.947 -0.3176  0.6930  2.8253
 2056TIP3    H227584   1.455   2.406  11.942  0.4834  0.2153  2.2867
 2057TIP3   OH227585   2.055   1.830   3.423 -0.2968  0.3185 -0.4749
 2057TIP3    H127586   2.143   1.800   3.446 -0.1184  2.0692  1.3608
 2057TIP3    H227587   2.056   1.834   3.327  1.0196 -1.3175 -0.5850
 2058TIP3   OH227588   5.259   4.001   0.256 -0.0835  0.3293  0.0255
 2058TIP3    H127589   5.203   3.930   0.225 -0.4164 -0.7009  2.7440
 2058TIP3    H227590   5.330   3.957   0.302  0.1816  1.7340  1.0189
 2059TIP3   OH227591   2.875   0.770  17.090  0.0038  0.7020 -0.5920
 2059TIP3    H127592   2.793   0.796  17.132  0.9698  2.1718  0.4848
 2059TIP3    H227593   2.871   0.674  17.087 -1.6648  0.7413 -0.4316
 2060TIP3   OH227594   4.096   3.016   1.433 -0.7103  0.0214 -0.2029
 2060TIP3    H127595   4.150   2.941   1.411 -1.2817 -0.8317  1.1653
 2060TIP3    H227596   4.024   3.014   1.370 -1.1222 -1.0435  0.2755
 2061TIP3   OH227597   1.716   3.708  12.415  0.3065 -0.2212 -0.0057
 2061TIP3    H127598   1.620   3.705  12.417  0.3298 -0.8108  0.6839
 2061TIP3    H227599   1.739   3.774  12.481  0.3698  0.2119 -0.4554
 2062TIP3   OH227600   0.754   0.301  15.918  0.6431  0.0931 -0.1901
 2062TIP3    H127601   0.701   0.318  15.840  1.2748  0.8465 -0.4782
 2062TIP3    H227602   0.734   0.211  15.943 -2.2435  0.9411  0.8805
 2063TIP3   OH227603   1.026   6.067  15.900 -0.0239  0.6558  0.7604
 2063TIP3    H127604   1.100   6.115  15.864  1.9467 -2.6456  0.0416
 2063TIP3    H227605   1.045   6.059  15.994  0.5136 -0.0734  0.5988
 2064TIP3   OH227606   5.748   0.606  16.790  0.5818 -0.0448 -0.5526
 2064TIP3    H127607   5.735   0.570  16.878  1.7915  0.6928 -0.0539
 2064TIP3    H227608   5.711   0.694  16.795  1.0274  0.1488 -0.6596
 2065TIP3   OH227609   0.139   2.815   3.727  0.1245  0.4377  0.3125
 2065TIP3    H127610   0.179   2.869   3.795  0.0157  1.0289 -0.0917
 2065TIP3    H227611   0.213   2.779   3.678  0.1945  0.2509  0.5509
 2066TIP3   OH227612   6.329   0.283   1.084 -0.1238  0.5006 -0.3795
 2066TIP3    H127613   6.337   0.249   0.994 -1.1173 -1.4727  0.2370
 2066TIP3    H227614   6.416   0.319   1.103  0.9089 -1.4196 -1.2206
 2067TIP3   OH227615   0.498   1.413  15.115 -0.5599 -0.0762  0.1034
 2067TIP3    H127616   0.574   1.448  15.069 -0.5259  0.0493  0.2593
 2067TIP3    H227617   0.433   1.484  15.111 -1.1605 -0.6462 -1.2139
 2068TIP3   OH227618   1.042   6.394   4.526  0.3737  0.1123  0.0635
 2068TIP3    H127619   0.951   6.365   4.524  0.2933  0.3705 -0.2655
 2068TIP3    H227620   1.051   6.449   4.447  0.4240  1.2667  0.8516
 2069TIP3   OH227621   1.983   4.977   3.858 -0.0712  0.0142 -0.4970
 2069TIP3    H127622   2.070   4.990   3.820 -0.1640 -1.8214 -1.4437
 2069TIP3    H227623   1.950   4.898   3.816 -1.5028 -0.3063  1.1259
 2070TIP3   OH227624   1.928   1.913   0.586 -0.2333 -0.0110  0.3877
 2070TIP3    H127625   1.987   1.859   0.640 -0.9912 -0.1097  1.1445
 2070TIP3    H227626   1.985   1.952   0.520  0.5854 -0.5463  0.7567
 2071TIP3   OH227627   5.714   6.622  13.863  0.6002 -0.0849 -0.4635
 2071TIP3    H127628   5.726   6.549  13.923 -0.6625  0.3383  0.3405
 2071TIP3    H227629   5.725   6.584  13.776  0.5177 -1.1136 -0.0386
 2072TIP3   OH227630   5.292   4.139   5.698 -0.1457  0.2240  0.0029
 2072TIP3    H127631   5.342   4.139   5.616 -0.2879  1.4426 -0.0914
 2072TIP3    H227632   5.201   4.145   5.671 -0.1415  1.7331  0.2591
 2073TIP3   OH227633   3.843   3.481   2.423  0.1258 -0.2755 -0.0378
 2073TIP3    H127634   3.787   3.465   2.499 -0.6007 -1.5888 -0.8193
 2073TIP3    H227635   3.793   3.540   2.368  0.1390 -0.2885 -0.0641
 2074TIP3   OH227636   0.296   3.725  14.238  0.0054  0.4681 -0.6610
 2074TIP3    H127637   0.346   3.653  14.199 -0.4037  0.1815 -0.6620
 2074TIP3    H227638   0.345   3.804  14.215  0.6961  0.1536 -0.2813
 2075TIP3   OH227639   2.881   3.145  11.287 -0.2846 -0.4922 -0.6995
 2075TIP3    H127640   2.814   3.090  11.328  0.5577 -0.5261  0.6822
 2075TIP3    H227641   2.848   3.234  11.298  0.1883 -0.4581  0.5800
 2076TIP3   OH227642   4.222   0.083   4.948  0.1757 -0.6360 -0.0598
 2076TIP3    H127643   4.276   0.053   5.021 -0.2996  0.4323  0.7585
 2076TIP3    H227644   4.284   0.112   4.882  0.7455  2.3222  1.5678
 2077TIP3   OH227645   2.963   0.899   4.234  0.3001 -0.5840 -0.1877
 2077TIP3    H127646   2.914   0.870   4.311 -0.0105 -1.2739 -0.6414
 2077TIP3    H227647   2.899   0.895   4.162 -0.0129  1.9396 -0.1675
 2078TIP3   OH227648   4.674   5.201  13.073 -0.4041 -0.0037 -0.2830
 2078TIP3    H127649   4.708   5.271  13.129  0.2164  1.0888 -1.9520
 2078TIP3    H227650   4.580   5.198  13.091 -0.0176 -0.6751  1.8358
 2079TIP3   OH227651   2.670   4.083   3.374 -0.1161  0.1258 -0.6198
 2079TIP3    H127652   2.651   3.992   3.354  1.2933 -0.6177  1.1149
 2079TIP3    H227653   2.598   4.111   3.432 -0.2773 -0.0332 -0.7436
 2080TIP3   OH227654   1.151   5.708  11.492 -0.3131 -0.2016 -0.9716
 2080TIP3    H127655   1.140   5.682  11.400  2.3820 -0.3310 -1.3507
 2080TIP3    H227656   1.224   5.770  11.490 -0.3097 -0.0880  1.0706
 2081TIP3   OH227657   6.321   1.467   5.777 -0.5581  0.0005 -0.0677
 2081TIP3    H127658   6.339   1.555   5.812 -2.5059  1.1617 -1.7214
 2081TIP3    H227659   6.276   1.422   5.848 -0.4885  0.7219  0.4515
 2082TIP3   OH227660   3.803   1.040   6.037  0.6265 -0.4700 -0.2385
 2082TIP3    H127661   3.713   1.055   6.064  1.5073 -0.4393  3.1860
 2082TIP3    H227662   3.843   1.127   6.036  0.7436 -0.5282 -1.2900
 2083TIP3   OH227663   2.817   1.186   5.695 -0.1115 -0.0537 -0.8009
 2083TIP3    H127664   2.860   1.162   5.778 -0.6512  0.1821 -0.4425
 2083TIP3    H227665   2.863   1.135   5.629  0.1195 -0.5017 -0.3106
 2084TIP3   OH227666   1.209   1.388  16.963  0.5625 -0.1382  0.3083
 2084TIP3    H127667   1.261   1.465  16.983  0.2668  0.4229 -0.9553
 2084TIP3    H227668   1.273   1.317  16.955  1.0441  0.3512 -0.3124
 2085TIP3   OH227669   0.966   6.372   3.651 -0.2109  0.2813 -0.3826
 2085TIP3    H127670   1.018   6.294   3.670  0.9075  0.8104 -1.1195
 2085TIP3    H227671   0.936   6.402   3.736  0.4467 -0.2334  0.0419
 2086TIP3   OH227672   2.549   2.418   0.923 -0.1262 -0.5219 -0.3551
 2086TIP3    H127673   2.605   2.347   0.956  1.4811  0.7820 -0.1442
 2086TIP3    H227674   2.534   2.396   0.832  1.2990 -0.6041 -0.5960
 2087TIP3   OH227675   4.218   2.991  12.717  0.0975 -0.1883 -0.3958
 2087TIP3    H127676   4.191   2.943  12.795  1.5014  0.1321  0.3354
 2087TIP3    H227677   4.150   3.057  12.704 -0.4083 -0.5770  0.2607
 2088TIP3   OH227678   5.293   4.604  16.386 -0.1524  0.0882  0.3093
 2088TIP3    H127679   5.198   4.598  16.377 -0.2673  1.9105 -0.0196
 2088TIP3    H227680   5.327   4.588  16.298 -0.3181  1.6994 -0.0769
 2089TIP3   OH227681   4.837   4.660   5.831 -0.2047 -0.5961  0.1288
 2089TIP3    H127682   4.771   4.591   5.838  0.6680 -1.3185  1.6702
 2089TIP3    H227683   4.912   4.618   5.790  0.2769 -0.5404  0.9359
 2090TIP3   OH227684   4.492   3.895   0.146  0.3059 -0.0590  0.1462
 2090TIP3    H127685   4.478   3.902   0.240  0.6541  2.3487  0.0727
 2090TIP3    H227686   4.558   3.961   0.126  0.3921 -0.6592 -1.7737
 2091TIP3   OH227687   4.494   5.341   1.534  1.1176  0.3536  0.4048
 2091TIP3    H127688   4.458   5.381   1.454  2.3996  1.0495  0.1606
 2091TIP3    H227689   4.442   5.379   1.605 -0.8991 -1.2197 -0.1265
 2092TIP3   OH227690   1.241   1.812  16.489  0.2304  0.2470 -0.4437
 2092TIP3    H127691   1.283   1.847  16.411  1.0125  1.6291  0.5457
 2092TIP3    H227692   1.148   1.829  16.475  0.5036  1.9978 -0.3967
 2093TIP3   OH227693   6.331   2.476  12.648  0.0517  0.3778  0.0561
 2093TIP3    H127694   6.393   2.549  12.654  1.2519 -0.5969 -0.0685
 2093TIP3    H227695   6.262   2.498  12.710 -0.0925  2.0575 -0.6377
 2094TIP3   OH227696   5.264   2.729   0.211 -0.4327 -0.0402 -0.5550
 2094TIP3    H127697   5.289   2.706   0.300 -0.0083 -0.9620 -0.8985
 2094TIP3    H227698   5.346   2.755   0.169 -0.6434  0.4687 -0.6611
 2095TIP3   OH227699   2.177   5.549   1.602  0.1231 -0.0740 -0.1678
 2095TIP3    H127700   2.168   5.627   1.657  0.4996 -0.1268 -0.0280
 2095TIP3    H227701   2.163   5.476   1.662  0.9141 -0.1434 -0.0484
 2096TIP3   OH227702   2.383   6.339   4.508 -0.0791 -0.1593 -0.1348
 2096TIP3    H127703   2.339   6.405   4.455 -1.3795  0.3475  1.5026
 2096TIP3    H227704   2.429   6.285   4.444 -1.4020  0.5409 -1.7729
 2097TIP3   OH227705   4.639   6.248   2.276 -0.6209 -0.2833  0.5352
 2097TIP3    H127706   4.604   6.329   2.237 -0.4286  0.0381  1.0275
 2097TIP3    H227707   4.651   6.269   2.368 -0.3320 -0.8009  0.6174
 2098TIP3   OH227708   6.267   0.625  15.883 -0.8645 -0.4195  0.7098
 2098TIP3    H127709   6.352   0.600  15.846 -0.3137 -0.6509  2.0750
 2098TIP3    H227710   6.203   0.578  15.830 -0.1392 -0.3125 -0.2823
 2099TIP3   OH227711   2.454   1.987  13.067 -0.4141 -0.0740 -0.5878
 2099TIP3    H127712   2.424   1.900  13.092  2.0631 -1.3626 -1.8166
 2099TIP3    H227713   2.519   2.010  13.133 -0.2079  0.3339 -0.9279
 2100TIP3   OH227714   6.405   1.271   4.174  0.0034  0.0345 -0.0428
 2100TIP3    H127715   6.355   1.214   4.117 -0.2135 -0.1531  0.3288
 2100TIP3    H227716   6.496   1.248   4.158 -0.0461  0.1531 -0.4870
 2101TIP3   OH227717   5.750   3.645   3.088 -0.3040  0.0253  0.1582
 2101TIP3    H127718   5.805   3.686   3.154 -0.1429  0.9810 -0.5401
 2101TIP3    H227719   5.660   3.663   3.117 -0.2345  0.4407  0.1176
 2102TIP3   OH227720   5.594   6.583   5.457 -0.0389  0.3517 -0.0189
 2102TIP3    H127721   5.683   6.613   5.438 -0.0823 -0.0094 -0.8117
 2102TIP3    H227722   5.605   6.491   5.483  0.0092  0.8005  1.6561
 2103TIP3   OH227723   1.384   6.554  15.580 -0.0777 -0.6993 -0.0432
 2103TIP3    H127724   1.441   6.613  15.629  0.4203 -1.9708  0.9514
 2103TIP3    H227725   1.426   6.547  15.494  1.0368 -1.2738  0.5354
 2104TIP3   OH227726   3.645   0.250  12.574 -0.3067 -0.2629 -0.5283
 2104TIP3    H127727   3.717   0.303  12.607 -0.5522 -0.0203 -0.3812
 2104TIP3    H227728   3.566   0.303  12.590 -0.4743 -0.3275 -1.0966
 2105TIP3   OH227729   4.358   4.448  13.524  0.4612  0.3818  0.9439
 2105TIP3    H127730   4.404   4.471  13.443  1.2759 -0.4952  1.1519
 2105TIP3    H227731   4.329   4.533  13.559 -1.5611  0.6814 -1.1996
 2106TIP3   OH227732   5.221   2.821   4.843 -0.0730 -0.0863 -0.4682
 2106TIP3    H127733   5.296   2.878   4.860 -1.1436  0.9317  1.1133
 2106TIP3    H227734   5.154   2.879   4.805 -1.6130  0.1148  2.2796
 2107TIP3   OH227735   1.907   5.546  16.042  0.3787  0.4392  0.2016
 2107TIP3    H127736   1.995   5.581  16.029  1.4700 -2.1814 -0.1603
 2107TIP3    H227737   1.863   5.558  15.958  1.6632 -1.3594 -0.8080
 2108TIP3   OH227738   5.469   5.291   3.321  0.2335 -0.1448 -0.0415
 2108TIP3    H127739   5.514   5.334   3.393 -0.4521  0.9294 -0.2272
 2108TIP3    H227740   5.537   5.277   3.255  1.3454 -3.0566  1.5563
 2109TIP3   OH227741   2.871   4.922  11.134 -0.3126  0.2767  0.9393
 2109TIP3    H127742   2.881   4.984  11.206 -1.8144  0.5762  0.9350
 2109TIP3    H227743   2.858   4.978  11.056  0.2093 -0.0446  0.6160
 2110TIP3   OH227744   5.009   2.120  12.429  0.4303  0.3972 -0.1588
 2110TIP3    H127745   5.045   2.031  12.434  0.1394  0.3595  1.9615
 2110TIP3    H227746   4.982   2.129  12.337 -0.0034 -1.8981 -0.3331
 2111TIP3   OH227747   2.466   2.615  17.576 -0.0218 -0.1321 -0.1323
 2111TIP3    H127748   2.371   2.607  17.585 -0.5066  0.6048 -3.3143
 2111TIP3    H227749   2.484   2.708  17.586  0.1604 -0.0917 -0.7852
 2112TIP3   OH227750   5.245   6.682  14.127 -0.3588 -0.1751 -0.1461
 2112TIP3    H127751   5.261   6.665  14.034  2.4987 -0.1779  0.2662
 2112TIP3    H227752   5.326   6.656  14.171  0.2275  4.0683  1.8250
 2113TIP3   OH227753   2.561   4.243   2.325  0.0108 -0.4701 -0.4733
 2113TIP3    H127754   2.629   4.176   2.341 -0.1124 -0.6863 -0.8457
 2113TIP3    H227755   2.534   4.228   2.234  1.5413  1.5064 -1.3328
 2114TIP3   OH227756   5.186   5.496   1.524 -0.5691 -0.3570  0.1480
 2114TIP3    H127757   5.120   5.432   1.551 -1.2779  0.6561  0.9086
 2114TIP3    H227758   5.226   5.524   1.606 -0.2530  0.1595 -0.1816
 2115TIP3   OH227759   1.432   4.073   1.125  0.0008 -0.8911 -0.6547
 2115TIP3    H127760   1.400   4.112   1.206 -0.9692 -0.1912 -1.3536
 2115TIP3    H227761   1.391   3.987   1.121  1.4518 -1.6774  0.4531
 2116TIP3   OH227762   1.581   2.601   4.724  0.2014  0.1702 -0.4131
 2116TIP3    H127763   1.520   2.613   4.652  1.8415  0.5687 -1.8086
 2116TIP3    H227764   1.643   2.534   4.692  1.6992  1.2579  0.0930
 2117TIP3   OH227765   1.644   3.192   4.674  0.3944 -0.2003 -0.0880
 2117TIP3    H127766   1.666   3.099   4.682  1.1545  0.0773  1.6990
 2117TIP3    H227767   1.623   3.219   4.764  1.1768  1.5655 -0.3964
 2118TIP3   OH227768   4.416   3.289   5.885 -0.3310 -0.5643  0.0400
 2118TIP3    H127769   4.455   3.225   5.944  0.1290 -0.8365 -0.5504
 2118TIP3    H227770   4.391   3.239   5.808  0.0011 -0.0479 -0.4140
 2119TIP3   OH227771   6.341   5.368  16.733 -0.4865  0.4565  1.1460
 2119TIP3    H127772   6.386   5.452  16.727  1.1371 -0.4879 -2.0894
 2119TIP3    H227773   6.260   5.380  16.685 -0.7642  0.4424  1.6048
 2120TIP3   OH227774   1.643   4.412  16.954  0.8211 -0.7838 -0.1380
 2120TIP3    H127775   1.632   4.484  16.891  2.1126 -0.2360  0.2102
 2120TIP3    H227776   1.564   4.415  17.008  1.0840  0.7632  0.2210
 2121TIP3   OH227777   1.325   3.813  11.210 -0.2465 -0.2468  0.0459
 2121TIP3    H127778   1.371   3.769  11.282  0.0492  0.6173  0.3960
 2121TIP3    H227779   1.369   3.898  11.203 -0.4427 -0.2264 -0.9877
 2122TIP3   OH227780   1.178   2.517   0.293 -0.0917 -0.3896 -0.0077
 2122TIP3    H127781   1.188   2.482   0.205  0.8433  2.2903 -1.0694
 2122TIP3    H227782   1.083   2.523   0.306 -0.3962  2.8013 -2.5182
 2123TIP3   OH227783   5.778   3.953  12.142  0.2235  0.0043 -0.6887
 2123TIP3    H127784   5.857   3.916  12.104  2.6543  3.0714  0.8789
 2123TIP3    H227785   5.785   3.936  12.236 -0.7238  0.7726 -0.4545
 2124TIP3   OH227786   3.536   4.617  16.368  0.3067 -0.6335 -0.1529
 2124TIP3    H127787   3.499   4.530  16.350 -0.0863 -0.5568  0.2738
 2124TIP3    H227788   3.511   4.670  16.292 -0.5911 -0.5449  0.1908
 2125TIP3   OH227789   3.469   3.277   4.416  0.0536 -0.2818 -0.4100
 2125TIP3    H127790   3.538   3.338   4.392 -0.0278 -0.5749 -1.4199
 2125TIP3    H227791   3.388   3.326   4.401 -0.0001  0.5253  1.9936
 2126TIP3   OH227792   3.778   5.734  15.092  0.3376 -0.5038  0.6312
 2126TIP3    H127793   3.795   5.828  15.087  0.5305 -0.5363  0.6601
 2126TIP3    H227794   3.717   5.725  15.165  0.0416 -0.3654  0.4026
 2127TIP3   OH227795   1.038   5.461  13.805  0.0452  1.0194 -0.0873
 2127TIP3    H127796   1.100   5.523  13.766  0.0508  1.0946  0.0405
 2127TIP3    H227797   0.960   5.468  13.749  0.8585 -0.6060 -1.5330
 2128TIP3   OH227798   5.132   5.411   0.886 -0.0228  0.1692  0.6274
 2128TIP3    H127799   5.212   5.450   0.919  0.8890 -0.5405 -0.6454
 2128TIP3    H227800   5.132   5.322   0.923 -1.0562  0.6678  1.8947
 2129TIP3   OH227801   1.659   3.043  11.665  0.1449  0.0984 -0.1281
 2129TIP3    H127802   1.636   2.950  11.664  1.4756 -0.2516 -0.8280
 2129TIP3    H227803   1.715   3.055  11.588  0.5511  1.3397  0.3316
 2130TIP3   OH227804   6.463   1.935   5.092 -0.1805 -0.5398 -0.1386
 2130TIP3    H127805   6.478   2.020   5.133 -0.8957 -0.4119 -0.1194
 2130TIP3    H227806   6.527   1.930   5.021 -0.7137  0.4015 -0.7022
 2131TIP3   OH227807   3.150   6.536  16.316  0.3666 -0.2282 -0.4816
 2131TIP3    H127808   3.106   6.562  16.235 -1.7432  1.9352  1.1867
 2131TIP3    H227809   3.232   6.586  16.316 -0.2556  0.8135 -0.6845
 2132TIP3   OH227810   2.466   4.679  10.796  0.0238 -0.1975 -0.4319
 2132TIP3    H127811   2.533   4.687  10.864 -0.4058  0.8161 -0.0997
 2132TIP3    H227812   2.384   4.701  10.841 -0.1880  1.1386 -1.4033
 2133TIP3   OH227813   5.856   4.742   1.939  0.4736 -0.2431  0.0886
 2133TIP3    H127814   5.892   4.823   1.903  0.8813  0.3581  1.7554
 2133TIP3    H227815   5.923   4.676   1.922  1.2315  0.3106  0.8464
 2134TIP3   OH227816   0.143   3.338   5.670  0.1050  0.4812  0.0508
 2134TIP3    H127817   0.108   3.287   5.597 -2.5367  2.3927 -0.1908
 2134TIP3    H227818   0.122   3.286   5.748 -1.4802  0.5800 -0.2712
 2135TIP3   OH227819   2.181   2.438   5.320  0.2443 -0.7153  0.5298
 2135TIP3    H127820   2.171   2.347   5.293  0.6361 -0.4192 -0.6509
 2135TIP3    H227821   2.094   2.476   5.310 -0.3436 -1.3614  2.6849
 2136TIP3   OH227822   2.971   5.061   1.340 -0.0172  0.6051  0.6047
 2136TIP3    H127823   3.050   5.110   1.317 -0.1578  0.6648  0.2436
 2136TIP3    H227824   2.984   4.974   1.301 -1.0950  1.2872 -1.4133
 2137TIP3   OH227825   4.058   4.649  11.973 -0.0289 -0.3419  0.1507
 2137TIP3    H127826   3.981   4.702  11.994 -0.2596 -0.8829  0.6978
 2137TIP3    H227827   4.127   4.683  12.030  0.0925  0.0294 -0.2171
 2138TIP3   OH227828   5.802   0.290  14.932 -0.4051  0.1085 -0.4415
 2138TIP3    H127829   5.802   0.269  14.839  0.2454  0.5361 -0.5420
 2138TIP3    H227830   5.775   0.382  14.937 -4.3988 -0.9159  0.0781
 2139TIP3   OH227831   2.512   3.493  15.162  0.3463  0.3898 -0.0922
 2139TIP3    H127832   2.462   3.481  15.242  1.7008  3.2523  1.3247
 2139TIP3    H227833   2.462   3.557  15.111 -0.0427 -0.7241 -1.1563
 2140TIP3   OH227834   4.598   3.299   6.509 -0.1583  0.2398 -0.5666
 2140TIP3    H127835   4.561   3.216   6.537 -0.0301 -0.1540 -1.5084
 2140TIP3    H227836   4.685   3.302   6.550  0.0181 -0.3079 -0.8889
 2141TIP3   OH227837   3.741   4.583   4.577  0.3427  0.0614 -0.2777
 2141TIP3    H127838   3.751   4.496   4.616 -0.9029 -0.8061 -1.7683
 2141TIP3    H227839   3.828   4.606   4.544  0.5214 -0.9956 -0.5630
 2142TIP3   OH227840   3.438   0.066  12.988 -0.2512 -0.1447 -0.1514
 2142TIP3    H127841   3.451   0.127  13.061 -0.8109 -0.4511  0.2141
 2142TIP3    H227842   3.355   0.092  12.949  0.2264  0.2598 -0.9347
 2143TIP3   OH227843   1.845   2.612  15.818 -0.5634 -0.2074  0.4408
 2143TIP3    H127844   1.862   2.621  15.912  0.9241  4.0249 -0.0318
 2143TIP3    H227845   1.932   2.599  15.779 -0.5325  2.4997 -0.5787
 2144TIP3   OH227846   3.730   5.228   4.777 -0.3770  0.6923  0.1002
 2144TIP3    H127847   3.681   5.306   4.749 -0.8295  0.0600 -0.9430
 2144TIP3    H227848   3.783   5.206   4.700  0.3181  0.4053  0.6561
 2145TIP3   OH227849   3.126   2.496   3.201 -0.5073  0.5150 -0.2433
 2145TIP3    H127850   3.212   2.532   3.182 -0.7290  0.4563 -1.4563
 2145TIP3    H227851   3.065   2.561   3.168 -0.9112 -0.6390 -1.8799
 2146TIP3   OH227852   2.553   3.111  13.289 -0.2066  0.0809 -0.7282
 2146TIP3    H127853   2.517   3.079  13.206  0.2490  2.1170 -1.8022
 2146TIP3    H227854   2.615   3.180  13.263 -0.3946  1.1124  1.3251
 2147TIP3   OH227855   6.226   4.789   4.672  0.4254  0.3130 -0.5232
 2147TIP3    H127856   6.162   4.798   4.742  1.3383 -0.0391  0.3770
 2147TIP3    H227857   6.310   4.811   4.713  0.8315  1.3351 -1.8099
 2148TIP3   OH227858   6.287   1.372   0.308  0.0608 -0.0678 -0.7886
 2148TIP3    H127859   6.207   1.395   0.261 -0.0404 -2.1462 -1.7771
 2148TIP3    H227860   6.354   1.430   0.272 -0.6079  0.3448 -1.3856
 2149TIP3   OH227861   3.898   2.130   4.155  0.8727 -0.3540 -0.5585
 2149TIP3    H127862   3.831   2.109   4.220 -1.0632 -0.1696 -2.4057
 2149TIP3    H227863   3.972   2.163   4.207 -0.4722 -0.4499  1.5368
 2150TIP3   OH227864   0.120   5.092  15.108 -0.3148  0.2549  0.4057
 2150TIP3    H127865   0.145   5.174  15.065 -1.4390  0.4377  0.0711
 2150TIP3    H227866   0.074   5.042  15.040  1.4555 -1.2215  0.2249
 2151TIP3   OH227867   3.611   2.277   1.579  0.1820  0.1681  0.1090
 2151TIP3    H127868   3.535   2.227   1.610 -0.6021 -0.7504 -2.9515
 2151TIP3    H227869   3.578   2.367   1.572 -0.6218 -0.1996 -1.0735
 2152TIP3   OH227870   2.787   1.011  11.126 -0.7972  0.5685 -0.1050
 2152TIP3    H127871   2.870   0.965  11.139 -1.1347 -0.3761 -1.1052
 2152TIP3    H227872   2.806   1.103  11.146 -0.0065  0.0800  1.5849
 2153TIP3   OH227873   0.210   6.706  15.386 -0.1531 -0.1895  0.1443
 2153TIP3    H127874   0.265   6.660  15.322  0.7305 -0.5743  1.1604
 2153TIP3    H227875   0.244   6.679  15.471  0.1686  2.0362  0.8011
 2154TIP3   OH227876   1.831   2.120  12.796  0.1688 -0.7916  0.0217
 2154TIP3    H127877   1.816   2.214  12.787 -2.2528 -1.2667 -1.8427
 2154TIP3    H227878   1.776   2.094  12.869  1.3027 -0.7261  0.9340
 2155TIP3   OH227879   1.979   0.825  14.222 -0.4314  0.1785 -0.4615
 2155TIP3    H127880   2.065   0.840  14.183  0.5653 -1.3573  1.0039
 2155TIP3    H227881   1.933   0.772  14.157 -0.1424  0.6759 -1.0833
 2156TIP3   OH227882   1.399   2.496  17.146 -0.2598  0.1787 -0.2662
 2156TIP3    H127883   1.344   2.571  17.123  0.1988  0.3202 -0.9666
 2156TIP3    H227884   1.417   2.507  17.239  0.0374  1.1102 -0.4140
 2157TIP3   OH227885   1.435   1.453   0.043  0.0480 -0.1852  0.5162
 2157TIP3    H127886   1.423   1.381   0.105  0.4746  0.7740  1.7640
 2157TIP3    H227887   1.493   1.417  -0.024 -0.1828 -1.1648  0.8237
 2158TIP3   OH227888   5.464   4.053  14.776  0.1383  0.3289 -0.4810
 2158TIP3    H127889   5.525   4.122  14.801  2.4362 -0.6664 -2.9466
 2158TIP3    H227890   5.490   3.978  14.831  0.8642  0.0472 -1.1920
 2159TIP3   OH227891   4.339   2.782  14.039 -0.4425 -0.2211 -0.1794
 2159TIP3    H127892   4.279   2.735  14.099 -0.4039 -0.3686 -0.2551
 2159TIP3    H227893   4.420   2.791  14.089 -0.0645 -1.2590 -0.5722
 2160TIP3   OH227894   0.282   5.490   1.825  0.3885 -0.6162 -0.1005
 2160TIP3    H127895   0.332   5.475   1.745  0.7914 -0.0673  0.0367
 2160TIP3    H227896   0.347   5.483   1.895  0.0082 -1.2507  0.1913
 2161TIP3   OH227897   4.287   5.454   2.983  0.1006 -0.6680 -0.3794
 2161TIP3    H127898   4.351   5.440   3.053  0.1328 -0.5766 -0.3900
 2161TIP3    H227899   4.203   5.429   3.022  0.2729 -1.7831 -0.6924
 2162TIP3   OH227900   1.611   4.553  11.036 -0.0771 -0.5476  0.2169
 2162TIP3    H127901   1.545   4.509  10.982  3.0862 -1.9312 -2.8954
 2162TIP3    H227902   1.607   4.645  11.008 -1.9299 -0.1409  1.5903
 2163TIP3   OH227903   0.159   6.150   5.079 -0.1832 -0.2056  0.3186
 2163TIP3    H127904   0.087   6.185   5.131 -0.2114 -0.6201  0.5559
 2163TIP3    H227905   0.164   6.058   5.103  0.4609 -0.1679  0.3481
 2164TIP3   OH227906   3.203   4.579   6.862 -0.2056 -0.3267 -0.1273
 2164TIP3    H127907   3.268   4.644   6.834  1.4586 -1.9628 -0.2981
 2164TIP3    H227908   3.147   4.567   6.786  1.7511 -1.7167 -1.4600
 2165TIP3   OH227909   1.912   2.051  15.761 -0.5427 -0.3073  0.3685
 2165TIP3    H127910   1.871   2.090  15.838  1.3269 -0.4943  1.5228
 2165TIP3    H227911   1.931   1.961  15.787 -0.7757 -0.6816 -0.6901
 2166TIP3   OH227912   3.098   3.596   2.971 -0.1086 -0.4491 -0.0903
 2166TIP3    H127913   3.153   3.529   2.928 -0.4722 -1.0140  0.3139
 2166TIP3    H227914   3.161   3.661   3.002  0.2338 -0.4692 -0.7074
 2167TIP3   OH227915   2.588   0.160   6.139  0.2947 -1.1284 -0.0265
 2167TIP3    H127916   2.617   0.213   6.064  2.3994 -0.5089  1.1403
 2167TIP3    H227917   2.649   0.182   6.209 -1.2534 -2.1237  1.7349
 2168TIP3   OH227918   6.182   1.145  12.560  0.0073  0.8539 -0.6455
 2168TIP3    H127919   6.190   1.070  12.618 -1.0813  0.0106 -1.5276
 2168TIP3    H227920   6.143   1.214  12.614  1.1011  0.8305  0.1919
 2169TIP3   OH227921   2.925   0.843   2.879  0.1770 -0.3363  0.5205
 2169TIP3    H127922   2.846   0.793   2.862 -0.0916  0.4050 -0.4977
 2169TIP3    H227923   2.931   0.905   2.805  0.9938  0.4945  1.2561
 2170TIP3   OH227924   0.991   4.747   5.784 -0.6180 -0.4561  0.0670
 2170TIP3    H127925   1.063   4.791   5.830 -0.5737 -0.9118  0.4474
 2170TIP3    H227926   0.914   4.766   5.838 -0.3626 -2.0653  1.1013
 2171TIP3   OH227927   6.506   5.761   3.357 -0.2523 -0.3661 -0.0508
 2171TIP3    H127928   6.602   5.764   3.363 -0.0477 -0.2842 -2.3805
 2171TIP3    H227929   6.476   5.819   3.427  1.2965 -1.7853  1.9068
 2172TIP3   OH227930   0.106   3.370  14.783  0.2054 -0.0844 -0.0957
 2172TIP3    H127931   0.027   3.329  14.817  0.0543 -1.2274 -1.6979
 2172TIP3    H227932   0.088   3.463  14.784 -0.3713 -0.1830  1.4140
 2173TIP3   OH227933   6.132   1.424   1.600 -0.1875  0.3474  0.2222
 2173TIP3    H127934   6.222   1.394   1.615 -0.9183 -1.6778  0.9870
 2173TIP3    H227935   6.087   1.409   1.684 -1.4095  0.5952 -0.3595
 2174TIP3   OH227936   1.970   3.181   4.767 -0.2469 -0.2344  0.3308
 2174TIP3    H127937   1.912   3.106   4.772 -0.6768  0.1125  0.7101
 2174TIP3    H227938   1.914   3.253   4.739 -0.0711  0.1751  1.0079
 2175TIP3   OH227939   3.398   3.213  15.642  0.0938  0.2035 -0.4491
 2175TIP3    H127940   3.458   3.248  15.708  0.7172  1.1817 -1.5045
 2175TIP3    H227941   3.316   3.198  15.690  0.3778  1.3862  0.4472
 2176TIP3   OH227942   4.092   3.331  16.616  0.1438  0.0956 -0.2794
 2176TIP3    H127943   4.163   3.376  16.570  0.3527 -1.2473 -1.3409
 2176TIP3    H227944   4.124   3.241  16.627 -0.6107 -0.0351  0.9991
 2177TIP3   OH227945   4.320   3.611  12.450 -0.5578 -0.5005  0.3165
 2177TIP3    H127946   4.396   3.651  12.493 -1.0058 -0.4350  1.0574
 2177TIP3    H227947   4.358   3.549  12.387  0.1617  1.3298 -1.1271
 2178TIP3   OH227948   4.682   1.734   1.365  0.1702  0.5546 -0.2181
 2178TIP3    H127949   4.592   1.702   1.353  0.6012 -1.0423  0.5954
 2178TIP3    H227950   4.672   1.817   1.411 -0.9684  1.5165 -2.0736
 2179TIP3   OH227951   4.212   4.424  14.678  0.9421 -0.4805  0.6179
 2179TIP3    H127952   4.230   4.511  14.644  0.5724 -0.2857  0.9171
 2179TIP3    H227953   4.235   4.428  14.771 -1.3939  0.0426  1.2462
 2180TIP3   OH227954   2.450   5.882  16.960 -0.4071  0.0547  0.3190
 2180TIP3    H127955   2.508   5.946  17.002  1.4067 -1.7346  0.6968
 2180TIP3    H227956   2.471   5.888  16.867 -0.3794  0.1532  0.3321
 2181TIP3   OH227957   4.146   1.708  16.420 -0.2881  0.1825  0.1518
 2181TIP3    H127958   4.116   1.799  16.415  0.6393  0.5558  0.9587
 2181TIP3    H227959   4.241   1.715  16.428 -0.1656 -0.8844 -0.2048
 2182TIP3   OH227960   5.113   6.011   4.743  0.2114  0.5229 -0.1167
 2182TIP3    H127961   5.148   6.049   4.824  0.0453  0.2741  0.0750
 2182TIP3    H227962   5.018   6.023   4.751  0.2541  1.3646 -0.7171
 2183TIP3   OH227963   1.982   6.680  16.383  0.0134 -0.0987  0.5764
 2183TIP3    H127964   1.961   6.759  16.333  1.1573  1.2245  2.0826
 2183TIP3    H227965   2.050   6.637  16.331 -1.3508 -0.6859 -0.7807
 2184TIP3   OH227966   2.433   2.625   2.796  0.9992  0.5824  0.4787
 2184TIP3    H127967   2.412   2.575   2.875 -0.7126  1.0779  0.3613
 2184TIP3    H227968   2.463   2.710   2.829  1.4411  0.3794  0.6109
 2185TIP3   OH227969   4.045   3.128   1.698  0.1238  0.2691 -0.0043
 2185TIP3    H127970   3.949   3.133   1.705  0.0063 -1.2195 -0.2560
 2185TIP3    H227971   4.061   3.086   1.613  1.0108  0.3750  0.0989
 2186TIP3   OH227972   3.537   0.404   4.171 -0.2987  0.2521  0.1469
 2186TIP3    H127973   3.630   0.394   4.188 -0.3897  0.0348  0.5409
 2186TIP3    H227974   3.501   0.315   4.177 -0.2994  0.1215 -1.5031
 2187TIP3   OH227975   6.412   3.317  13.012  0.1904 -0.4688  0.1845
 2187TIP3    H127976   6.378   3.288  13.096 -0.2462  0.9002  0.5053
 2187TIP3    H227977   6.504   3.335  13.028 -0.3898  2.1688  1.0800
 2188TIP3   OH227978   3.892   0.390  16.277  0.3008 -0.0520 -0.3770
 2188TIP3    H127979   3.959   0.439  16.325 -0.3224 -1.3201  1.9532
 2188TIP3    H227980   3.940   0.348  16.206  2.0781 -0.9936  1.2802
 2189TIP3   OH227981   2.956   6.152  16.005 -0.1712 -0.0370 -0.1329
 2189TIP3    H127982   3.018   6.144  16.077  0.3044  1.4543 -0.3380
 2189TIP3    H227983   3.002   6.206  15.940 -0.2581 -1.9980 -1.9442
 2190TIP3   OH227984   0.539   3.150  15.047  0.0618  0.4338 -0.1979
 2190TIP3    H127985   0.560   3.155  15.140  0.2828  1.0386 -0.2751
 2190TIP3    H227986   0.588   3.222  15.008  0.6222 -0.3053 -0.9081
 2191TIP3   OH227987   5.719   0.478  17.324  0.0088 -0.4724  0.3918
 2191TIP3    H127988   5.663   0.437  17.389 -0.2576 -1.0970 -0.2117
 2191TIP3    H227989   5.750   0.558  17.365 -2.5557  0.7041  0.1916
 2192TIP3   OH227990   3.095   0.344  12.264 -0.1524 -0.1848  0.3863
 2192TIP3    H127991   3.134   0.327  12.350 -1.2715 -3.0706  0.4416
 2192TIP3    H227992   3.169   0.369  12.209  0.9612 -0.5437  1.6498
 2193TIP3   OH227993   1.791   1.750  13.640 -0.2669 -0.5968 -0.3285
 2193TIP3    H127994   1.739   1.830  13.629 -1.1292 -1.2292 -0.9778
 2193TIP3    H227995   1.881   1.780  13.636 -0.4372  0.8978  3.2946
 2194TIP3   OH227996   3.482   0.074   4.498  0.0228  0.3986  0.0384
 2194TIP3    H127997   3.472   0.053   4.591  2.9189  2.6743  1.0249
 2194TIP3    H227998   3.468   0.169   4.493  0.4772  0.4064 -1.7157
 2195TIP3   OH227999   5.864   3.135  17.610  0.2151  0.0351  0.0249
 2195TIP3    H128000   5.837   3.130  17.518  0.1881 -0.9164  0.0685
 2195TIP3    H228001   5.950   3.178  17.607 -0.2135  0.8828 -0.3443
 2196TIP3   OH228002   6.557   5.766  14.716 -0.2271  0.0695  0.1886
 2196TIP3    H128003   6.534   5.815  14.637 -1.3793  1.9627  1.6186
 2196TIP3    H228004   6.632   5.713  14.690 -1.1916 -0.1643 -2.4479
 2197TIP3   OH228005   3.136   5.650   3.565  0.3580  0.2907  0.4007
 2197TIP3    H128006   3.128   5.678   3.473  1.2287 -0.5505  0.0541
 2197TIP3    H228007   3.053   5.607   3.584  0.1964  0.4131 -0.0061
 2198TIP3   OH228008   2.326   5.916   3.701 -0.5381  0.2712  0.7716
 2198TIP3    H128009   2.361   5.980   3.764  1.7560  1.1837 -1.2592
 2198TIP3    H228010   2.356   5.831   3.734 -0.0268  0.6498  1.3103
 2199TIP3   OH228011   6.148   6.038   1.818 -0.9224 -0.2217 -0.1452
 2199TIP3    H128012   6.108   5.962   1.860  0.6944 -1.2205 -0.3224
 2199TIP3    H228013   6.133   6.110   1.880 -3.5159 -0.3440 -0.5181
 2200TIP3   OH228014   2.413   1.175  12.763 -0.2213 -0.3090  0.3108
 2200TIP3    H128015   2.360   1.254  12.771  2.0837  1.5488 -1.0042
 2200TIP3    H228016   2.486   1.189  12.824 -0.1133 -1.7540  0.5456
 2201TIP3   OH228017   4.458   3.887   0.537  0.3712 -0.0272  0.1298
 2201TIP3    H128018   4.506   3.817   0.492  0.7178  1.1341 -1.3759
 2201TIP3    H228019   4.366   3.865   0.523  0.4765 -0.0947 -0.5001
 2202TIP3   OH228020   5.929   5.862  14.136 -0.4776  0.2603  0.5890
 2202TIP3    H128021   5.962   5.776  14.109  0.6996  0.2252  2.0219
 2202TIP3    H228022   5.952   5.919  14.063 -0.1179 -0.4027  0.1602
 2203TIP3   OH228023   1.051   2.588   4.092  0.3014  0.2782  0.7810
 2203TIP3    H128024   0.980   2.634   4.048 -0.2493  0.3016  1.6623
 2203TIP3    H228025   1.018   2.499   4.104 -0.1637  0.6375  2.4174
 2204TIP3   OH228026   2.276   4.894   4.004  0.1288  0.0989  0.0634
 2204TIP3    H128027   2.251   4.952   4.075  1.0522  0.0484  0.4352
 2204TIP3    H228028   2.365   4.920   3.981  0.1914 -0.5157 -0.4266
 2205TIP3   OH228029   5.059   2.167   4.201 -0.7007 -0.5081 -0.2757
 2205TIP3    H128030   5.116   2.090   4.199 -1.4196 -1.0395 -1.0506
 2205TIP3    H228031   4.996   2.152   4.131 -0.8274  0.8226 -0.4846
 2206TIP3   OH228032   2.949   6.268   3.255 -0.1573 -0.4590  0.3314
 2206TIP3    H128033   2.970   6.205   3.324  0.6387  0.4204  0.9269
 2206TIP3    H228034   2.857   6.290   3.270 -0.2238 -0.9036  0.5949
 2207TIP3   OH228035   2.776   3.552  15.203  0.0503 -0.2537  0.1577
 2207TIP3    H128036   2.695   3.511  15.172 -0.7500  0.1345  1.6430
 2207TIP3    H228037   2.756   3.645  15.207  0.1873 -0.2587  1.5545
 2208TIP3   OH228038   1.232   1.574   6.008  0.1742 -0.2842 -0.5166
 2208TIP3    H128039   1.288   1.497   5.992 -1.2909 -1.4099 -0.4088
 2208TIP3    H228040   1.263   1.609   6.091  0.6671 -0.9307 -0.4172
 2209TIP3   OH228041   0.955   4.344   1.258  0.7872 -0.4739  1.1154
 2209TIP3    H128042   0.936   4.264   1.307  1.1652 -0.4257  1.3417
 2209TIP3    H228043   0.952   4.317   1.166  1.0646 -0.7808  1.1966
 2210TIP3   OH228044   4.668   5.809  15.218 -0.3550  0.2192  0.0070
 2210TIP3    H128045   4.612   5.776  15.288 -0.0572  1.3929  0.8379
 2210TIP3    H228046   4.638   5.899  15.203  1.0606  0.7728  0.2583
 2211TIP3   OH228047   4.341   6.333   5.566  0.0001  0.3863  0.0404
 2211TIP3    H128048   4.296   6.414   5.542  0.7154  0.8233  0.1709
 2211TIP3    H228049   4.432   6.348   5.543  0.2118 -0.2262  0.4576
 2212TIP3   OH228050   6.630   1.251  16.215 -0.1359  0.0892 -0.4550
 2212TIP3    H128051   6.571   1.224  16.285 -1.4809  2.6239 -0.5149
 2212TIP3    H228052   6.578   1.245  16.135  1.4271 -2.9211 -1.4149
 2213TIP3   OH228053   2.038   5.012  16.662 -0.1958  0.2409  0.1311
 2213TIP3    H128054   1.986   4.937  16.689  0.4267  0.1383  1.0776
 2213TIP3    H228055   2.036   5.010  16.566 -1.7118  0.0968  0.1440
 2214TIP3   OH228056   1.943   0.512   5.899 -0.1036 -0.3550 -0.4354
 2214TIP3    H128057   1.962   0.531   5.990  0.1559 -0.3275 -0.4949
 2214TIP3    H228058   2.019   0.545   5.851 -0.0006 -0.8407 -0.6099
 2215TIP3   OH228059   5.637   5.767  16.790  0.2872  0.2245 -1.0287
 2215TIP3    H128060   5.724   5.729  16.778  0.4718  0.9317 -2.0520
 2215TIP3    H228061   5.588   5.741  16.712  0.4283  2.0587 -1.7809
 2216TIP3   OH228062   3.545   0.981   2.773 -0.7115 -0.3702 -0.4039
 2216TIP3    H128063   3.592   0.931   2.840 -0.2272  1.3416  0.6114
 2216TIP3    H228064   3.538   0.922   2.699 -1.0841 -2.2783  1.0699
 2217TIP3   OH228065   5.808   5.784  13.227  0.3754 -0.4666 -0.0123
 2217TIP3    H128066   5.743   5.762  13.294  1.0151 -0.3019  0.6873
 2217TIP3    H228067   5.757   5.811  13.151 -0.3668 -0.0817  0.6070
 2218TIP3   OH228068   3.514   5.582   2.667 -0.1317 -0.3587 -0.0634
 2218TIP3    H128069   3.506   5.666   2.712  1.1694 -0.1841 -0.0963
 2218TIP3    H228070   3.584   5.537   2.714  0.3189 -0.7340 -1.0692
 2219TIP3   OH228071   5.810   1.019   3.491 -0.3448 -0.2592  0.0534
 2219TIP3    H128072   5.826   1.044   3.582 -0.9327  0.0246  0.0812
 2219TIP3    H228073   5.885   0.964   3.468  0.0682  0.0896  0.5436
 2220TIP3   OH228074   3.497   0.797   5.508  0.4407  0.0963 -0.1217
 2220TIP3    H128075   3.585   0.768   5.481  0.4378  0.3719 -0.4317
 2220TIP3    H228076   3.486   0.881   5.464 -0.0759 -0.0524 -0.2767
 2221TIP3   OH228077   3.218   2.459  14.821 -0.3921 -0.2918  0.2138
 2221TIP3    H128078   3.248   2.550  14.831  0.4371 -0.2945 -1.7581
 2221TIP3    H228079   3.231   2.420  14.907  0.0579  1.2243  0.8781
 2222TIP3   OH228080   3.736   6.209  16.629 -0.3233 -0.1055 -0.5422
 2222TIP3    H128081   3.802   6.224  16.562 -0.5906  1.4120 -0.5006
 2222TIP3    H228082   3.653   6.219  16.584 -0.5322 -0.8543 -0.3448
 2223TIP3   OH228083   4.889   4.170  12.242  0.0954  0.2681 -0.7324
 2223TIP3    H128084   4.934   4.218  12.312 -0.5546  1.6934 -1.2344
 2223TIP3    H228085   4.959   4.134  12.188  0.6197  0.5269 -0.2360
 2224TIP3   OH228086   1.306   6.414  12.452 -1.1260 -0.1117  0.1994
 2224TIP3    H128087   1.360   6.336  12.465 -0.1594  0.2822 -1.2274
 2224TIP3    H228088   1.330   6.472  12.525 -1.6573 -0.9992  1.1163
 2225TIP3   OH228089   4.015   1.350   6.364 -0.4300 -0.1968 -0.6810
 2225TIP3    H128090   4.029   1.259   6.390 -0.4523  0.1904  0.7278
 2225TIP3    H228091   3.933   1.375   6.405  0.1183  0.7945 -0.1522
 2226TIP3   OH228092   3.247   2.684   1.365 -0.2875 -0.0369  0.9370
 2226TIP3    H128093   3.210   2.763   1.326 -0.3129  0.4244  1.8658
 2226TIP3    H228094   3.178   2.653   1.425 -0.3352 -0.8445  0.4770
 2227TIP3   OH228095   1.207   0.068  15.071 -0.2084 -0.4837  0.1395
 2227TIP3    H128096   1.155   0.134  15.118  1.2331  0.4139  0.5400
 2227TIP3    H228097   1.286   0.115  15.044 -0.9687 -0.9257 -3.2961
 2228TIP3   OH228098   4.246   0.324  15.753 -0.1138  0.5575 -0.4187
 2228TIP3    H128099   4.160   0.366  15.756 -1.0268 -1.0172 -2.3721
 2228TIP3    H228100   4.238   0.249  15.811  0.8119  1.7158  1.3252
 2229TIP3   OH228101   4.241   5.677  12.964  0.2971 -0.0276  0.4704
 2229TIP3    H128102   4.208   5.687  13.053 -2.5339 -0.6859 -0.4167
 2229TIP3    H228103   4.261   5.584  12.956  0.2166 -0.0315  0.3180
 2230TIP3   OH228104   4.658   0.949  15.023 -0.2309  0.0474  1.0161
 2230TIP3    H128105   4.657   1.040  14.993 -1.2807 -0.1345  0.4569
 2230TIP3    H228106   4.748   0.936  15.054  0.1051  1.0957  0.5616
 2231TIP3   OH228107   3.022   5.808   5.773  0.9138  0.0892 -0.1586
 2231TIP3    H128108   3.116   5.793   5.760  0.7974 -0.0221 -0.9481
 2231TIP3    H228109   3.018   5.872   5.844  1.5823 -0.0377  0.0060
 2232TIP3   OH228110   1.284   4.613   4.321 -0.4561 -0.1572 -0.0928
 2232TIP3    H128111   1.363   4.611   4.376  1.0853  0.4675 -2.1792
 2232TIP3    H228112   1.256   4.522   4.316  0.8282 -0.5665 -0.2546
 2233TIP3   OH228113   1.560   3.538  14.911  0.6680  0.4951 -0.0096
 2233TIP3    H128114   1.474   3.537  14.868  0.5742  0.9742  0.1570
 2233TIP3    H228115   1.546   3.492  14.994  0.9171 -0.6846 -0.5978
 2234TIP3   OH228116   2.659   3.006   3.126 -0.4879 -0.4000  0.2496
 2234TIP3    H128117   2.730   3.071   3.132 -1.9217  1.3026 -0.3718
 2234TIP3    H228118   2.632   2.992   3.217 -0.2632 -0.0202  0.3772
 2235TIP3   OH228119   0.039   0.294  15.590 -0.0256  0.4757  0.5566
 2235TIP3    H128120  -0.056   0.288  15.601  0.1533 -2.1017  1.4796
 2235TIP3    H228121   0.074   0.252  15.668  1.7456 -2.4261 -1.6166
 2236TIP3   OH228122   0.372   0.640  12.388  0.6045  0.4589  0.2086
 2236TIP3    H128123   0.433   0.586  12.338  1.8940 -0.3067  2.4675
 2236TIP3    H228124   0.348   0.585  12.463 -0.9963  1.6643  0.6177
 2237TIP3   OH228125   3.503   2.725   0.923  0.2227 -0.5509  0.0076
 2237TIP3    H128126   3.532   2.643   0.964  2.8663  0.2834 -0.0019
 2237TIP3    H228127   3.577   2.752   0.869 -1.5058  0.6385 -1.9279
 2238TIP3   OH228128   1.428   0.095   2.412  0.8326 -0.2066  0.0279
 2238TIP3    H128129   1.512   0.065   2.377  1.3317  2.3214 -1.1910
 2238TIP3    H228130   1.368   0.093   2.338  0.2559 -0.3688  0.4845
 2239TIP3   OH228131   5.746   3.324  14.287 -0.1426  0.0452 -0.0119
 2239TIP3    H128132   5.762   3.238  14.325 -0.7740 -0.3642 -0.6497
 2239TIP3    H228133   5.693   3.370  14.353 -0.9223 -0.5304 -0.2126
 2240TIP3   OH228134   0.256   4.350  13.664  0.0414 -0.5878  0.0853
 2240TIP3    H128135   0.184   4.319  13.608 -1.3452  0.0801  1.4325
 2240TIP3    H228136   0.275   4.275  13.721 -1.0478 -0.1119  1.1187
 2241TIP3   OH228137   0.032   3.029  12.092 -0.6297  0.3650  0.6989
 2241TIP3    H128138   0.056   3.122  12.097 -0.1053  0.3461 -0.8910
 2241TIP3    H228139   0.115   2.982  12.101 -0.9286  0.0186  1.8015
 2242TIP3   OH228140   0.330   4.083  16.822  0.2038  0.3323 -0.4081
 2242TIP3    H128141   0.246   4.037  16.828  0.8303 -0.7922  0.0393
 2242TIP3    H228142   0.379   4.054  16.899  1.8288 -0.7450 -1.7663
 2243TIP3   OH228143   2.860   1.730   1.349  0.1317 -0.0581  0.0535
 2243TIP3    H128144   2.884   1.646   1.310  1.6441  0.1144  0.5463
 2243TIP3    H228145   2.793   1.765   1.290  0.0276 -1.2581 -0.5789
 2244TIP3   OH228146   0.984   4.044  11.326  0.1517  0.1436  0.4037
 2244TIP3    H128147   1.038   4.079  11.255 -0.3333  1.6998  0.7513
 2244TIP3    H228148   0.917   3.992  11.281  2.1357 -2.2682 -0.0023
 2245TIP3   OH228149   3.287   0.261   5.536 -0.5244  0.2785 -0.0898
 2245TIP3    H128150   3.328   0.344   5.562 -1.1360  0.3701  0.6209
 2245TIP3    H228151   3.278   0.213   5.619 -1.3568  0.0395 -0.3173
 2246TIP3   OH228152   5.950   4.305  15.293  0.3997  0.1970 -0.3340
 2246TIP3    H128153   5.940   4.375  15.358  1.4079  0.4062 -0.3868
 2246TIP3    H228154   6.010   4.341  15.228 -1.2871  0.3153 -1.8682
 2247TIP3   OH228155   2.503   3.617   5.118  0.0291 -0.0025  0.2522
 2247TIP3    H128156   2.433   3.676   5.145 -1.4365 -2.0294  1.0469
 2247TIP3    H228157   2.467   3.569   5.044  0.4631 -1.2584  0.8362
 2248TIP3   OH228158   1.109   0.207  11.130  0.5111  0.0277  0.3008
 2248TIP3    H128159   1.185   0.262  11.147  1.4501 -1.3332  0.6156
 2248TIP3    H228160   1.071   0.243  11.050  2.0860  0.1067 -0.4480
 2249TIP3   OH228161   1.608   6.392   1.714 -0.4199 -0.5522 -0.0675
 2249TIP3    H128162   1.515   6.370   1.711 -0.9108  1.5526 -2.1525
 2249TIP3    H228163   1.615   6.455   1.786 -0.8030  0.0755 -0.5727
 2250TIP3   OH228164   3.379   1.056   1.864 -0.2149 -0.3473 -0.3045
 2250TIP3    H128165   3.455   0.999   1.877 -0.5133 -0.8825 -0.8727
 2250TIP3    H228166   3.310   1.018   1.917 -0.0480  0.2330  0.3395
 2251TIP3   OH228167   4.521   4.098   4.602  0.1659 -0.9233 -0.1947
 2251TIP3    H128168   4.458   4.110   4.673 -0.2858 -0.2334 -0.7062
 2251TIP3    H228169   4.478   4.133   4.524  0.2058 -2.6511 -1.0493
 2252TIP3   OH228170   5.315   1.296   0.128  0.4034  0.2722 -0.0120
 2252TIP3    H128171   5.271   1.353   0.191 -1.3731  1.4573 -2.1850
 2252TIP3    H228172   5.364   1.355   0.071  1.1562 -0.6785 -0.3874
 2253TIP3   OH228173   5.382   0.303  16.138 -0.7153 -0.6148  0.5819
 2253TIP3    H128174   5.344   0.219  16.164 -1.6206 -0.4066 -0.0267
 2253TIP3    H228175   5.340   0.367  16.196 -0.8748 -0.4475  0.2812
 2254TIP3   OH228176   1.370   5.697   4.534 -0.0650  0.0352 -0.8249
 2254TIP3    H128177   1.387   5.662   4.447  0.0085 -1.2985 -0.2993
 2254TIP3    H228178   1.281   5.733   4.528 -0.6410 -1.3568 -1.0786
 2255TIP3   OH228179   1.514   3.179   0.935  0.2600 -0.2799  0.4346
 2255TIP3    H128180   1.600   3.194   0.973  1.0169 -0.4507 -1.1306
 2255TIP3    H228181   1.531   3.129   0.855 -1.4339 -1.6602  0.8746
 2256TIP3   OH228182   6.299   5.872   1.672  0.3235  0.8196 -0.1561
 2256TIP3    H128183   6.242   5.909   1.740  0.2421  0.4360 -0.0168
 2256TIP3    H228184   6.325   5.948   1.620 -1.2317  0.8541 -0.9189
 2257TIP3   OH228185   1.386   4.829  15.405  0.1142  0.6127 -0.2956
 2257TIP3    H128186   1.351   4.917  15.394 -0.4808  0.5576  0.9349
 2257TIP3    H228187   1.459   4.840  15.466 -0.8977  0.0796  1.0472
 2258TIP3   OH228188   2.628   5.535  15.288  0.0842 -0.5716 -0.4861
 2258TIP3    H128189   2.645   5.446  15.317  0.8749 -0.4071 -0.4340
 2258TIP3    H228190   2.697   5.554  15.224  0.4290  0.2810  0.1117
 2259TIP3   OH228191   2.846   2.993  11.581  0.6927  0.3215  0.0249
 2259TIP3    H128192   2.813   2.938  11.652 -0.1716  0.0878 -0.5340
 2259TIP3    H228193   2.813   2.952  11.501  1.0209  0.9916 -0.4705
 2260TIP3   OH228194   3.349   3.510   4.894  0.4916  0.2466  0.1685
 2260TIP3    H128195   3.366   3.565   4.817  1.4443 -2.1931 -1.5000
 2260TIP3    H228196   3.435   3.491   4.930  0.1594  0.1328  0.9184
 2261TIP3   OH228197   2.934   1.364   0.995 -0.0096 -0.1132 -0.1210
 2261TIP3    H128198   2.871   1.430   0.966  0.3204  0.1442 -0.2472
 2261TIP3    H228199   2.973   1.330   0.915  1.3826  1.0670  0.0044
 2262TIP3   OH228200   0.372   0.707  11.088  0.0646 -0.5946 -0.6673
 2262TIP3    H128201   0.283   0.743  11.090  0.2577 -0.0410 -1.3674
 2262TIP3    H228202   0.359   0.613  11.080 -0.4516 -0.6665  0.7039
 2263TIP3   OH228203   4.143   5.171   5.302  0.0648  0.6387  0.2313
 2263TIP3    H128204   4.142   5.075   5.302 -1.6879  0.5988 -0.6954
 2263TIP3    H228205   4.158   5.195   5.211  1.9310  1.3068  0.6763
 2264TIP3   OH228206   3.344   6.058  13.340  0.6310  0.1382  0.7150
 2264TIP3    H128207   3.377   6.076  13.428 -1.1220  0.9482  1.2416
 2264TIP3    H228208   3.360   5.964  13.327  0.4956 -0.0874  2.0813
 2265TIP3   OH228209   5.551   2.643  12.245  0.0184 -0.3797 -0.8809
 2265TIP3    H128210   5.552   2.566  12.189 -1.6997 -1.0358 -0.0725
 2265TIP3    H228211   5.465   2.642  12.287  0.5806  1.0546  0.4295
 2266TIP3   OH228212   4.512   1.129  12.860  0.7564 -0.8142 -0.4861
 2266TIP3    H128213   4.429   1.161  12.895  0.9360 -0.6668 -0.1957
 2266TIP3    H228214   4.491   1.043  12.823  0.2667 -0.3580 -1.3013
 2267TIP3   OH228215   3.413   3.675   4.678 -0.0195 -0.1779 -0.0684
 2267TIP3    H128216   3.467   3.704   4.605  1.8111 -1.4395  0.7153
 2267TIP3    H228217   3.420   3.745   4.743 -2.3546  1.3627 -1.3250
 2268TIP3   OH228218   3.884   0.360  15.544 -0.1661  0.8962 -0.2297
 2268TIP3    H128219   3.887   0.292  15.476  1.0255  1.2990 -0.6125
 2268TIP3    H228220   3.930   0.321  15.618 -1.0994  0.6154  0.2147
 2269TIP3   OH228221   1.189   5.656  13.680  0.3401 -0.6903 -0.4670
 2269TIP3    H128222   1.264   5.617  13.636  0.9971  1.9995 -1.9401
 2269TIP3    H228223   1.223   5.736  13.719 -1.4510 -0.1970  0.1628
 2270TIP3   OH228224   3.888   3.975  16.826 -0.2790  0.1443  0.2695
 2270TIP3    H128225   3.925   4.053  16.866  1.7057  0.3686 -1.8086
 2270TIP3    H228226   3.911   3.904  16.887  2.6051  0.4660 -0.3299
 2271TIP3   OH228227   3.835   1.892   2.557  0.2687 -0.0063  0.5645
 2271TIP3    H128228   3.831   1.857   2.646 -0.0604 -1.3622  0.0434
 2271TIP3    H228229   3.796   1.979   2.564  2.6694  1.0424  2.2425
 2272TIP3   OH228230   3.637   5.886  12.220  0.0924  0.3096 -0.0700
 2272TIP3    H128231   3.589   5.807  12.242 -0.5971  1.1080  1.4723
 2272TIP3    H228232   3.728   5.867  12.245 -0.2715  0.3715  1.3909
 2273TIP3   OH228233   2.740   2.311  11.681  0.0860 -0.0502  0.3292
 2273TIP3    H128234   2.812   2.317  11.618 -0.5305  2.0289 -0.2353
 2273TIP3    H228235   2.734   2.398  11.719 -0.3362 -0.9322  2.4552
 2274TIP3   OH228236   0.785   5.177   1.911 -0.3357  0.1338 -0.3672
 2274TIP3    H128237   0.723   5.119   1.954 -0.3826  1.2584  1.1849
 2274TIP3    H228238   0.854   5.192   1.977 -0.3149  1.7635 -0.7111
 2275TIP3   OH228239   1.921   3.916   1.794 -0.0829 -0.4759  0.6405
 2275TIP3    H128240   1.875   3.999   1.811  0.8788  0.1282  0.3621
 2275TIP3    H228241   1.932   3.914   1.699  0.8086 -0.4136  0.7363
 2276TIP3   OH228242   2.324   2.420   5.609  0.4345  0.3054 -0.0629
 2276TIP3    H128243   2.358   2.497   5.565  1.4827 -0.5594 -0.8155
 2276TIP3    H228244   2.237   2.408   5.573  0.7692  0.3843 -0.9285
 2277TIP3   OH228245   4.470   5.550  11.877  0.7013 -0.1756  0.1459
 2277TIP3    H128246   4.501   5.518  11.792 -1.6288 -0.7303 -0.5808
 2277TIP3    H228247   4.440   5.639  11.860 -1.2511 -0.8162 -0.0799
 2278TIP3   OH228248   4.683   2.501   1.483  0.1106  0.0149  0.2406
 2278TIP3    H128249   4.772   2.511   1.449  0.5782 -0.5506  1.2579
 2278TIP3    H228250   4.670   2.578   1.538  0.0272  0.0198  0.2130
 2279TIP3   OH228251   3.867   1.019   3.304  0.2319 -0.1831 -0.2972
 2279TIP3    H128252   3.858   1.023   3.400 -2.9122 -0.7548 -0.4733
 2279TIP3    H228253   3.796   0.961   3.276  1.2790 -0.2731 -2.9857
 2280TIP3   OH228254   5.573   5.236   4.740  0.8412  0.1385  0.1401
 2280TIP3    H128255   5.537   5.148   4.738  1.9682 -0.3396 -1.2910
 2280TIP3    H228256   5.515   5.285   4.798 -1.3139 -0.8941 -1.0329
 2281TIP3   OH228257   5.488   4.409  14.344 -0.1416 -0.5831 -0.5449
 2281TIP3    H128258   5.462   4.456  14.265 -1.8394  1.7275  1.2595
 2281TIP3    H228259   5.570   4.452  14.371 -0.9384  0.4383  0.3225
 2282TIP3   OH228260   2.295   1.740   3.556 -0.6456  0.3722  0.7066
 2282TIP3    H128261   2.379   1.751   3.513 -1.1482 -0.3649 -0.5048
 2282TIP3    H228262   2.315   1.690   3.635  0.0113 -0.0450  0.2776
 2283TIP3   OH228263   2.269   2.095   4.418 -0.5038 -0.5481 -0.8494
 2283TIP3    H128264   2.336   2.153   4.380 -0.0992  0.4540  1.2358
 2283TIP3    H228265   2.186   2.131   4.387 -0.2406  1.0041  0.1544
 2284TIP3   OH228266   0.900   1.850  12.063  0.0240  0.3142  0.4650
 2284TIP3    H128267   0.941   1.785  12.006  0.3361  0.5849  0.3816
 2284TIP3    H228268   0.920   1.934  12.023 -0.3784  0.4635  0.5756
 2285TIP3   OH228269   1.442   1.312   5.983 -0.8933 -0.4503 -0.5987
 2285TIP3    H128270   1.419   1.242   6.043 -0.8807 -1.3900 -1.6472
 2285TIP3    H228271   1.478   1.267   5.906  1.8835  0.8255 -0.1688
 2286TIP3   OH228272   2.735   4.042   2.340 -0.2089  0.1853 -0.5957
 2286TIP3    H128273   2.823   4.006   2.329  0.4484  1.3236  0.5322
 2286TIP3    H228274   2.680   3.967   2.361  0.9393 -0.3072  0.8480
 2287TIP3   OH228275   5.940   3.731   5.565 -0.1478  0.4783  0.0637
 2287TIP3    H128276   5.954   3.826   5.562  0.5936  0.3406 -1.6097
 2287TIP3    H228277   5.971   3.706   5.652 -0.5279  1.7858  0.6049
 2288TIP3   OH228278   4.395   4.068  14.981 -0.2313  0.1177  0.3399
 2288TIP3    H128279   4.323   4.129  14.966 -0.0925  0.3563  0.6395
 2288TIP3    H228280   4.431   4.093  15.066  0.0038 -0.2029  0.3374
 2289TIP3   OH228281   4.019   4.148   0.395 -1.0056  0.0613 -0.1747
 2289TIP3    H128282   3.982   4.228   0.433 -0.1293  0.2464  0.3154
 2289TIP3    H228283   4.018   4.164   0.301 -0.4485  0.8354 -0.0595
 2290TIP3   OH228284   4.370   5.615   0.834 -0.4038  0.2151 -0.2606
 2290TIP3    H128285   4.332   5.548   0.777  0.3159  0.9114 -1.6012
 2290TIP3    H228286   4.383   5.690   0.777  1.1772  0.6340  0.6029
 2291TIP3   OH228287   0.626   5.428   1.899 -0.0063 -0.8066 -0.1704
 2291TIP3    H128288   0.640   5.509   1.851 -1.1087  0.5138  1.6013
 2291TIP3    H228289   0.702   5.373   1.878  0.8616  0.7545 -1.2485
 2292TIP3   OH228290   5.232   3.437   0.806 -0.2744 -0.4478 -0.3161
 2292TIP3    H128291   5.306   3.417   0.748 -1.0857  0.6009 -1.7592
 2292TIP3    H228292   5.155   3.432   0.750 -1.1156  0.3520  0.7285
 2293TIP3   OH228293   6.257   4.893  15.491 -0.0252 -0.0483 -0.8178
 2293TIP3    H128294   6.350   4.904  15.512  0.3980 -1.3659 -1.8881
 2293TIP3    H228295   6.232   4.976  15.450  0.3236  0.7959  0.6097
 2294TIP3   OH228296   6.353   3.466  17.572  0.3468  0.0613  0.1116
 2294TIP3    H128297   6.357   3.372  17.592 -1.7160  0.0233  0.5583
 2294TIP3    H228298   6.401   3.475  17.490  0.8287 -1.3329  0.2073
 2295TIP3   OH228299   5.908   0.547  16.586  0.0300  0.4917 -0.2620
 2295TIP3    H128300   5.901   0.629  16.538 -1.6471  0.9713  0.7192
 2295TIP3    H228301   5.849   0.557  16.660  1.3631 -0.8233  1.0541
 2296TIP3   OH228302   3.581   5.152  17.239  0.1954 -0.1771  0.2737
 2296TIP3    H128303   3.491   5.121  17.244 -0.1589  0.6764 -0.6236
 2296TIP3    H228304   3.575   5.247  17.248  0.9474 -0.0570 -0.3669
 2297TIP3   OH228305   1.619   3.937  16.990  0.0565 -0.0966 -0.0926
 2297TIP3    H128306   1.683   4.002  16.962 -0.2919 -0.9681 -3.3082
 2297TIP3    H228307   1.546   3.948  16.930 -1.2156 -1.5938  1.1035
 2298TIP3   OH228308   3.738   4.854  13.790  0.1752  0.0192  0.1376
 2298TIP3    H128309   3.778   4.920  13.735  1.4615  2.2347  3.4148
 2298TIP3    H228310   3.811   4.800  13.821 -0.7241 -2.3867 -1.5854
 2299TIP3   OH228311   3.719   6.550   6.490  0.1697 -0.1445  0.1973
 2299TIP3    H128312   3.725   6.482   6.557  0.6221 -0.2323  0.0735
 2299TIP3    H228313   3.632   6.539   6.451  0.5209 -1.1302 -0.3390
 2300TIP3   OH228314   4.830   2.440   3.054 -0.8989  0.1753  0.1723
 2300TIP3    H128315   4.778   2.418   2.976  1.2168  0.2043 -1.3436
 2300TIP3    H228316   4.904   2.380   3.050  0.2762  1.5258  1.0488
 2301TIP3   OH228317   0.362   0.944  11.821  0.4043  0.6569 -0.0832
 2301TIP3    H128318   0.278   0.972  11.786 -0.7911 -0.9931  1.3196
 2301TIP3    H228319   0.389   0.871  11.765  0.3606  0.4699  0.1388
 2302TIP3   OH228320   5.439   6.320  15.593 -0.2080 -0.1264  0.1096
 2302TIP3    H128321   5.354   6.325  15.637  0.2062 -0.9432  1.0442
 2302TIP3    H228322   5.463   6.227  15.599  0.9314  0.1609  0.2332
 2303TIP3   OH228323   2.962   0.948  16.141 -0.1435 -0.5859 -0.2648
 2303TIP3    H128324   3.032   0.901  16.097 -0.0135 -1.9075  1.2686
 2303TIP3    H228325   3.003   1.030  16.171 -0.1857  0.2366 -2.3142
 2304TIP3   OH228326   6.604   2.982   2.662  0.1468 -1.0654  0.2230
 2304TIP3    H128327   6.586   2.940   2.746  1.4623 -0.0518  1.0579
 2304TIP3    H228328   6.565   3.069   2.670  0.6412 -0.8138 -0.0547
 2305TIP3   OH228329   5.164   1.273   2.751 -0.1137  0.3223 -0.2867
 2305TIP3    H128330   5.221   1.198   2.732 -1.9140 -1.1992 -0.0296
 2305TIP3    H228331   5.099   1.272   2.680 -0.5022  1.2977  0.0347
 2306TIP3   OH228332   6.381   3.609  13.994  0.9208  0.3580  0.4671
 2306TIP3    H128333   6.286   3.602  14.000  0.8235  0.2636 -0.9447
 2306TIP3    H228334   6.413   3.571  14.076 -0.1138 -2.9845 -0.5233
 2307TIP3   OH228335   1.494   0.075  13.675 -0.5190 -0.1931 -0.1043
 2307TIP3    H128336   1.532   0.028  13.601  1.1028  1.0684 -0.1336
 2307TIP3    H228337   1.411   0.109  13.642 -0.4417 -0.7692 -0.9105
 2308TIP3   OH228338   2.209   2.866  13.553  0.0096 -0.4692  0.3589
 2308TIP3    H128339   2.292   2.902  13.523 -0.5582  1.4049  0.9325
 2308TIP3    H228340   2.147   2.887  13.483 -0.5195  0.5228  1.1089
 2309TIP3   OH228341   5.523   1.120  11.584 -0.0287  0.1036  0.4837
 2309TIP3    H128342   5.558   1.123  11.495 -0.8533  1.8278  0.1736
 2309TIP3    H228343   5.600   1.111  11.640  0.5188 -0.6954 -0.3699
 2310TIP3   OH228344   4.000   4.354  14.475 -0.1767  0.2373 -0.5344
 2310TIP3    H128345   3.948   4.302  14.536  0.3285 -0.3646 -0.6033
 2310TIP3    H228346   4.078   4.378  14.526 -1.0628  2.2125 -0.0150
 2311TIP3   OH228347   2.504   5.873   0.969 -0.0199  0.0349  0.0136
 2311TIP3    H128348   2.478   5.830   1.050 -0.4601  1.0384  0.4107
 2311TIP3    H228349   2.433   5.933   0.949  0.3880  0.2740 -0.7650
 2312TIP3   OH228350   1.366   5.958   0.810  0.1513  0.4496  0.8154
 2312TIP3    H128351   1.423   5.988   0.739 -1.1253 -0.9338 -0.8777
 2312TIP3    H228352   1.398   5.871   0.833 -0.1493  0.4158  1.1197
 2313TIP3   OH228353   3.039   4.385   5.052 -0.2808  0.1297 -0.0123
 2313TIP3    H128354   3.122   4.373   5.005 -0.3576  0.0126 -0.1167
 2313TIP3    H228355   3.065   4.421   5.136 -0.1607  0.5726 -0.2363
 2314TIP3   OH228356   4.577   4.682   5.520 -0.0865 -0.1590  0.0373
 2314TIP3    H128357   4.610   4.604   5.477 -1.9424 -1.5997  1.0969
 2314TIP3    H228358   4.653   4.740   5.525  0.9747 -1.2509 -2.1139
 2315TIP3   OH228359   6.606   6.519   4.493 -0.0156  0.7006 -0.2797
 2315TIP3    H128360   6.546   6.512   4.567  0.0560 -0.1101 -0.2893
 2315TIP3    H228361   6.682   6.466   4.518 -0.7265 -1.0655 -1.6287
 2316TIP3   OH228362   4.472   2.980  17.432 -0.0479  0.3544 -0.2295
 2316TIP3    H128363   4.407   2.999  17.500 -0.1877 -0.5182 -0.1026
 2316TIP3    H228364   4.554   3.013  17.467 -0.7709  3.7870 -1.4464
 2317TIP3   OH228365   5.486   4.068   2.633 -0.3826  0.1839 -0.2649
 2317TIP3    H128366   5.570   4.026   2.648 -0.1576  0.8821  0.4536
 2317TIP3    H228367   5.483   4.081   2.538 -0.4726 -1.4509 -0.5164
 2318TIP3   OH228368   1.216   4.547   1.064  0.3004 -0.6496  0.2320
 2318TIP3    H128369   1.269   4.542   0.984 -0.7580 -0.7036 -0.4829
 2318TIP3    H228370   1.263   4.491   1.126  2.5916  1.4280  0.5638
 2319TIP3   OH228371   0.633   2.741   6.308 -0.7464  0.6841 -0.7990
 2319TIP3    H128372   0.698   2.796   6.265  0.3971 -1.0481 -1.4285
 2319TIP3    H228373   0.682   2.662   6.332 -2.3494 -0.1483 -0.1276
 2320TIP3   OH228374   5.914   2.549   5.422  0.0812  0.0928 -0.5901
 2320TIP3    H128375   5.992   2.599   5.446 -0.3343 -0.0948  1.3187
 2320TIP3    H228376   5.841   2.611   5.436 -0.3631 -0.7314  0.9715
 2321TIP3   OH228377   4.059   5.879   1.946  0.4272  0.0044  0.3220
 2321TIP3    H128378   4.020   5.807   1.895 -0.3984  0.3264  0.4859
 2321TIP3    H228379   4.075   5.840   2.032  0.2287 -0.0566  0.3320
 2322TIP3   OH228380   4.000   4.667   4.537  0.1439 -0.0405 -0.1952
 2322TIP3    H128381   3.986   4.748   4.586  0.7270 -1.6031  2.7861
 2322TIP3    H228382   4.095   4.662   4.527  0.0036  0.5529 -2.1405
 2323TIP3   OH228383   0.161   5.700  15.710  0.2576 -0.0235  0.0436
 2323TIP3    H128384   0.107   5.652  15.773  1.9999  0.2860  1.8836
 2323TIP3    H228385   0.123   5.679  15.625 -0.3044 -3.0093  0.9192
 2324TIP3   OH228386   2.468   6.519  13.116  0.0934  0.5163 -0.0026
 2324TIP3    H128387   2.510   6.475  13.190  2.0060  0.4395 -1.0565
 2324TIP3    H228388   2.483   6.612  13.131  2.3955  0.4293 -1.2601
 2325TIP3   OH228389   2.871   2.326  17.279  0.1531  0.4371  0.8154
 2325TIP3    H128390   2.850   2.279  17.198  1.5768 -0.0734  0.7105
 2325TIP3    H228391   2.790   2.371  17.302 -0.9027 -1.0855  0.2502
 2326TIP3   OH228392   0.697   3.442   6.829  0.2058 -0.4067  0.0490
 2326TIP3    H128393   0.770   3.407   6.880  0.9829 -0.2460 -0.9288
 2326TIP3    H228394   0.725   3.436   6.738 -0.9966 -0.3193 -0.3539
 2327TIP3   OH228395   1.064   6.262  14.891 -0.2262  0.4411  0.2935
 2327TIP3    H128396   1.156   6.241  14.878 -0.7072  0.2526 -4.0487
 2327TIP3    H228397   1.054   6.352  14.859 -1.3691  1.0923  2.2334
 2328TIP3   OH228398   3.207   3.953  10.681 -0.0927  0.2423  0.2517
 2328TIP3    H128399   3.284   4.007  10.696 -0.5978  1.2888 -0.8003
 2328TIP3    H228400   3.242   3.873  10.642  0.3416  1.5026 -2.1168
 2329TIP3   OH228401   1.957   4.390   2.367 -0.2085 -0.2467  0.0117
 2329TIP3    H128402   1.982   4.374   2.276 -0.0451 -0.9228  0.1686
 2329TIP3    H228403   1.999   4.318   2.416 -2.3484 -1.3763  0.3045
 2330TIP3   OH228404   0.045   5.749   4.175  0.3962 -0.1098 -0.1163
 2330TIP3    H128405  -0.048   5.725   4.175 -0.0967  1.5886  1.5851
 2330TIP3    H228406   0.047   5.840   4.145  1.6465 -0.4336 -1.1150
 2331TIP3   OH228407   2.605   6.222  12.124 -0.0913 -0.0066  0.1752
 2331TIP3    H128408   2.578   6.287  12.189 -1.7008 -0.8610  0.4097
 2331TIP3    H228409   2.576   6.139  12.161  0.0831 -0.6371 -1.0779
 2332TIP3   OH228410   4.378   6.212   6.342  0.7798  0.2886 -0.1812
 2332TIP3    H128411   4.323   6.276   6.297 -1.9821 -1.1001  0.9966
 2332TIP3    H228412   4.353   6.217   6.434  1.5416 -1.4349  0.1768
 2333TIP3   OH228413   4.210   2.376  13.735  0.1267 -0.1373 -0.0098
 2333TIP3    H128414   4.280   2.313  13.719  0.2769 -0.2815  1.1206
 2333TIP3    H228415   4.248   2.461  13.711  0.2227 -0.3637 -0.6826
 2334TIP3   OH228416   1.613   4.802  13.225 -0.3653 -0.0560  0.0406
 2334TIP3    H128417   1.667   4.881  13.229 -0.5126  0.2377 -2.3528
 2334TIP3    H228418   1.592   4.792  13.132  0.1752 -3.2847  0.1508
 2335TIP3   OH228419   6.428   3.861  13.068  0.3706  0.6003  0.6979
 2335TIP3    H128420   6.437   3.780  13.118 -0.1383  1.0534  1.5522
 2335TIP3    H228421   6.495   3.856  13.000  0.5259 -0.4041  0.9200
 2336TIP3   OH228422   5.876   0.016  14.446  0.0598  0.0432  0.0792
 2336TIP3    H128423   5.788  -0.010  14.418 -0.5890  1.6631  0.4950
 2336TIP3    H228424   5.923  -0.067  14.457 -1.1584 -0.8286 -0.9278
 2337TIP3   OH228425   5.648   6.695   4.187 -0.4363 -0.0306 -0.4570
 2337TIP3    H128426   5.666   6.602   4.185  1.5278  0.3325 -1.1658
 2337TIP3    H228427   5.606   6.710   4.272 -0.0388 -1.4202 -0.0049
 2338TIP3   OH228428   6.519   0.314   2.653 -0.0913 -0.3396  0.1529
 2338TIP3    H128429   6.603   0.292   2.612  0.1602  0.3666  0.2705
 2338TIP3    H228430   6.542   0.376   2.723 -0.7297  0.0214  0.0490
 2339TIP3   OH228431   2.407   2.684  17.312  0.1458  0.8372  0.1942
 2339TIP3    H128432   2.415   2.620  17.383  0.5854  0.3710 -0.2652
 2339TIP3    H228433   2.348   2.751  17.346  1.5403  1.4256  1.6065
 2340TIP3   OH228434   0.487   2.062  15.335 -1.0646  0.2614  0.1486
 2340TIP3    H128435   0.500   2.157  15.344 -0.5512  0.1572  0.5582
 2340TIP3    H228436   0.424   2.040  15.404 -0.0028  0.0708  1.1028
 2341TIP3   OH228437   0.728   5.884   5.885 -0.2136  0.5292 -0.1949
 2341TIP3    H128438   0.789   5.830   5.935 -0.1838  0.9396  0.2143
 2341TIP3    H228439   0.698   5.950   5.946 -2.9398 -1.0427  0.3353
 2342TIP3   OH228440   2.671   5.566   3.489 -0.3009 -0.0055 -0.4544
 2342TIP3    H128441   2.585   5.584   3.452 -0.1000  0.5016 -0.6797
 2342TIP3    H228442   2.733   5.589   3.420  0.0456  0.3198 -0.0454
 2343TIP3   OH228443   2.104   3.646   5.287  0.3394 -0.0056  0.2395
 2343TIP3    H128444   2.106   3.566   5.339 -0.0477 -1.5326 -1.9500
 2343TIP3    H228445   2.193   3.679   5.290  1.2578 -2.1811 -1.1672
 2344TIP3   OH228446   0.240   2.883  12.122  0.4294  0.3949  0.2092
 2344TIP3    H128447   0.239   2.788  12.135 -0.5560  0.2238 -0.9469
 2344TIP3    H228448   0.257   2.894  12.028  0.1710  1.3461  0.2603
 2345TIP3   OH228449   0.096   0.136   4.073  0.2583  0.0292 -0.2714
 2345TIP3    H128450   0.077   0.181   3.990  0.2073  0.3744 -0.0738
 2345TIP3    H228451   0.186   0.106   4.063  0.1996 -0.0709 -0.5163
 2346TIP3   OH228452   0.096   6.359   4.598  0.3107  0.1859 -0.2131
 2346TIP3    H128453   0.110   6.264   4.589  0.2279  0.1634 -0.1032
 2346TIP3    H228454   0.100   6.375   4.692 -0.2843  0.1936 -0.1806
 2347TIP3   OH228455   0.382   1.209  17.233  0.4618 -0.0770  0.4890
 2347TIP3    H128456   0.428   1.223  17.317 -0.1331 -0.6152  0.9120
 2347TIP3    H228457   0.291   1.228  17.252  0.2583 -0.5998  0.0685
 2348TIP3   OH228458   2.477   3.808  14.362 -0.0501  0.0045  0.2162
 2348TIP3    H128459   2.441   3.788  14.276  0.6669 -0.8519  0.0927
 2348TIP3    H228460   2.429   3.885  14.392 -0.2151  0.3924 -1.0066
 2349TIP3   OH228461   3.435   4.180   6.005 -0.2482 -0.0754  0.2956
 2349TIP3    H128462   3.438   4.090   5.973  2.7684  0.2661 -0.6868
 2349TIP3    H228463   3.491   4.179   6.083 -0.3800  0.9068  0.4101
 2350TIP3   OH228464   6.703   5.431  15.296 -1.1944  0.1782  0.7307
 2350TIP3    H128465   6.669   5.464  15.213 -0.8226 -1.0229  0.0669
 2350TIP3    H228466   6.708   5.336  15.283 -0.8339  0.0053  2.0198
 2351TIP3   OH228467   3.505   6.321  17.401  0.4504  0.3509  0.5170
 2351TIP3    H128468   3.543   6.258  17.462  0.0976  0.0015  0.3747
 2351TIP3    H228469   3.530   6.406  17.436  1.3009  0.1283  0.4686
 2352TIP3   OH228470   0.930   1.220  11.829 -0.0654 -0.3257 -0.1262
 2352TIP3    H128471   0.898   1.298  11.784 -2.7629 -2.3956 -2.1104
 2352TIP3    H228472   0.875   1.213  11.907  0.7484  0.1492  0.5103
 2353TIP3   OH228473   0.054   1.236   5.437  0.2350 -0.3197  0.3512
 2353TIP3    H128474  -0.040   1.224   5.427  0.4465 -1.7815 -0.1339
 2353TIP3    H228475   0.075   1.197   5.522  0.5090 -0.7289  0.1021
 2354TIP3   OH228476   1.401   5.091   4.561  0.2135 -0.0170 -0.8275
 2354TIP3    H128477   1.410   5.086   4.657 -1.3325  0.1333 -0.6502
 2354TIP3    H228478   1.335   5.025   4.540  0.2148  0.2620 -1.7421
 2355TIP3   OH228479   1.853   5.670   6.655 -0.0046 -0.2855 -0.1873
 2355TIP3    H128480   1.896   5.754   6.638 -0.7626  0.2375  0.3718
 2355TIP3    H228481   1.806   5.684   6.738 -0.7585 -1.0055 -0.4759
 2356TIP3   OH228482   2.809   6.617   1.408 -0.6419  0.0792  0.2621
 2356TIP3    H128483   2.847   6.539   1.367  0.9982 -0.4188  2.5503
 2356TIP3    H228484   2.741   6.582   1.466 -0.5433  0.4410  0.5933
 2357TIP3   OH228485   4.494   3.815  10.918  0.1345 -0.3032  0.2130
 2357TIP3    H128486   4.505   3.742  10.857  0.6034 -0.6044  0.6496
 2357TIP3    H228487   4.578   3.860  10.918 -0.1717  0.2757 -0.0998
 2358TIP3   OH228488   2.046   2.993  11.499 -0.2476  0.2054 -0.2662
 2358TIP3    H128489   1.954   2.971  11.490  0.0937 -1.0726 -0.9306
 2358TIP3    H228490   2.053   3.081  11.464 -1.1160  0.0854 -0.7682
 2359TIP3   OH228491   4.815   5.250  12.843  0.5372  0.3034 -0.4395
 2359TIP3    H128492   4.874   5.307  12.893  0.6231  0.3312 -0.5695
 2359TIP3    H228493   4.768   5.200  12.909 -0.7185  1.6803 -0.2359
 2360TIP3   OH228494   3.728   3.127   1.393  0.2830  0.3714 -0.0095
 2360TIP3    H128495   3.769   3.213   1.408  1.4955 -0.0027 -1.0031
 2360TIP3    H228496   3.673   3.140   1.316  1.4601 -0.0089 -0.9608
 2361TIP3   OH228497   3.880   3.315   6.505 -0.0862 -0.0946 -0.1594
 2361TIP3    H128498   3.927   3.272   6.576 -0.6505 -1.9860 -0.8551
 2361TIP3    H228499   3.886   3.408   6.524  0.6572 -0.5036  1.7845
 2362TIP3   OH228500   3.956   0.333   1.125 -0.5048 -0.2760 -0.4098
 2362TIP3    H128501   3.915   0.398   1.183  0.0701  0.9953 -1.3680
 2362TIP3    H228502   4.047   0.327   1.155 -0.5579 -0.6598 -0.3186
 2363TIP3   OH228503   2.847   4.174   4.989  0.0707  0.3661  0.5188
 2363TIP3    H128504   2.930   4.217   5.010  1.1101 -1.2507 -0.1378
 2363TIP3    H228505   2.868   4.114   4.917 -1.4848 -0.6683  0.8849
 2364TIP3   OH228506   0.163   5.783  14.871  0.3014  0.0615  0.0181
 2364TIP3    H128507   0.244   5.758  14.915 -0.0181 -0.6586  0.2162
 2364TIP3    H228508   0.093   5.758  14.932 -0.1711 -1.3823 -1.0415
 2365TIP3   OH228509   3.919   3.481  13.104 -0.5313 -0.2648 -0.8109
 2365TIP3    H128510   3.831   3.489  13.140  0.1383  1.8588  0.5532
 2365TIP3    H228511   3.933   3.563  13.057  1.3001  0.2481  0.4965
 2366TIP3   OH228512   1.530   0.992   1.648 -0.1984  0.2794  0.2752
 2366TIP3    H128513   1.515   1.020   1.738 -2.4065 -0.3413  0.1532
 2366TIP3    H228514   1.446   0.955   1.619  1.1099 -1.7590 -1.2325
 2367TIP3   OH228515   3.067   6.015   5.944 -0.5424  0.3212  0.7726
 2367TIP3    H128516   3.077   6.057   6.030  0.3829  0.1304  0.7616
 2367TIP3    H228517   3.148   6.035   5.897  0.6624 -2.7070  1.3092
 2368TIP3   OH228518   5.649   6.633  14.681  0.4423 -0.2958 -0.0725
 2368TIP3    H128519   5.597   6.569  14.729  0.8642 -1.5917 -1.2680
 2368TIP3    H228520   5.726   6.648  14.735  0.3481 -0.8220  0.2083
 2369TIP3   OH228521   0.860   4.288  16.518  0.5310 -0.7548 -0.0266
 2369TIP3    H128522   0.935   4.237  16.488  2.2076 -0.2044  2.8757
 2369TIP3    H228523   0.843   4.256  16.606 -1.6915  0.2503 -0.0245
 2370TIP3   OH228524   0.928   3.775  12.057  0.1775  0.1476  0.2905
 2370TIP3    H128525   1.020   3.795  12.039  0.3421 -0.8155  0.0040
 2370TIP3    H228526   0.930   3.691  12.103 -0.5356  0.3128  0.6325
 2371TIP3   OH228527   4.439   3.152  13.256 -0.0970  0.3399 -0.2035
 2371TIP3    H128528   4.521   3.105  13.273  1.0596  2.3014 -0.0417
 2371TIP3    H228529   4.422   3.138  13.163  0.1161 -0.5235 -0.1184
 2372TIP3   OH228530   4.673   1.723  12.149  0.2785  0.1482  0.2158
 2372TIP3    H128531   4.614   1.701  12.078  1.6394 -0.6146 -0.7106
 2372TIP3    H228532   4.725   1.796  12.116  2.4431 -1.6048 -0.5165
 2373TIP3   OH228533   3.241   0.906  15.786 -0.4148  0.2642 -0.0530
 2373TIP3    H128534   3.219   0.905  15.879 -0.0359 -0.1437  0.0376
 2373TIP3    H228535   3.284   0.991  15.773  0.9837 -0.3168  0.5084
 2374TIP3   OH228536   5.856   1.394  17.270  0.1744 -0.0148  0.0048
 2374TIP3    H128537   5.949   1.398  17.248  0.4482 -1.1901  0.8211
 2374TIP3    H228538   5.852   1.413  17.364 -0.4063  0.0372 -0.0241
 2375TIP3   OH228539   5.632   0.920  16.549 -0.3725  0.2785  0.3192
 2375TIP3    H128540   5.564   0.868  16.591 -2.1287  0.9530 -1.4917
 2375TIP3    H228541   5.682   0.958  16.621 -3.1625  1.3357  1.8682
 2376TIP3   OH228542   1.468   2.193  14.543 -0.0317  0.0256 -0.4350
 2376TIP3    H128543   1.468   2.118  14.483 -0.7921 -1.2941  1.1261
 2376TIP3    H228544   1.529   2.255  14.503  1.3628 -1.8055 -1.3370
 2377TIP3   OH228545   6.084   4.117  17.222  0.0551 -0.1190 -0.1399
 2377TIP3    H128546   6.138   4.040  17.204 -0.5153 -0.3424 -0.9884
 2377TIP3    H228547   6.140   4.192  17.202  1.2156 -0.2274  2.3902
 2378TIP3   OH228548   4.085   6.708  16.283  0.4961  0.0450  0.1166
 2378TIP3    H128549   4.162   6.658  16.309  0.2578 -0.0540  0.6519
 2378TIP3    H228550   4.121   6.787  16.242  0.8841 -1.4374 -2.5787
 2379TIP3   OH228551   2.702   2.545  16.452 -0.3537 -0.0019  0.3135
 2379TIP3    H128552   2.687   2.627  16.499 -1.7086  1.3356 -2.2161
 2379TIP3    H228553   2.741   2.572  16.369  0.0615 -2.0402 -0.1996
 2380TIP3   OH228554   5.122   3.919   1.660  0.2229 -0.1341 -0.9351
 2380TIP3    H128555   5.159   3.996   1.617  0.6867  0.6651  0.7800
 2380TIP3    H228556   5.179   3.904   1.735  0.3286 -2.3767 -1.3905
 2381TIP3   OH228557   0.755   0.145   1.394 -0.0078 -0.3561  0.0132
 2381TIP3    H128558   0.833   0.105   1.355  1.0463  1.0129  0.6449
 2381TIP3    H228559   0.714   0.192   1.322 -0.1550 -0.9090 -0.2732
 2382TIP3   OH228560   0.309   5.889   4.312 -0.6621 -0.4020  0.0478
 2382TIP3    H128561   0.236   5.834   4.282  0.2473 -1.0022 -1.1780
 2382TIP3    H228562   0.294   5.973   4.269 -0.5386 -0.5847 -0.3606
 2383TIP3   OH228563   6.112   2.448   1.458 -0.2541  0.1919  0.4456
 2383TIP3    H128564   6.152   2.384   1.401  3.1032  2.7813 -0.4384
 2383TIP3    H228565   6.143   2.426   1.546  0.4028  0.2577  0.2308
 2384TIP3   OH228566   4.627   6.566   5.554 -0.3373  0.5406 -0.3839
 2384TIP3    H128567   4.691   6.584   5.623 -2.4611 -0.6684  2.0693
 2384TIP3    H228568   4.563   6.637   5.562  0.0848  1.1691 -2.1203
 2385TIP3   OH228569   6.469   2.861   1.694 -0.0817 -0.4558  0.0757
 2385TIP3    H128570   6.454   2.847   1.601  1.5309 -0.5623 -0.1960
 2385TIP3    H228571   6.408   2.800   1.738 -1.8852  0.6183 -0.8351
 2386TIP3   OH228572   5.624   1.761  17.070 -0.2229 -0.0698 -0.1526
 2386TIP3    H128573   5.569   1.831  17.103  0.8427  0.3050  0.9123
 2386TIP3    H228574   5.701   1.761  17.128  1.4343  0.1609 -2.2068
 2387TIP3   OH228575   3.466   6.147   0.417 -0.4187  0.5839  0.0410
 2387TIP3    H128576   3.397   6.097   0.375  0.2344  0.4097 -0.8727
 2387TIP3    H228577   3.544   6.092   0.408  0.2609  1.6393 -0.7636
 2388TIP3   OH228578   1.992   1.927  13.899  0.2123  0.2662  0.5024
 2388TIP3    H128579   1.936   1.987  13.948 -0.2143 -0.5739  1.0588
 2388TIP3    H228580   2.044   1.984  13.843  1.2874  1.3467  2.4763
 2389TIP3   OH228581   0.427   4.326   0.465 -0.7004 -0.6944  0.6595
 2389TIP3    H128582   0.378   4.254   0.425 -0.8444  0.8135 -2.0934
 2389TIP3    H228583   0.512   4.325   0.421 -0.3891  0.2681  1.2075
 2390TIP3   OH228584   1.913   2.501  14.602 -0.0862 -0.2654 -0.0101
 2390TIP3    H128585   1.828   2.542  14.589  1.1780  2.0613 -1.5217
 2390TIP3    H228586   1.917   2.481  14.696 -1.6751  0.9748  0.3445
 2391TIP3   OH228587   3.049   0.998   0.906  0.3125  0.1651 -0.0153
 2391TIP3    H128588   3.121   1.056   0.883  0.3387  0.3327  0.4743
 2391TIP3    H228589   2.987   1.006   0.834 -0.1229  1.5227  0.4888
 2392TIP3   OH228590   0.049   4.875  14.654  0.3935  0.3806 -0.1119
 2392TIP3    H128591   0.130   4.884  14.705  0.5542 -0.7058 -0.1649
 2392TIP3    H228592   0.068   4.922  14.572  1.2124 -0.4051 -0.3885
 2393TIP3   OH228593   4.154   0.144   3.043  0.5096 -0.0867  0.2031
 2393TIP3    H128594   4.222   0.101   2.992  0.2784 -1.5433  1.0717
 2393TIP3    H228595   4.194   0.163   3.128 -0.0450 -0.6374  0.5997
 2394TIP3   OH228596   3.541   6.330  13.208 -0.3514 -0.6303  0.5799
 2394TIP3    H128597   3.551   6.425  13.212  0.3097 -0.4591 -2.7657
 2394TIP3    H228598   3.446   6.317  13.204 -0.4188  0.1111 -1.2346
 2395TIP3   OH228599   0.877   6.138  12.457 -0.2711  0.2277 -0.3860
 2395TIP3    H128600   0.814   6.176  12.396  0.3978  1.5882 -0.2863
 2395TIP3    H228601   0.886   6.204  12.526  1.2136  0.0493 -0.3828
 2396TIP3   OH228602   1.288   1.347   3.298 -0.0891 -0.3380  0.0486
 2396TIP3    H128603   1.332   1.431   3.305  1.1898 -1.0676  1.4502
 2396TIP3    H228604   1.216   1.352   3.361 -0.5603 -0.0012 -0.5060
 2397TIP3   OH228605   5.600   4.701  16.247 -0.0480  0.2476  0.0268
 2397TIP3    H128606   5.512   4.682  16.216  0.0884  0.2933 -0.3962
 2397TIP3    H228607   5.657   4.645  16.193  0.2100  0.4947  0.0388
 2398TIP3   OH228608   5.697   0.612  11.712 -0.3929  0.5935  0.0728
 2398TIP3    H128609   5.737   0.699  11.720  1.7459 -0.4135  1.1350
 2398TIP3    H228610   5.765   0.558  11.672 -1.6505 -0.6443 -0.4713
 2399TIP3   OH228611   4.767   1.425  12.462  0.3057  0.1182  0.1605
 2399TIP3    H128612   4.723   1.348  12.427  0.6582  1.0434 -2.5193
 2399TIP3    H228613   4.834   1.390  12.522 -0.1500 -1.5824 -0.2942
 2400TIP3   OH228614   4.168   1.648   4.945 -0.1224 -0.6090 -0.0571
 2400TIP3    H128615   4.172   1.607   4.858  1.3343 -1.2122  0.2548
 2400TIP3    H228616   4.189   1.740   4.928 -1.5578 -0.3544 -0.5385
 2401TIP3   OH228617   2.063   4.665  13.761  0.5707 -0.2735 -0.4317
 2401TIP3    H128618   2.101   4.632  13.680 -1.8912  0.4674 -2.0048
 2401TIP3    H228619   1.995   4.727  13.733  0.4942  1.0150  2.2382
 2402TIP3   OH228620   3.651   1.972   0.034  0.3201  0.1249 -0.1731
 2402TIP3    H128621   3.611   1.900   0.082  0.1163 -0.6678 -1.4863
 2402TIP3    H228622   3.662   2.041   0.099 -1.6747 -0.2248  0.5904
 2403TIP3   OH228623   2.348   1.605   0.362  0.0926  0.5687  0.5167
 2403TIP3    H128624   2.409   1.630   0.293 -0.8811 -1.3741 -1.1586
 2403TIP3    H228625   2.262   1.625   0.326 -0.4254 -0.1731  1.3111
 2404TIP3   OH228626   3.954   1.725  12.737 -0.2277  0.1672  0.3305
 2404TIP3    H128627   3.873   1.686  12.772 -0.7703  0.1838 -0.8361
 2404TIP3    H228628   4.000   1.651  12.697 -0.1837  0.3393  0.0613
 2405TIP3   OH228629   1.997   4.489  12.396  0.4777  0.4106  0.0267
 2405TIP3    H128630   1.922   4.548  12.399  1.8407  2.2002  2.0160
 2405TIP3    H228631   1.991   4.439  12.478  2.0403  1.4794  0.8623
 2406TIP3   OH228632   4.249   4.179  14.402  0.6819  0.0572 -0.1148
 2406TIP3    H128633   4.237   4.105  14.462 -1.1916 -0.2835 -0.8245
 2406TIP3    H228634   4.228   4.142  14.315  0.2920  1.2652 -0.5511
 2407TIP3   OH228635   5.210   4.297   0.706  0.0892  0.0876  0.1047
 2407TIP3    H128636   5.278   4.303   0.638  1.4209 -1.9295  1.1656
 2407TIP3    H228637   5.213   4.382   0.750  1.1261  0.4360 -0.5868
 2408TIP3   OH228638   3.322   3.712  17.040  0.0870  0.3502 -0.4274
 2408TIP3    H128639   3.315   3.633  16.987 -0.5400 -0.5477  0.9197
 2408TIP3    H228640   3.237   3.754  17.032 -0.4504 -0.4349  0.7725
 2409TIP3   OH228641   3.919   2.379   5.363  0.0364  0.6813  0.5256
 2409TIP3    H128642   3.874   2.323   5.300 -0.4259  1.8987 -0.2699
 2409TIP3    H228643   3.922   2.465   5.321  0.0510  1.4447  2.0089
 2410TIP3   OH228644   3.838   0.471  16.953  0.1435  0.3804  0.2910
 2410TIP3    H128645   3.797   0.503  16.873  0.2658  1.1833  0.5356
 2410TIP3    H228646   3.822   0.541  17.017 -0.5997 -0.5620  1.1748
 2411TIP3   OH228647   4.656   2.663  16.915 -0.1768 -0.5639 -0.4010
 2411TIP3    H128648   4.571   2.663  16.958  0.5014 -0.8948  0.9678
 2411TIP3    H228649   4.707   2.728  16.962  0.6377 -1.0631 -0.5728
 2412TIP3   OH228650   3.092   3.311   1.961  0.3100  0.0737 -0.0176
 2412TIP3    H128651   3.022   3.253   1.992  1.9964 -1.1072  1.8048
 2412TIP3    H228652   3.096   3.380   2.027  0.4695  0.4488 -0.4215
 2413TIP3   OH228653   3.173   6.533  13.180  0.5738 -0.3966  0.0115
 2413TIP3    H128654   3.204   6.492  13.261 -0.9919 -0.0053  0.8547
 2413TIP3    H228655   3.176   6.463  13.115  1.0429 -0.9487  0.6050
 2414TIP3   OH228656   6.062   1.599   4.796  0.0269  0.2529  0.0852
 2414TIP3    H128657   6.077   1.505   4.805 -3.9190 -0.5648 -0.1838
 2414TIP3    H228658   6.105   1.638   4.872  0.9981 -1.8428  0.6772
 2415TIP3   OH228659   1.021   4.843  15.900 -0.6091 -0.2257 -0.0069
 2415TIP3    H128660   1.102   4.885  15.870  0.5031 -2.0648  0.3076
 2415TIP3    H228661   0.983   4.806  15.821  0.5469 -2.1027  0.2631
 2416TIP3   OH228662   1.504   3.387   1.204  0.3275  0.6405  0.6950
 2416TIP3    H128663   1.429   3.392   1.264 -1.4272  0.1512 -1.3263
 2416TIP3    H228664   1.467   3.407   1.118  2.0494 -1.8014 -0.7391
 2417TIP3   OH228665   5.355   1.821  14.663  0.2692  0.7606 -0.6310
 2417TIP3    H128666   5.277   1.876  14.665  0.5839  1.2130 -0.4908
 2417TIP3    H228667   5.387   1.823  14.753 -1.2295 -1.8980  0.0557
 2418TIP3   OH228668   1.033   2.694  16.706 -0.6285 -0.3980 -0.8031
 2418TIP3    H128669   1.027   2.611  16.754  1.1200 -0.8395 -1.2562
 2418TIP3    H228670   0.948   2.735  16.718 -0.5713 -0.8999  1.8981
 2419TIP3   OH228671   2.998   4.995   5.617 -0.0543  0.6537 -0.5824
 2419TIP3    H128672   2.966   5.081   5.644 -0.1602  0.9938 -1.7440
 2419TIP3    H228673   3.071   4.977   5.676 -0.3744  1.2954  0.0195
 2420TIP3   OH228674   0.970   1.549   4.957 -0.3729 -0.5485  0.1599
 2420TIP3    H128675   0.976   1.627   5.011 -0.5439  0.0371 -0.6555
 2420TIP3    H228676   0.966   1.477   5.020 -2.8578  0.2413  1.0397
 2421TIP3   OH228677   2.001   4.540   4.660 -0.2585 -0.0982  0.7882
 2421TIP3    H128678   2.000   4.447   4.637 -1.8509 -0.1693  1.0456
 2421TIP3    H228679   2.014   4.585   4.577 -0.2124 -0.5255  0.5593
 2422TIP3   OH228680   0.680   3.184  13.839 -0.8883  1.0505 -0.9185
 2422TIP3    H128681   0.644   3.251  13.781 -1.9733  0.5755 -0.8149
 2422TIP3    H228682   0.658   3.101  13.797 -2.1720  0.6744  0.4027
 2423TIP3   OH228683   4.948   1.078  14.838  0.1948  0.0520  0.0824
 2423TIP3    H128684   5.018   1.093  14.902 -0.3136 -1.3232  0.9937
 2423TIP3    H228685   4.870   1.119  14.878 -0.0361 -0.4637  0.1634
 2424TIP3   OH228686   1.272   6.410   3.850  0.5690 -0.0965  0.3800
 2424TIP3    H128687   1.325   6.364   3.914  2.0303  1.0246  0.0299
 2424TIP3    H228688   1.282   6.360   3.769  2.4082  0.8928 -0.0818
 2425TIP3   OH228689   0.017   0.575   0.017 -0.4527  0.3580  0.2875
 2425TIP3    H128690  -0.040   0.513   0.063  0.3536  0.3052  1.2543
 2425TIP3    H228691   0.077   0.521  -0.033  0.5111  0.3157  1.4472
 2426TIP3   OH228692   4.340   2.512  16.044 -0.2569  0.1497  0.3420
 2426TIP3    H128693   4.250   2.515  16.076  0.0988  0.9376  1.2943
 2426TIP3    H228694   4.345   2.582  15.979 -0.8958 -1.2613 -1.3081
 2427TIP3   OH228695   6.385   1.128  13.089  0.4418 -0.3025  0.1922
 2427TIP3    H128696   6.408   1.161  13.176  0.2381 -0.5780  0.3502
 2427TIP3    H228697   6.322   1.192  13.055  0.5763 -0.1561  0.2155
 2428TIP3   OH228698   4.548   6.024   5.683  0.5784  0.3470 -0.6980
 2428TIP3    H128699   4.505   5.940   5.693  1.7476 -0.0882  1.0748
 2428TIP3    H228700   4.525   6.052   5.594 -0.6558 -1.3415 -0.9608
 2429TIP3   OH228701   5.002   6.607  13.031  0.1675 -0.6803  0.1770
 2429TIP3    H128702   4.926   6.549  13.032 -0.8828  0.5872 -1.5658
 2429TIP3    H228703   4.996   6.658  13.112 -0.8818 -0.5463  0.0198
 2430TIP3   OH228704   3.311   6.523   0.511  0.2553  0.1148  0.3210
 2430TIP3    H128705   3.309   6.489   0.422 -0.8822  0.7119  0.0958
 2430TIP3    H228706   3.225   6.563   0.524  0.5167  0.3373  1.5718
 2431TIP3   OH228707   1.355   1.431  12.929  0.6162  0.4094  0.1538
 2431TIP3    H128708   1.280   1.487  12.912 -1.5098 -1.6727  1.9926
 2431TIP3    H228709   1.378   1.394  12.844 -1.2055  0.2515 -0.3116
 2432TIP3   OH228710   3.908   6.453   1.318 -0.1541  0.1258  0.3605
 2432TIP3    H128711   3.929   6.516   1.249  1.6211 -0.7588  0.0288
 2432TIP3    H228712   3.935   6.497   1.399  1.3292 -0.2564  0.1079
 2433TIP3   OH228713   0.639   0.354  14.754 -0.5417 -0.0934 -0.5701
 2433TIP3    H128714   0.696   0.352  14.831  0.0093 -0.3514 -0.9803
 2433TIP3    H228715   0.620   0.262  14.736  2.3391 -0.3623 -2.9378
 2434TIP3   OH228716   0.518   2.658  11.497 -0.3996 -0.1375 -0.2270
 2434TIP3    H128717   0.561   2.574  11.507  0.1138  0.1789  0.3120
 2434TIP3    H228718   0.533   2.682  11.406  0.1247 -0.2786 -0.1837
 2435TIP3   OH228719   5.296   6.357  13.923  0.5220  0.2243  0.5673
 2435TIP3    H128720   5.260   6.410  13.851 -1.7036 -0.8710  0.8127
 2435TIP3    H228721   5.381   6.328  13.890  1.3639  3.0108  0.0129
 2436TIP3   OH228722   3.658   0.676  16.541  0.3099  0.0313  0.1613
 2436TIP3    H128723   3.739   0.691  16.590  0.0147 -0.4677  0.8032
 2436TIP3    H228724   3.688   0.662  16.451  0.6768  3.7966 -0.4554
 2437TIP3   OH228725   1.935   0.933   2.942 -0.9802  0.0879  0.0248
 2437TIP3    H128726   2.016   0.947   2.892 -0.7795 -1.6230 -0.1775
 2437TIP3    H228727   1.887   0.867   2.892 -1.5639 -0.3995  1.2099
 2438TIP3   OH228728   0.861   2.237   3.428 -0.2827  0.3772  0.0617
 2438TIP3    H128729   0.932   2.302   3.421 -0.8588  0.9035 -1.3457
 2438TIP3    H228730   0.858   2.196   3.342 -1.6840  0.3645  0.0952
 2439TIP3   OH228731   3.118   4.421  14.427 -0.1472 -0.2634 -0.1917
 2439TIP3    H128732   3.036   4.399  14.472  0.7081  0.9712  2.1694
 2439TIP3    H228733   3.160   4.337  14.411 -0.9416 -0.8102  0.5069
 2440TIP3   OH228734   3.472   2.149   2.798  0.3904 -0.0760 -0.2552
 2440TIP3    H128735   3.450   2.206   2.872  1.1333  0.7756 -0.6645
 2440TIP3    H228736   3.468   2.061   2.834 -1.2573  0.1843  0.2716
 2441TIP3   OH228737   6.567   6.115  14.342 -0.0854  0.2787  0.3233
 2441TIP3    H128738   6.649   6.088  14.384 -1.0503 -1.6087  1.1140
 2441TIP3    H228739   6.544   6.198  14.383  0.5280 -0.0594  1.3739
 2442TIP3   OH228740   2.819   2.062   5.355 -0.2480  0.2502 -0.4418
 2442TIP3    H128741   2.843   2.153   5.368  1.6878 -0.2665 -0.1569
 2442TIP3    H228742   2.794   2.031   5.443  2.5726 -0.3953  0.2280
 2443TIP3   OH228743   2.292   4.594   3.384 -0.2585  0.0535 -0.1345
 2443TIP3    H128744   2.208   4.636   3.365  0.7396  2.5525  0.5603
 2443TIP3    H228745   2.295   4.587   3.480 -0.7829 -2.6454 -0.2221
 2444TIP3   OH228746   6.558   4.854   3.262  0.4529 -0.8050 -0.1752
 2444TIP3    H128747   6.539   4.844   3.355  2.7072  0.1440  0.4799
 2444TIP3    H228748   6.492   4.915   3.230  0.9294  0.5719  1.3491
 2445TIP3   OH228749   0.358   3.144  16.685  0.3450 -0.0792  0.5066
 2445TIP3    H128750   0.276   3.154  16.638 -0.0240 -0.8815  0.9549
 2445TIP3    H228751   0.409   3.082  16.632  0.1772 -0.5021  0.8302
 2446TIP3   OH228752   5.981   4.388   1.378 -0.3269 -0.1578  0.7041
 2446TIP3    H128753   5.935   4.443   1.441  0.0576  1.2612 -0.2261
 2446TIP3    H228754   5.936   4.403   1.295  1.4906  0.9242 -0.1415
 2447TIP3   OH228755   5.083   1.397   4.994  0.9299  0.2393  0.3509
 2447TIP3    H128756   5.097   1.485   5.028  1.6833  0.5270 -0.6414
 2447TIP3    H228757   5.026   1.411   4.918  0.9822 -0.1374  0.2439
 2448TIP3   OH228758   6.706   3.614  14.951 -0.0520 -0.5422  0.1324
 2448TIP3    H128759   6.671   3.696  14.918 -2.8138 -2.4203 -2.0617
 2448TIP3    H228760   6.637   3.577  15.005  0.2874 -2.2878 -0.5322
 2449TIP3   OH228761   2.745   5.664  14.554 -0.1452 -0.3921 -0.2540
 2449TIP3    H128762   2.674   5.612  14.517  0.2322 -0.2091 -1.2639
 2449TIP3    H228763   2.718   5.754  14.542  0.4776 -0.3107 -1.1139
 2450TIP3   OH228764   5.454   6.646   1.987 -0.1503 -0.1801  0.4732
 2450TIP3    H128765   5.450   6.711   2.057 -1.7687  1.8565 -1.3611
 2450TIP3    H228766   5.543   6.652   1.953 -0.1066  0.6560  0.7283
 2451TIP3   OH228767   6.531   3.520  15.693  0.0246  0.2154 -0.4591
 2451TIP3    H128768   6.510   3.469  15.771 -0.5545 -0.2634 -0.9184
 2451TIP3    H228769   6.484   3.603  15.705  1.1010  0.7257  0.3656
 2452TIP3   OH228770   2.638   5.362  14.962 -0.1230 -0.0222  0.2121
 2452TIP3    H128771   2.637   5.280  14.912  1.0250  0.4160 -0.5498
 2452TIP3    H228772   2.717   5.407  14.933  0.0072  0.7253  1.6673
 2453TIP3   OH228773   2.316   6.054  15.114 -0.3392 -0.0112  0.3490
 2453TIP3    H128774   2.222   6.071  15.103 -0.2374 -0.3691 -1.4845
 2453TIP3    H228775   2.359   6.126  15.067  0.2120 -1.4022 -1.3914
 2454TIP3   OH228776   2.146   0.935   0.199  0.2706 -0.3566  0.5757
 2454TIP3    H128777   2.051   0.948   0.210  0.5007  1.8964  0.4753
 2454TIP3    H228778   2.154   0.846   0.164 -1.9555  0.0306 -1.2240
 2455TIP3   OH228779   3.271   6.341   1.797 -0.0064 -0.0749 -0.3738
 2455TIP3    H128780   3.268   6.405   1.868  0.0364 -0.0759 -0.3715
 2455TIP3    H228781   3.320   6.267   1.833  3.8755  1.5961 -1.7989
 2456TIP3   OH228782   0.432   2.870  17.043  0.6501 -0.0263  0.6128
 2456TIP3    H128783   0.417   2.931  16.971  1.6348 -1.6362 -1.0440
 2456TIP3    H228784   0.382   2.906  17.116 -0.7916  1.4095 -0.9994
 2457TIP3   OH228785   5.806   2.363   3.143 -0.2142  0.3085 -0.2175
 2457TIP3    H128786   5.764   2.446   3.122 -1.0972 -0.1315 -0.2684
 2457TIP3    H228787   5.807   2.316   3.059  1.2678  0.6780 -0.4275
 2458TIP3   OH228788   5.234   1.056   0.016 -0.1301  0.1774 -0.4825
 2458TIP3    H128789   5.260   0.977   0.064  1.1730  0.7068 -0.2713
 2458TIP3    H228790   5.254   1.128   0.076 -1.4618  0.6745 -0.6034
 2459TIP3   OH228791   3.525   4.764  16.116 -0.0390 -1.0333  0.4611
 2459TIP3    H128792   3.504   4.684  16.069  1.0238 -0.7011 -0.6070
 2459TIP3    H228793   3.552   4.826  16.049  1.2282 -0.4468  1.4544
 2460TIP3   OH228794   4.985   4.056   1.927 -0.5362  0.5771  0.0370
 2460TIP3    H128795   4.927   4.098   1.990 -0.0725  2.3825 -0.6664
 2460TIP3    H228796   4.965   4.099   1.844 -0.1833 -0.7844 -0.7788
 2461TIP3   OH228797   4.997   1.265  13.030  0.6986 -0.2949 -0.6606
 2461TIP3    H128798   5.075   1.314  13.003  0.7967  0.0148  0.1329
 2461TIP3    H228799   4.944   1.329  13.078 -0.6843 -0.1527 -2.2947
 2462TIP3   OH228800   5.298   4.181  17.042  0.0907  0.1772  0.0629
 2462TIP3    H128801   5.323   4.233  16.966 -1.0425  0.6598 -0.0057
 2462TIP3    H228802   5.373   4.187  17.101  0.9376 -0.1186 -0.9580
 2463TIP3   OH228803   0.118   6.070  15.523 -0.2455  0.4948 -0.6292
 2463TIP3    H128804   0.078   6.157  15.529 -2.3927 -0.4777  0.1286
 2463TIP3    H228805   0.150   6.051  15.611 -1.8467 -0.3663 -0.2000
 2464TIP3   OH228806   2.863   3.900   3.007 -0.1268 -0.5799 -0.7147
 2464TIP3    H128807   2.914   3.956   2.948  1.6058 -2.6198 -1.2799
 2464TIP3    H228808   2.799   3.857   2.949 -0.3064 -0.4767 -0.5936
 2465TIP3   OH228809   4.208   4.682   1.515 -0.0391  0.1240 -0.6687
 2465TIP3    H128810   4.126   4.668   1.467 -0.0252 -2.2209 -0.0906
 2465TIP3    H228811   4.228   4.598   1.555  2.2740  0.8433 -0.1548
 2466TIP3   OH228812   5.346   4.029  10.743  0.0932  0.5055  0.1983
 2466TIP3    H128813   5.314   3.955  10.691  0.1680  1.2146 -0.8938
 2466TIP3    H228814   5.275   4.047  10.805 -0.9990  1.0398 -1.1448
 2467TIP3   OH228815   5.648   6.045  16.101  0.7581 -0.1923 -0.3102
 2467TIP3    H128816   5.730   6.005  16.074  0.8227 -0.1676 -0.1526
 2467TIP3    H228817   5.659   6.138  16.081  0.7076 -0.2126 -0.4343
 2468TIP3   OH228818   3.888   4.693  15.782  0.0372  0.1288  0.3997
 2468TIP3    H128819   3.922   4.755  15.718  0.8340 -0.2896  0.4111
 2468TIP3    H228820   3.796   4.718  15.793  0.3465  1.3106  0.4262
 2469TIP3   OH228821   3.759   1.785  17.508 -0.6179  0.0366  0.3673
 2469TIP3    H128822   3.669   1.798  17.480  0.2255  2.4150 -1.6410
 2469TIP3    H228823   3.765   1.832  17.592 -0.9297  1.2464 -0.2538
 2470TIP3   OH228824   5.756   4.699   1.127 -0.0173  0.5327 -0.2965
 2470TIP3    H128825   5.673   4.745   1.111 -0.0663  0.2306 -0.9440
 2470TIP3    H228826   5.811   4.763   1.172 -1.2016  0.1882  1.7273
 2471TIP3   OH228827   2.799   2.656  12.132  0.2444  0.5738  0.3326
 2471TIP3    H128828   2.804   2.682  12.040 -0.6786 -1.0355 -0.2092
 2471TIP3    H228829   2.889   2.656  12.162  0.4345  2.7574 -0.0666
 2472TIP3   OH228830   1.601   1.898   4.059 -0.4284  0.5391 -0.4186
 2472TIP3    H128831   1.681   1.854   4.087 -0.1056  1.5997  0.4267
 2472TIP3    H228832   1.618   1.924   3.969 -0.6227 -1.0244 -0.9205
 2473TIP3   OH228833   1.213   2.277  12.911  0.4589 -0.4451 -0.2082
 2473TIP3    H128834   1.254   2.245  12.992 -0.9458  0.4658  0.9122
 2473TIP3    H228835   1.243   2.368  12.904 -0.2267 -0.2081 -0.1358
 2474TIP3   OH228836   2.514   5.386  12.331 -0.3491 -0.2994 -0.0749
 2474TIP3    H128837   2.492   5.444  12.258 -2.1938 -0.9384 -0.0821
 2474TIP3    H228838   2.529   5.445  12.404  0.2996  0.2907 -0.6651
 2475TIP3   OH228839   6.448   1.043  11.291 -0.2498 -0.2302  0.0134
 2475TIP3    H128840   6.520   0.980  11.282 -0.1492 -0.0489 -0.5241
 2475TIP3    H228841   6.463   1.106  11.220  0.0558  0.7985  0.9639
 2476TIP3   OH228842   0.752   0.674  12.227 -0.2288 -0.1245 -0.0140
 2476TIP3    H128843   0.740   0.729  12.305 -1.5865 -1.0472  0.4730
 2476TIP3    H228844   0.693   0.600  12.241  1.0862 -1.4002 -0.9525
 2477TIP3   OH228845   1.648   1.319  11.949  0.2373 -0.5030 -0.4786
 2477TIP3    H128846   1.705   1.300  11.875 -0.3294 -0.9772 -0.7972
 2477TIP3    H228847   1.679   1.261  12.019  2.3324  1.5902  0.4812
 2478TIP3   OH228848   4.813   6.466  17.305  0.3040  0.2494 -0.1110
 2478TIP3    H128849   4.831   6.496  17.394  0.3378  0.3074 -0.1381
 2478TIP3    H228850   4.717   6.461  17.301  0.0901  3.3328 -1.0920
 2479TIP3   OH228851   3.052   0.034   5.924 -0.4406 -0.8384 -0.0606
 2479TIP3    H128852   3.067   0.053   6.017 -3.2425 -0.9859  0.5260
 2479TIP3    H228853   3.113   0.091   5.878 -0.4252  0.8125  1.8595
 2480TIP3   OH228854   0.485   1.582  17.122  0.3491  0.4677 -0.0689
 2480TIP3    H128855   0.491   1.506  17.064 -0.3524  1.7109 -1.8408
 2480TIP3    H228856   0.397   1.577  17.159  1.3163 -1.2245  2.3191
 2481TIP3   OH228857   6.311   6.646  17.545  0.1623 -0.0286  0.2789
 2481TIP3    H128858   6.244   6.676  17.606  0.6878  1.9050 -0.0374
 2481TIP3    H228859   6.281   6.675  17.459  0.6690 -0.4939 -0.0655
 2482TIP3   OH228860   5.792   2.562  13.495  0.0127 -0.5004 -0.4470
 2482TIP3    H128861   5.797   2.484  13.550  0.8799 -0.4105 -0.3883
 2482TIP3    H228862   5.861   2.551  13.430 -1.0109 -0.6101 -1.5536
 2483TIP3   OH228863   3.277   2.748  14.491 -0.9664  0.2981  0.4293
 2483TIP3    H128864   3.308   2.839  14.490  1.6676 -0.5290  0.2984
 2483TIP3    H228865   3.198   2.750  14.437 -0.5519  2.3700 -0.1986
 2484TIP3   OH228866   2.492   4.446  15.224  0.1887 -0.2110 -0.2730
 2484TIP3    H128867   2.488   4.496  15.305  0.3098 -0.5866 -0.0297
 2484TIP3    H228868   2.414   4.390  15.225  0.4001 -0.5098 -0.2163
 2485TIP3   OH228869   6.417   4.219  11.685  0.4449 -0.1996 -0.5869
 2485TIP3    H128870   6.441   4.306  11.652  3.5517 -0.9264 -0.5332
 2485TIP3    H228871   6.448   4.159  11.617 -1.3981 -1.3356 -0.4863
 2486TIP3   OH228872   0.852   3.820  16.177 -0.0417  0.5380  0.6812
 2486TIP3    H128873   0.940   3.796  16.205  0.0570  0.8576  0.6487
 2486TIP3    H228874   0.805   3.737  16.169 -0.0303  0.4253  1.6571
 2487TIP3   OH228875   3.992   5.694  14.614 -0.6215 -0.6579  0.0295
 2487TIP3    H128876   4.066   5.718  14.669  0.7491 -4.8170  0.3518
 2487TIP3    H228877   4.022   5.708  14.524 -1.2954  2.0870  0.1580
 2488TIP3   OH228878   0.174   6.320  14.106 -0.1657 -0.8155 -0.5503
 2488TIP3    H128879   0.181   6.226  14.123  1.0689 -0.6687 -0.1266
 2488TIP3    H228880   0.107   6.328  14.038  0.9436 -2.1410 -1.8345
 2489TIP3   OH228881   5.824   2.446  16.238 -0.2697 -0.4056 -0.0265
 2489TIP3    H128882   5.738   2.404  16.236  0.7476 -2.8464  1.9177
 2489TIP3    H228883   5.833   2.478  16.328  0.7624  0.0404 -0.2731
 2490TIP3   OH228884   4.638   0.046  17.523 -0.1892 -0.3962 -0.1359
 2490TIP3    H128885   4.654   0.125  17.471 -0.4574 -0.1701  0.1220
 2490TIP3    H228886   4.721  -0.000  17.522  0.3871  0.5646  0.8506
 2491TIP3   OH228887   1.655   1.591   1.882 -0.5295  0.1308  0.2214
 2491TIP3    H128888   1.637   1.647   1.807 -0.3709 -1.1477 -0.8172
 2491TIP3    H228889   1.689   1.510   1.843 -1.4072 -0.9412  1.6115
 2492TIP3   OH228890   2.074   1.357  12.218 -0.3691  0.7239 -0.7298
 2492TIP3    H128891   2.095   1.270  12.183  0.5864  0.9143 -0.6484
 2492TIP3    H228892   1.982   1.370  12.196 -1.2301 -1.2918  1.2754
 2493TIP3   OH228893   4.263   3.331  12.842  0.0843  0.2064 -0.6092
 2493TIP3    H128894   4.182   3.313  12.890  1.1572  0.8631  1.6135
 2493TIP3    H228895   4.298   3.409  12.884  2.0788 -0.3001 -1.2240
 2494TIP3   OH228896   1.568   0.632  17.517  0.8954  0.0302  0.2230
 2494TIP3    H128897   1.636   0.564  17.513  1.0770  0.1962  0.4515
 2494TIP3    H228898   1.564   0.667  17.428  0.7008 -0.3761  0.0696
 2495TIP3   OH228899   4.099   6.649  12.631 -0.0511  0.2075 -0.2458
 2495TIP3    H128900   4.079   6.611  12.545 -2.7848  0.0782  0.3791
 2495TIP3    H228901   4.189   6.622  12.648  0.6748  0.4446 -3.1649
 2496TIP3   OH228902   1.247   6.276  17.171 -0.0654  0.8437 -0.1790
 2496TIP3    H128903   1.198   6.241  17.097  0.9048 -0.0980 -0.4048
 2496TIP3    H228904   1.251   6.370  17.154  0.0388  0.6572 -1.2699
 2497TIP3   OH228905   1.862   5.397  14.081  0.1189  0.0914  0.1822
 2497TIP3    H128906   1.779   5.393  14.034  1.2302 -0.4442 -1.8790
 2497TIP3    H228907   1.892   5.487  14.067  0.5967 -0.1563 -0.4290
 2498TIP3   OH228908   6.301   2.327  13.242 -0.0835 -0.3843  0.9330
 2498TIP3    H128909   6.266   2.338  13.154  1.6158  1.2819  0.3959
 2498TIP3    H228910   6.254   2.392  13.295  0.0515 -0.2599  0.8983
 2499TIP3   OH228911   6.516   0.318  12.200  0.1280 -0.4179 -0.4639
 2499TIP3    H128912   6.581   0.267  12.248  0.4644 -0.6744 -1.1822
 2499TIP3    H228913   6.532   0.408  12.229 -0.3671 -0.6755  0.6890
 2500TIP3   OH228914   1.258   5.751   3.877  0.3317 -0.2325  0.7224
 2500TIP3    H128915   1.325   5.704   3.927  0.2336 -1.2591 -0.0817
 2500TIP3    H228916   1.176   5.707   3.899 -0.1374  1.0774  1.7776
 2501TIP3   OH228917   5.566   4.723   6.174  0.7987  0.2788 -0.4459
 2501TIP3    H128918   5.527   4.810   6.175  0.4329  0.1213 -0.7216
 2501TIP3    H228919   5.659   4.739   6.159  0.9457  0.6840  0.8004
 2502TIP3   OH228920   4.356   3.493  11.364  0.0086  0.2610  0.2773
 2502TIP3    H128921   4.351   3.582  11.398 -1.1862 -0.0043  0.8727
 2502TIP3    H228922   4.370   3.503  11.270  2.4425  1.0209  0.6631
 2503TIP3   OH228923   4.123   1.022   0.546 -0.0686  0.0574 -0.3800
 2503TIP3    H128924   4.129   1.088   0.477  0.5896  1.7290  1.1906
 2503TIP3    H228925   4.063   1.061   0.611  1.4714 -0.1835  1.2754
 2504TIP3   OH228926   6.279   4.145   7.044 -0.2762  0.7765  0.3586
 2504TIP3    H128927   6.348   4.205   7.072  1.4912 -1.7345  1.8056
 2504TIP3    H228928   6.198   4.184   7.076  0.6492  2.8351  0.3693
 2505TIP3   OH228929   0.231   4.813   1.501 -0.0945  0.2349 -0.0491
 2505TIP3    H128930   0.195   4.737   1.455  1.7593  0.4230 -1.9632
 2505TIP3    H228931   0.180   4.887   1.467 -0.3939  0.0925  0.0889
 2506TIP3   OH228932   3.983   6.402  11.744 -0.5156  0.2448  0.4787
 2506TIP3    H128933   3.963   6.317  11.785  1.0424  0.0656  0.9562
 2506TIP3    H228934   4.057   6.435  11.795 -0.0312  1.1167 -0.7593
 2507TIP3   OH228935   2.681   4.384   1.745 -0.6455 -0.4107 -0.6862
 2507TIP3    H128936   2.742   4.434   1.691  0.2595 -0.4914  0.2345
 2507TIP3    H228937   2.654   4.445   1.814 -1.2849 -0.5059 -0.8462
 2508TIP3   OH228938   6.659   0.486  13.414 -0.4207 -0.0517  0.1320
 2508TIP3    H128939   6.645   0.431  13.490  1.2596 -1.3413 -0.4260
 2508TIP3    H228940   6.753   0.508  13.417 -0.5031  0.5738 -1.0949
 2509TIP3   OH228941   6.055   2.932   3.862  0.4492 -0.2574  0.2073
 2509TIP3    H128942   5.973   2.968   3.894 -0.8832 -1.8212 -1.2479
 2509TIP3    H228943   6.104   2.909   3.941 -0.2725  1.1551  1.1013
 2510TIP3   OH228944   2.743   5.833   3.657 -0.4514  0.2622  0.2086
 2510TIP3    H128945   2.761   5.757   3.602  0.8378 -0.2649  1.3148
 2510TIP3    H228946   2.712   5.900   3.595 -0.7635 -0.8571 -0.9005
 2511TIP3   OH228947   3.793   4.730   2.577 -0.3217  0.2114 -0.3474
 2511TIP3    H128948   3.858   4.791   2.544 -1.7792  3.7342  2.5348
 2511TIP3    H228949   3.790   4.747   2.671 -2.9896 -2.2828  0.1758
 2512TIP3   OH228950   6.387   2.403   5.158  0.5706  0.3550  0.0684
 2512TIP3    H128951   6.385   2.497   5.139  0.0080  0.2066 -0.6248
 2512TIP3    H228952   6.334   2.394   5.238  0.9014  0.6666  0.3247
 2513TIP3   OH228953   1.279   4.422   5.636  0.2111  0.0959 -0.4305
 2513TIP3    H128954   1.316   4.497   5.682  1.2539  0.1170 -1.2644
 2513TIP3    H228955   1.353   4.363   5.623 -0.4728 -0.8103 -0.3320
 2514TIP3   OH228956   0.015   3.457   2.554  0.0413  0.3546  0.2120
 2514TIP3    H128957  -0.049   3.389   2.574 -0.8981  0.8142 -1.1322
 2514TIP3    H228958  -0.037   3.538   2.548  0.8244  0.8338 -0.2951
 2515TIP3   OH228959   0.527   3.007  12.160 -0.1751 -0.1556 -0.5366
 2515TIP3    H128960   0.511   2.918  12.129  0.7720  0.1195 -1.9232
 2515TIP3    H228961   0.571   2.996  12.244 -2.9751 -0.9253  0.9329
 2516TIP3   OH228962   0.351   0.389  14.251  0.3548 -0.1652 -0.4797
 2516TIP3    H128963   0.345   0.484  14.256  0.9773 -0.1832  1.4947
 2516TIP3    H228964   0.416   0.372  14.183  0.2949  0.8013 -0.7958
 2517TIP3   OH228965   6.131   2.398  12.105  0.5965 -0.1915 -0.1296
 2517TIP3    H128966   6.087   2.315  12.086 -0.9148  0.4562  0.4141
 2517TIP3    H228967   6.067   2.449  12.155  1.6336  1.1590 -0.1101
 2518TIP3   OH228968   4.823   0.566   4.013  0.1484  0.5216 -0.2347
 2518TIP3    H128969   4.791   0.490   4.061  0.3938  0.1216 -0.6947
 2518TIP3    H228970   4.911   0.542   3.985  0.4398  1.1834  0.0652
 2519TIP3   OH228971   5.505   4.077   2.025 -0.1994  0.3084 -0.1073
 2519TIP3    H128972   5.449   4.026   2.084  0.3568 -0.2430 -0.0473
 2519TIP3    H228973   5.580   4.020   2.007  0.0632  0.8090 -0.6541
 2520TIP3   OH228974   3.025   6.663  16.076  0.1465  1.0932  0.1600
 2520TIP3    H128975   2.980   6.746  16.086 -1.2024  0.4063  0.0297
 2520TIP3    H228976   3.113   6.686  16.045 -0.9286  2.3844 -2.1694
 2521TIP3   OH228977   3.889   5.160   5.743 -0.1123  0.5382  0.1768
 2521TIP3    H128978   3.943   5.140   5.667  1.7905  1.0077  1.3273
 2521TIP3    H228979   3.881   5.255   5.742 -0.0234  0.5515  0.5808
 2522TIP3   OH228980   5.861   5.871   2.073  0.5114  0.0882  0.3830
 2522TIP3    H128981   5.790   5.890   2.133 -0.6560 -0.3813 -0.8137
 2522TIP3    H228982   5.846   5.781   2.044  1.7233 -0.1045  0.2678
 2523TIP3   OH228983   2.405   0.051  14.131  0.1820 -0.2437 -0.3546
 2523TIP3    H128984   2.458   0.122  14.096  0.8432 -0.1000  0.8924
 2523TIP3    H228985   2.329   0.047  14.073  0.5859  0.8625 -0.9875
 2524TIP3   OH228986   1.352   1.613   2.138  0.2320  0.3488  0.0143
 2524TIP3    H128987   1.340   1.578   2.226  1.4863  0.1535  0.1217
 2524TIP3    H228988   1.423   1.677   2.147  0.5854  0.1068 -0.9043
 2525TIP3   OH228989   5.237   1.200  14.271 -0.3755 -0.3435  0.1829
 2525TIP3    H128990   5.272   1.223  14.358 -0.2692 -0.7768  0.2557
 2525TIP3    H228991   5.310   1.156  14.227 -1.2793 -2.7877  0.9429
 2526TIP3   OH228992   1.833   5.577  12.884 -0.0667  0.2973 -0.7895
 2526TIP3    H128993   1.915   5.594  12.836  1.5112  0.6798  1.8229
 2526TIP3    H228994   1.842   5.487  12.916 -0.7128  0.3154 -0.5416
 2527TIP3   OH228995   0.156   0.382  14.956 -0.5640 -0.0504 -0.4914
 2527TIP3    H128996   0.140   0.450  15.021 -0.6547 -0.4680 -0.0752
 2527TIP3    H228997   0.251   0.382  14.943 -0.2743 -1.4240  1.2574
 2528TIP3   OH228998   6.385   3.273   0.765 -0.0974  0.7249  0.8575
 2528TIP3    H128999   6.333   3.299   0.842 -2.6404  0.1786 -0.5564
 2528TIP3    H229000   6.367   3.341   0.700 -0.2823 -0.2936 -0.1846
 2529TIP3   OH229001   6.233   4.266   0.238  0.5472 -0.3099 -0.2135
 2529TIP3    H129002   6.247   4.290   0.146 -0.0887 -0.1473 -0.2724
 2529TIP3    H229003   6.216   4.350   0.282 -0.8835 -0.5404 -0.2728
 2530TIP3   OH229004   4.073   3.642   3.413 -0.5224  0.2379 -0.0892
 2530TIP3    H129005   4.002   3.592   3.454 -0.3812 -0.4439 -0.6546
 2530TIP3    H229006   4.152   3.616   3.460 -0.2366 -1.1717 -1.2913
 2531TIP3   OH229007   3.163   1.206  13.123 -0.3468  0.7990  0.0019
 2531TIP3    H129008   3.250   1.175  13.098 -1.2999 -1.7522 -0.4918
 2531TIP3    H229009   3.108   1.183  13.048 -1.3258  3.2219 -0.0985
 2532TIP3   OH229010   3.756   5.179  13.429  0.0247  0.2175  0.5531
 2532TIP3    H129011   3.686   5.207  13.370 -0.2244 -1.9119 -0.2409
 2532TIP3    H229012   3.733   5.219  13.513 -0.3236  2.2402 -0.4347
 2533TIP3   OH229013   2.277   6.660  12.426 -0.2477  0.1405  0.3126
 2533TIP3    H129014   2.329   6.740  12.429 -0.4927  0.2704  1.3135
 2533TIP3    H229015   2.237   6.654  12.512 -2.1981  0.2574 -0.5145
 2534TIP3   OH229016   6.247   0.328  16.605 -0.0563 -0.0559 -0.3679
 2534TIP3    H129017   6.303   0.253  16.628  0.0569  0.2058  0.2414
 2534TIP3    H229018   6.204   0.302  16.524  1.1296 -0.1593 -0.9759
 2535TIP3   OH229019   1.419   3.865   3.321 -0.2293 -0.1735  1.1195
 2535TIP3    H129020   1.479   3.914   3.264  0.4235 -0.8414  1.2151
 2535TIP3    H229021   1.475   3.826   3.387 -0.8575 -0.2892  1.5943
 2536TIP3   OH229022   4.766   0.774  12.947  0.4940  0.4205 -0.4157
 2536TIP3    H129023   4.772   0.835  13.020  1.5133 -0.5421  0.3398
 2536TIP3    H229024   4.672   0.766  12.930 -0.0462 -1.3650  2.6117
 2537TIP3   OH229025   4.200   6.593  16.895 -0.6506 -0.0194 -0.3712
 2537TIP3    H129026   4.195   6.686  16.919 -1.0389  0.2896 -1.5724
 2537TIP3    H229027   4.148   6.548  16.962  0.1633  0.5270  0.6541
 2538TIP3   OH229028   5.686   4.500   3.772 -0.2043  0.5345  0.3464
 2538TIP3    H129029   5.644   4.498   3.858  0.4088  3.1225  0.7900
 2538TIP3    H229030   5.615   4.512   3.710 -0.4352  1.2122  0.7394
 2539TIP3   OH229031   0.371   6.090  17.268 -0.9151 -0.7172  0.3116
 2539TIP3    H129032   0.337   6.089  17.178  1.2538  1.4392 -0.6541
 2539TIP3    H229033   0.295   6.112  17.322 -1.6916  1.1544 -1.4076
 2540TIP3   OH229034   2.189   0.522  13.427  0.0310  0.2028 -0.0441
 2540TIP3    H129035   2.237   0.452  13.384  0.5123  0.2084  0.4793
 2540TIP3    H229036   2.235   0.602  13.401  0.1164  0.2353  0.2084
 2541TIP3   OH229037   4.358   0.505  14.442 -0.0956  0.2386  0.4774
 2541TIP3    H129038   4.359   0.595  14.474 -1.2224  0.0437  1.0798
 2541TIP3    H229039   4.448   0.474  14.453  0.1348  1.0585  0.9085
 2542TIP3   OH229040   0.905   0.707  15.606  0.1059 -0.0847 -0.5030
 2542TIP3    H129041   0.884   0.796  15.576  1.1736  0.5940  0.6525
 2542TIP3    H229042   0.872   0.704  15.696  1.3967 -0.3066 -0.0057
 2543TIP3   OH229043   5.089   5.342   2.583  0.4358  0.1764  0.3692
 2543TIP3    H129044   5.183   5.350   2.570  0.5049  0.2586  0.8789
 2543TIP3    H229045   5.068   5.411   2.646 -0.5170  2.3903 -2.1542
 2544TIP3   OH229046   6.435   5.600  12.524  0.0457 -0.0691  0.0383
 2544TIP3    H129047   6.496   5.660  12.568  0.1214  0.6044 -0.9470
 2544TIP3    H229048   6.386   5.656  12.464  0.0775 -0.9941 -0.8643
 2545TIP3   OH229049   1.589   6.263  13.839 -0.0086 -0.7916 -0.7599
 2545TIP3    H129050   1.550   6.348  13.817  0.4309 -0.4193 -0.1192
 2545TIP3    H229051   1.523   6.199  13.811 -0.9118 -0.1887 -0.0969
 2546TIP3   OH229052   2.488   6.297  15.491 -0.6054  0.4209 -0.3700
 2546TIP3    H129053   2.527   6.258  15.412 -1.3609 -1.3916  0.0861
 2546TIP3    H229054   2.421   6.357  15.457 -0.3411  0.3035 -1.1187
 2547TIP3   OH229055   4.134   0.475   6.525  0.1455 -0.2658  0.1017
 2547TIP3    H129056   4.187   0.515   6.456 -1.9552  2.1527 -0.2581
 2547TIP3    H229057   4.048   0.463   6.485 -0.6634 -0.4255  1.8185
 2548TIP3   OH229058   6.385   2.199   0.297  0.2477 -0.0572 -0.2502
 2548TIP3    H129059   6.407   2.184   0.389  0.7259 -1.3987 -0.5644
 2548TIP3    H229060   6.402   2.116   0.254  0.8829  0.7876 -1.7287
 2549TIP3   OH229061   0.432   2.598   0.420 -0.2729 -0.0161  0.5813
 2549TIP3    H129062   0.392   2.669   0.470 -0.3307 -0.6050  1.3855
 2549TIP3    H229063   0.508   2.638   0.379 -2.1269  1.4036 -1.7707
 2550TIP3   OH229064   3.221   5.914  15.638 -0.1101 -0.3879  0.5015
 2550TIP3    H129065   3.140   5.904  15.588 -0.3664 -1.2334  1.0606
 2550TIP3    H229066   3.223   5.837  15.695 -0.3906  1.1136  2.6130
 2551TIP3   OH229067   4.213   2.310   6.129  0.1075 -0.4289 -0.6166
 2551TIP3    H129068   4.225   2.373   6.200 -1.5781 -2.2851  1.4216
 2551TIP3    H229069   4.156   2.355   6.067 -1.6453 -0.1026  1.1373
 2552TIP3   OH229070   1.158   5.320   3.043 -0.0154 -0.1377 -0.6531
 2552TIP3    H129071   1.158   5.227   3.064 -1.3868 -0.6032 -2.4939
 2552TIP3    H229072   1.077   5.354   3.080  0.1630  0.1985 -0.5601
 2553TIP3   OH229073   3.823   4.893   4.566 -0.3710 -0.4614 -1.2650
 2553TIP3    H129074   3.793   4.952   4.498  1.1253  1.0558 -0.6880
 2553TIP3    H229075   3.756   4.825   4.571 -0.3711 -0.8217 -4.4439
 2554TIP3   OH229076   2.471   5.734  11.151 -0.3373 -0.0106 -0.1941
 2554TIP3    H129077   2.535   5.800  11.126  1.3983 -1.5603 -0.0745
 2554TIP3    H229078   2.449   5.754  11.242  0.7626 -0.0406  0.0865
 2555TIP3   OH229079   2.317   6.565   3.025  0.4789  0.4537  0.1868
 2555TIP3    H129080   2.363   6.512   2.959  0.2305 -0.2329  0.5660
 2555TIP3    H229081   2.256   6.505   3.067  0.0129  1.0996  0.4559
 2556TIP3   OH229082   1.959   2.004   5.201 -0.6355 -0.8135  0.4849
 2556TIP3    H129083   1.978   1.926   5.149 -0.4262  0.6881 -1.8404
 2556TIP3    H229084   2.041   2.054   5.200 -1.1150  0.0073  0.8741
 2557TIP3   OH229085   2.255   2.447  12.230  0.1357 -0.1294 -1.0763
 2557TIP3    H129086   2.189   2.497  12.183 -0.7802 -0.5354 -0.2666
 2557TIP3    H229087   2.312   2.513  12.269 -1.4143  0.3807  0.5055
 2558TIP3   OH229088   2.586   1.936   4.053 -0.1760  0.3807  0.1338
 2558TIP3    H129089   2.500   1.978   4.064 -1.2669 -1.3852 -1.2133
 2558TIP3    H229090   2.625   1.980   3.978  0.2013  1.2899  0.8393
 2559TIP3   OH229091   6.298   4.084  15.856  0.2644 -0.5063  0.1467
 2559TIP3    H129092   6.215   4.123  15.885  0.2298  0.1198 -0.7519
 2559TIP3    H229093   6.285   3.990  15.864 -0.4949 -0.4067  0.1178
 2560TIP3   OH229094   2.107   2.501  11.345 -0.5944 -0.3209 -0.0246
 2560TIP3    H129095   2.030   2.532  11.297  0.1487  0.2562 -0.8694
 2560TIP3    H229096   2.128   2.417  11.305 -0.3182 -0.1043 -0.3476
 2561TIP3   OH229097   2.754   1.519   0.252  0.3967  0.4476  0.3758
 2561TIP3    H129098   2.720   1.486   0.169 -0.7278 -0.3457  1.1142
 2561TIP3    H229099   2.722   1.456   0.317  4.0714 -0.9057  1.0932
 2562TIP3   OH229100   6.632   2.001  11.459 -0.1171 -0.6454  0.1044
 2562TIP3    H129101   6.685   1.929  11.494  0.1024 -0.3501  0.3740
 2562TIP3    H229102   6.561   1.956  11.411  0.2268 -1.0395 -0.0455
 2563TIP3   OH229103   1.831   4.305  13.769 -0.2399 -0.5954  0.1086
 2563TIP3    H129104   1.783   4.351  13.838 -0.3958  1.5220 -1.3238
 2563TIP3    H229105   1.872   4.231  13.814 -1.5424 -0.1521  2.1551
 2564TIP3   OH229106   3.529   3.398   2.395 -0.2678 -0.2043  0.3059
 2564TIP3    H129107   3.585   3.325   2.421 -0.7240 -1.0158 -0.8973
 2564TIP3    H229108   3.445   3.358   2.372 -0.6989  0.7552  0.1270
 2565TIP3   OH229109   6.386   0.867   4.850 -0.2643 -0.0395  0.3832
 2565TIP3    H129110   6.424   0.917   4.778  1.6472 -2.3855 -0.3715
 2565TIP3    H229111   6.451   0.871   4.920  0.3817 -2.1195 -0.0255
 2566TIP3   OH229112   0.654   4.043   6.328 -0.6509 -0.2181 -0.3806
 2566TIP3    H129113   0.665   4.129   6.286 -1.7087  0.0487 -0.1506
 2566TIP3    H229114   0.737   4.028   6.373 -0.1325  0.2828 -1.1428
 2567TIP3   OH229115   4.720   6.641   4.841  0.0613  0.4611  0.0433
 2567TIP3    H129116   4.659   6.575   4.874 -1.3937  1.6251 -0.2449
 2567TIP3    H229117   4.666   6.717   4.822  1.6058  1.5350 -0.2614
 2568TIP3   OH229118   0.636   0.593   0.880 -0.6038 -0.1605  0.4062
 2568TIP3    H129119   0.726   0.607   0.853 -1.3746  1.2592 -1.6758
 2568TIP3    H229120   0.628   0.498   0.890  0.5276 -0.5410 -1.7225
 2569TIP3   OH229121   0.249   0.113  11.881 -0.4314 -0.4128 -0.3645
 2569TIP3    H129122   0.196   0.178  11.927 -1.5449 -1.3507 -0.2702
 2569TIP3    H229123   0.332   0.157  11.865 -0.9228  0.8042  0.2733
 2570TIP3   OH229124   5.822   0.511   0.701 -0.6167  0.5626 -0.3064
 2570TIP3    H129125   5.755   0.464   0.750 -0.6472  0.6848 -0.2306
 2570TIP3    H229126   5.774   0.556   0.632 -0.4237 -0.7320 -1.3252
 2571TIP3   OH229127   0.739   0.604   5.887 -0.2667  0.2209 -0.1801
 2571TIP3    H129128   0.736   0.549   5.965 -0.4939  2.1940  1.2800
 2571TIP3    H229129   0.662   0.579   5.837  0.7595 -2.2376 -0.6771
 2572TIP3   OH229130   6.306   0.558   4.516  0.5640  0.1354 -0.0161
 2572TIP3    H129131   6.263   0.583   4.597  1.6484 -1.0120  0.9362
 2572TIP3    H229132   6.367   0.489   4.540  2.9157  1.6160 -1.3072
 2573TIP3   OH229133   0.115   4.718  11.233  0.0579 -0.4549 -0.5078
 2573TIP3    H129134   0.059   4.758  11.166 -1.4132 -2.0364 -0.2868
 2573TIP3    H229135   0.076   4.633  11.249  2.4113 -1.5326 -0.1193
 2574TIP3   OH229136   0.533   4.134   3.004  0.5991  0.4881  0.3689
 2574TIP3    H129137   0.500   4.224   3.004 -0.6248  0.0626  0.4036
 2574TIP3    H229138   0.559   4.119   2.913 -0.3990  0.4670  0.0769
 2575TIP3   OH229139   1.571   3.164  12.793 -0.1553  0.0202  0.5581
 2575TIP3    H129140   1.523   3.210  12.724 -0.1030  1.1991  1.2830
 2575TIP3    H229141   1.558   3.071  12.774 -2.8078  0.2890  0.7930
 2576TIP3   OH229142   1.199   4.562  14.021 -0.2648  0.0502 -0.5110
 2576TIP3    H129143   1.268   4.551  14.086 -0.8677 -0.3318  0.0823
 2576TIP3    H229144   1.157   4.476  14.016 -1.3877  0.5548 -0.0542
 2577TIP3   OH229145   4.143   6.652  17.387 -0.2463  0.1751 -0.3383
 2577TIP3    H129146   4.079   6.660  17.458  0.8802  0.8861  0.6316
 2577TIP3    H229147   4.140   6.737  17.343  0.7071  0.5875  0.3415
 2578TIP3   OH229148   0.901   1.015   3.193  0.5868  0.1442 -0.0668
 2578TIP3    H129149   0.914   1.048   3.282 -1.0990 -0.7849  0.5875
 2578TIP3    H229150   0.867   1.090   3.144  2.5524  0.9616 -0.2716
 2579TIP3   OH229151   0.924   0.153  12.766 -0.0871  0.4717  1.1029
 2579TIP3    H129152   0.927   0.181  12.675 -0.5154  1.0371  1.2587
 2579TIP3    H229153   0.948   0.060  12.763  0.0442  0.5227  0.4340
 2580TIP3   OH229154   3.713   2.961   3.308  0.1775 -0.4200 -0.4232
 2580TIP3    H129155   3.806   2.983   3.303  0.2197 -0.6680 -0.7637
 2580TIP3    H229156   3.671   3.019   3.246  0.0940 -0.2524 -0.2096
 2581TIP3   OH229157   0.645   1.710  15.366  0.1204 -0.5423 -0.7240
 2581TIP3    H129158   0.619   1.726  15.275  0.8452 -0.8199 -0.9857
 2581TIP3    H229159   0.604   1.626  15.388  0.3138 -0.6938 -0.9413
 2582TIP3   OH229160   5.757   2.866   0.155  0.1521  0.4346 -0.2145
 2582TIP3    H129161   5.744   2.910   0.239 -0.6366 -2.4904  1.3372
 2582TIP3    H229162   5.780   2.936   0.095  1.0022  2.6556  2.4652
 2583TIP3   OH229163   2.461   1.080  16.418  0.4527  0.1240  0.1295
 2583TIP3    H129164   2.372   1.100  16.447  0.0551 -2.0589  0.5425
 2583TIP3    H229165   2.477   1.142  16.347 -1.5162  0.3299 -0.1839
 2584TIP3   OH229166   4.405   5.297  13.166 -0.1081  0.0426 -0.6144
 2584TIP3    H129167   4.379   5.242  13.240 -0.2638  0.2286 -0.5305
 2584TIP3    H229168   4.413   5.384  13.203 -1.5021  0.4041 -1.0756
 2585TIP3   OH229169   5.083   0.656  14.476 -0.2567  0.0341  0.4410
 2585TIP3    H129170   5.172   0.689  14.464 -0.1711 -0.4163 -0.1986
 2585TIP3    H229171   5.029   0.734  14.483  0.1315  0.3085  0.4006
 2586TIP3   OH229172   3.706   4.070  16.148 -0.4134  0.1107  0.0293
 2586TIP3    H129173   3.691   3.985  16.190 -0.6316  0.3489  0.4464
 2586TIP3    H229174   3.625   4.090  16.102 -1.1656  1.0413  1.6462
 2587TIP3   OH229175   5.831   6.288  14.088 -0.0423  0.2048  0.2084
 2587TIP3    H129176   5.840   6.236  14.168  0.5670  0.2965  0.2064
 2587TIP3    H229177   5.786   6.230  14.026  0.3219 -0.2084  0.3185
 2588TIP3   OH229178   3.326   6.125  15.473  0.2443 -0.9118 -0.3358
 2588TIP3    H129179   3.322   6.061  15.544  0.0699  0.8837  1.3540
 2588TIP3    H229180   3.377   6.198  15.509  0.8814 -0.2839 -2.3691
 2589TIP3   OH229181   2.228   6.049   4.383  0.7620 -0.1450 -0.4451
 2589TIP3    H129182   2.290   6.065   4.455  1.5054 -2.5981 -0.4641
 2589TIP3    H229183   2.194   5.961   4.399 -1.5753  0.5367 -1.3217
 2590TIP3   OH229184   5.601   5.348  16.652  0.0604 -0.0627 -0.3822
 2590TIP3    H129185   5.692   5.340  16.625 -0.1999  0.7942 -1.5743
 2590TIP3    H229186   5.554   5.286  16.596 -0.3605  1.0853 -1.3578
 2591TIP3   OH229187   3.527   6.434   5.821  0.3864  0.1793  0.0126
 2591TIP3    H129188   3.605   6.427   5.765 -0.8380 -0.5576 -1.6785
 2591TIP3    H229189   3.481   6.511   5.789 -0.0630  0.0714  0.3869
 2592TIP3   OH229190   3.638   0.146   4.788 -0.3837  0.2519 -0.7999
 2592TIP3    H129191   3.671   0.220   4.737 -1.4572  1.7178  0.5169
 2592TIP3    H229192   3.653   0.171   4.879 -2.3349 -0.3458 -0.2587
 2593TIP3   OH229193   3.891   5.891  12.486  0.2017 -0.2847 -0.0635
 2593TIP3    H129194   3.797   5.885  12.502  0.3672 -0.9269  0.7893
 2593TIP3    H229195   3.931   5.848  12.562  1.1008 -2.5103 -1.6534
 2594TIP3   OH229196   3.746   4.232   3.051 -0.4617 -0.0749  1.0057
 2594TIP3    H129197   3.670   4.288   3.066 -0.3874 -0.2529  2.0977
 2594TIP3    H229198   3.817   4.293   3.031 -0.1049  0.3380  3.3111
 2595TIP3   OH229199   2.596   6.124   1.291 -0.0276  0.1549 -0.3246
 2595TIP3    H129200   2.554   6.065   1.353  0.9713 -0.1347  0.0911
 2595TIP3    H229201   2.689   6.123   1.315 -0.0646  2.4760  0.1779
 2596TIP3   OH229202   2.788   4.724  11.768 -0.2905 -0.4598 -0.1604
 2596TIP3    H129203   2.842   4.648  11.743  2.0758  0.9302  0.4101
 2596TIP3    H229204   2.763   4.707  11.858  0.8267 -0.2935  0.2005
 2597TIP3   OH229205   6.456   1.362  14.950  0.0733 -0.2972  0.0383
 2597TIP3    H129206   6.517   1.424  14.991  0.1226 -0.2500 -0.1070
 2597TIP3    H229207   6.370   1.390  14.982  0.0768 -0.0385 -0.1731
 2598TIP3   OH229208   3.266   0.743  15.218  0.3303  0.5616 -0.0719
 2598TIP3    H129209   3.348   0.768  15.262 -0.2381  2.8830 -0.2129
 2598TIP3    H229210   3.289   0.742  15.125  0.4175  0.1924 -0.0504
 2599TIP3   OH229211   5.770   3.711  12.786  0.1327 -0.6829 -0.4093
 2599TIP3    H129212   5.761   3.719  12.691  0.2420 -0.2293 -0.3853
 2599TIP3    H229213   5.862   3.733  12.803 -0.3390  1.1612 -0.0221
 2600TIP3   OH229214   2.885   4.523   1.932  0.1395  0.6159  0.6114
 2600TIP3    H129215   2.868   4.532   1.838 -1.1349 -1.0787  0.6290
 2600TIP3    H229216   2.817   4.576   1.974 -0.9462 -0.6992  0.5793
 2601TIP3   OH229217   4.020   4.244   0.134  0.0210 -0.4741  0.1785
 2601TIP3    H129218   3.942   4.297   0.151 -0.2987 -1.1379  0.8284
 2601TIP3    H229219   4.033   4.248   0.039  0.9885  2.1544  0.3261
 2602TIP3   OH229220   1.983   0.445   2.868  0.0008 -0.3145 -0.2196
 2602TIP3    H129221   1.911   0.487   2.915 -0.0409 -1.3170  0.6490
 2602TIP3    H229222   1.983   0.487   2.782 -2.3835 -1.1183 -0.6724
 2603TIP3   OH229223   3.346   5.212  13.707  0.2527  0.8141 -0.0166
 2603TIP3    H129224   3.401   5.235  13.782 -0.3123 -2.7815  1.6795
 2603TIP3    H229225   3.257   5.208  13.742 -0.2660  0.6367 -1.2876
 2604TIP3   OH229226   2.501   4.133  16.333 -0.3632 -0.2920  0.4422
 2604TIP3    H129227   2.545   4.188  16.397 -0.3562  1.6192 -1.1039
 2604TIP3    H229228   2.547   4.151  16.251  0.2330 -3.3486 -0.0026
 2605TIP3   OH229229   1.936   6.474   3.675  0.1567 -0.4591 -0.2174
 2605TIP3    H129230   1.916   6.523   3.755 -0.8771 -0.9588 -0.1568
 2605TIP3    H229231   1.992   6.402   3.704  4.5406  2.3439 -0.7199
 2606TIP3   OH229232   1.412   6.089   1.539 -0.4580 -0.2470 -0.0100
 2606TIP3    H129233   1.360   6.167   1.558 -0.4793 -0.2905  0.1140
 2606TIP3    H229234   1.468   6.114   1.466  0.4433  0.2873  0.8424
 2607TIP3   OH229235   4.890   1.900  11.617  0.2908 -0.4977 -0.6451
 2607TIP3    H129236   4.904   1.983  11.662  1.7627 -1.3610  0.5634
 2607TIP3    H229237   4.853   1.842  11.684  1.8836 -1.6048 -0.6721
 2608TIP3   OH229238   4.297   4.516  16.485 -0.3939  0.4134 -0.3986
 2608TIP3    H129239   4.387   4.490  16.505 -0.5747  0.6209  0.7649
 2608TIP3    H229240   4.269   4.454  16.417 -0.3073 -1.5069  1.2197
 2609TIP3   OH229241   6.400   0.719  14.648  0.0548  0.2542 -0.2370
 2609TIP3    H129242   6.426   0.801  14.606  2.6137 -1.2760 -1.9576
 2609TIP3    H229243   6.453   0.716  14.728 -0.3106  0.4311  0.0140
 2610TIP3   OH229244   4.923   0.546   2.742  0.9636 -0.6677 -0.8032
 2610TIP3    H129245   4.971   0.501   2.811 -2.2818 -0.3465  1.9099
 2610TIP3    H229246   4.831   0.530   2.762 -0.2240  0.6196 -4.3353
 2611TIP3   OH229247   4.065   4.293   4.242  0.3801 -0.1212 -0.2235
 2611TIP3    H129248   4.152   4.330   4.259  0.5455 -0.5272 -0.1588
 2611TIP3    H229249   4.073   4.202   4.270 -0.0915 -0.1403 -0.1495
 2612TIP3   OH229250   2.295   3.015   5.598 -0.1476  0.0100  0.0625
 2612TIP3    H129251   2.378   3.045   5.635 -0.3008  0.8322 -0.2548
 2612TIP3    H229252   2.296   2.920   5.613  0.3940  0.1431  0.9543
 2613TIP3   OH229253   4.226   6.047   2.176 -0.5335  0.4082  0.3861
 2613TIP3    H129254   4.299   6.067   2.117  0.2010  2.1735  1.8116
 2613TIP3    H229255   4.198   6.132   2.210  0.0700 -0.5760  3.7095
 2614TIP3   OH229256   6.308   1.150   2.844 -0.0315  0.5014  0.1690
 2614TIP3    H129257   6.353   1.135   2.761 -0.6606 -0.0449 -0.0824
 2614TIP3    H229258   6.255   1.228   2.830 -0.5847  0.0765 -0.1383
 2615TIP3   OH229259   3.545   5.874   1.747  0.0189  0.2110 -0.2774
 2615TIP3    H129260   3.515   5.822   1.673 -1.5336  0.3210  0.2372
 2615TIP3    H229261   3.545   5.813   1.821  0.6257  0.3323 -0.1735
 2616TIP3   OH229262   2.534   0.897  12.649  0.6606 -0.2143  0.2943
 2616TIP3    H129263   2.599   0.959  12.682  0.5315 -0.7758  1.6411
 2616TIP3    H229264   2.559   0.812  12.686 -0.7998 -0.4563  0.8200
 2617TIP3   OH229265   1.106   1.999  14.183  0.2788 -0.4016  0.3182
 2617TIP3    H129266   1.029   1.995  14.241 -0.2010  1.0303 -0.1854
 2617TIP3    H229267   1.072   1.974  14.097  0.6615 -1.0041  0.3356
 2618TIP3   OH229268   0.518   2.908   4.186  0.0258 -0.3594  0.0722
 2618TIP3    H129269   0.588   2.875   4.242  0.6095  0.0573 -0.3918
 2618TIP3    H229270   0.488   2.831   4.137  0.9971 -0.3294 -0.5997
 2619TIP3   OH229271   4.599   5.849   4.035  0.1371  0.1246 -0.1973
 2619TIP3    H129272   4.644   5.916   4.086 -1.7165  1.8574 -0.6790
 2619TIP3    H229273   4.525   5.896   3.995 -2.3921 -2.5698  0.9319
 2620TIP3   OH229274   0.167   5.324   2.536 -0.0453 -0.5584 -0.6671
 2620TIP3    H129275   0.207   5.276   2.463 -1.3321 -0.7646 -1.2635
 2620TIP3    H229276   0.113   5.259   2.580  0.9202 -0.4971  0.6515
 2621TIP3   OH229277   3.184   0.348   6.268  0.3912  0.7377 -0.0984
 2621TIP3    H129278   3.211   0.438   6.248  1.9664  0.0883 -1.1330
 2621TIP3    H229279   3.255   0.314   6.322  0.8752 -0.5001 -1.4321
 2622TIP3   OH229280   6.192   2.862   2.850  0.3609 -0.2259 -0.1236
 2622TIP3    H129281   6.207   2.912   2.769 -1.2350 -0.7108 -0.7371
 2622TIP3    H229282   6.173   2.929   2.916  1.8137  0.1832 -0.0677
 2623TIP3   OH229283   0.970   2.467   5.331 -0.7651  0.1341 -0.4034
 2623TIP3    H129284   0.997   2.498   5.417 -0.7933 -0.4603 -0.1750
 2623TIP3    H229285   0.920   2.387   5.349 -0.2308 -0.3480 -1.0122
 2624TIP3   OH229286   5.188   3.783   4.274  0.3085 -0.0840  0.0165
 2624TIP3    H129287   5.093   3.795   4.284  0.4653  0.8865  0.4692
 2624TIP3    H229288   5.211   3.718   4.341 -0.4350 -2.4801 -1.9173
 2625TIP3   OH229289   5.791   4.868  14.213  0.0331 -0.1296  0.4166
 2625TIP3    H129290   5.881   4.897  14.230  0.1784 -0.3400  0.0296
 2625TIP3    H229291   5.798   4.774  14.202 -0.3737 -0.2616  1.2443
 2626TIP3   OH229292   5.368   6.317  16.579 -0.2563 -0.3140 -0.6108
 2626TIP3    H129293   5.314   6.361  16.514 -0.7172 -2.5626 -1.8099
 2626TIP3    H229294   5.428   6.263  16.528  1.1149 -0.1807  0.7876
 2627TIP3   OH229295   2.092   4.306  17.179 -0.6780 -0.0619 -0.0912
 2627TIP3    H129296   2.105   4.211  17.175  1.0427 -0.0442  2.3853
 2627TIP3    H229297   2.034   4.319  17.254 -1.4294  0.8248 -0.8095
 2628TIP3   OH229298   4.690   5.911   1.573  0.4032  0.2009 -0.0985
 2628TIP3    H129299   4.605   5.898   1.615 -0.0561  1.6568 -0.5362
 2628TIP3    H229300   4.753   5.910   1.645 -0.2004  1.0483  0.4560
 2629TIP3   OH229301   1.360   2.239  17.131  0.3606  0.2163 -0.6840
 2629TIP3    H129302   1.379   2.331  17.146  1.0404  0.0009 -0.1869
 2629TIP3    H229303   1.293   2.218  17.196  1.8893 -0.2136  0.8339
 2630TIP3   OH229304   3.341   5.981   4.343 -0.0201 -0.0736 -0.2819
 2630TIP3    H129305   3.326   6.043   4.272 -0.3208  0.1920  0.0113
 2630TIP3    H229306   3.408   6.022   4.397  1.7302 -1.1681 -1.4827
 2631TIP3   OH229307   0.884   3.896  15.628 -0.1263  0.3229  0.4008
 2631TIP3    H129308   0.821   3.844  15.577  0.7556  1.0437 -1.5226
 2631TIP3    H229309   0.912   3.837  15.698 -1.2924 -0.7837 -0.0259
 2632TIP3   OH229310   4.251   0.121  15.937 -0.3706  0.8772  0.0375
 2632TIP3    H129311   4.281   0.065  15.866 -0.5265  2.3588 -1.2616
 2632TIP3    H229312   4.312   0.103  16.009  0.9444  0.6695 -1.0864
 2633TIP3   OH229313   3.040   2.733   0.439  0.3892 -0.0835  0.1377
 2633TIP3    H129314   2.991   2.804   0.396  1.0963 -0.2454 -0.9644
 2633TIP3    H229315   2.972   2.676   0.476 -0.4593 -1.5877 -3.3529
 2634TIP3   OH229316   4.201   3.447   1.907 -0.7939 -0.1928  0.0278
 2634TIP3    H129317   4.182   3.533   1.871  0.2016  0.6620  1.4433
 2634TIP3    H229318   4.144   3.439   1.983 -2.1100 -1.5289 -1.0419
 2635TIP3   OH229319   1.154   0.283  12.838 -0.3859 -0.9453 -0.4723
 2635TIP3    H129320   1.108   0.367  12.835 -0.7578 -1.1284  0.0312
 2635TIP3    H229321   1.084   0.217  12.840 -0.1220 -1.2157  0.6575
 2636TIP3   OH229322   1.486   5.430  16.184  0.2900  0.1554 -0.0925
 2636TIP3    H129323   1.565   5.480  16.162 -0.2748  0.4571 -1.5806
 2636TIP3    H229324   1.441   5.484  16.248  0.8187  0.4485  0.0393
 2637TIP3   OH229325   2.060   5.109  14.147 -0.3876 -0.1304  0.7450
 2637TIP3    H129326   1.993   5.153  14.199 -0.5549 -0.0623  0.4731
 2637TIP3    H229327   2.078   5.028  14.194 -1.6919 -0.8283  0.0676
 2638TIP3   OH229328   5.179   3.584  16.192 -0.3909 -0.0978  0.3987
 2638TIP3    H129329   5.115   3.541  16.134 -1.3921  2.9630 -1.0128
 2638TIP3    H229330   5.125   3.631  16.256  0.6477 -1.0189  2.0194
 2639TIP3   OH229331   1.558   5.591  12.810 -0.3362 -0.3655 -0.6227
 2639TIP3    H129332   1.646   5.554  12.808  0.7262  1.8992  0.5885
 2639TIP3    H229333   1.524   5.567  12.896  0.0580  0.7290 -0.1420
 2640TIP3   OH229334   0.127   3.573   5.374 -0.7377  0.3393 -0.0510
 2640TIP3    H129335   0.189   3.644   5.362 -0.2264 -0.1758 -0.5369
 2640TIP3    H229336   0.076   3.597   5.452  0.0219  0.7935  0.3088
 2641TIP3   OH229337   0.173   4.623   3.580  0.6660 -0.1716 -0.9870
 2641TIP3    H129338   0.237   4.677   3.533  1.3576  1.0198  1.1783
 2641TIP3    H229339   0.113   4.686   3.619 -0.8770 -1.2104 -1.5986
 2642TIP3   OH229340   1.081   6.404  13.122 -0.0205  0.2951 -0.0651
 2642TIP3    H129341   1.156   6.396  13.062  0.2989 -1.2055  0.5060
 2642TIP3    H229342   1.078   6.321  13.168 -1.4759  0.6978  0.6137
 2643TIP3   OH229343   5.211   2.061  14.653 -0.1267 -0.0126  0.0345
 2643TIP3    H129344   5.200   2.103  14.738  1.4926 -0.1933  0.3760
 2643TIP3    H229345   5.278   2.114  14.609  1.1141 -1.5305  0.0198
 2644TIP3   OH229346   3.024   1.956   4.579 -0.1778 -0.3420 -0.0460
 2644TIP3    H129347   3.078   1.879   4.597 -0.6574 -0.7489 -0.3344
 2644TIP3    H229348   2.943   1.940   4.627 -0.2665  0.0016 -0.0784
 2645TIP3   OH229349   2.927   2.982   6.283 -0.2768  0.1328  0.3385
 2645TIP3    H129350   2.852   3.024   6.325  0.3903  0.5157  1.1836
 2645TIP3    H229351   2.990   2.968   6.354  1.5977  2.2880 -0.7584
 2646TIP3   OH229352   4.975   5.977   6.184  0.0228  0.0035 -0.5269
 2646TIP3    H129353   4.995   5.893   6.144  1.5920 -0.6661  1.4909
 2646TIP3    H229354   4.916   6.020   6.122 -1.4215 -2.8516 -1.2972
 2647TIP3   OH229355   1.310   3.967   6.580  0.1258  0.2564 -0.5669
 2647TIP3    H129356   1.272   4.032   6.639  1.2161 -0.3370  0.8475
 2647TIP3    H229357   1.398   4.000   6.560 -0.7290  1.2362 -3.1936
 2648TIP3   OH229358   4.258   0.696   6.682 -0.0097  0.2379  0.1505
 2648TIP3    H129359   4.322   0.669   6.749  0.4716  0.6111 -0.1524
 2648TIP3    H229360   4.231   0.613   6.642 -1.1941 -0.1174  1.5705
 2649TIP3   OH229361   3.615   3.384  13.032  0.2938  0.8231  0.1717
 2649TIP3    H129362   3.521   3.393  13.048  0.3705  0.8941  0.5825
 2649TIP3    H229363   3.637   3.297  13.066 -0.0041 -0.0492 -1.7312
 2650TIP3   OH229364   5.653   4.072  10.886 -0.9635  0.1651  0.0529
 2650TIP3    H129365   5.608   4.095  10.805  1.9774 -0.6873 -1.9716
 2650TIP3    H229366   5.693   4.155  10.915 -1.5714  0.3560  0.3645
 2651TIP3   OH229367   3.332   2.652   4.562  0.3396  0.6755  0.1690
 2651TIP3    H129368   3.352   2.679   4.472 -1.6347  0.3717 -0.4048
 2651TIP3    H229369   3.242   2.620   4.558  0.5118 -0.1761  2.0943
 2652TIP3   OH229370   2.964   2.019   1.939 -0.5676 -0.1890 -0.0670
 2652TIP3    H129371   2.919   2.028   1.855 -2.3183 -1.1633  0.7135
 2652TIP3    H229372   3.022   2.095   1.943  0.3382 -0.6467 -2.5876
 2653TIP3   OH229373   0.715   2.664   1.570  0.0729 -0.2220  0.3868
 2653TIP3    H129374   0.780   2.733   1.561 -1.4157  1.2329  0.3210
 2653TIP3    H229375   0.685   2.671   1.661 -2.0817  1.1273 -0.3700
 2654TIP3   OH229376   4.532   5.299  16.858  0.2926 -0.7797  0.3429
 2654TIP3    H129377   4.495   5.356  16.791  1.0625  0.6313  1.0700
 2654TIP3    H229378   4.491   5.214  16.842  0.9248 -0.6857 -2.3139
 2655TIP3   OH229379   0.688   4.374  13.186 -0.1076 -0.6512 -0.4576
 2655TIP3    H129380   0.744   4.405  13.115 -1.6641  1.0345 -1.0295
 2655TIP3    H229381   0.683   4.280  13.173  0.6278 -0.5298 -1.8394
 2656TIP3   OH229382   0.366   1.387   4.200 -0.4839 -0.6546 -0.1013
 2656TIP3    H129383   0.337   1.340   4.278 -0.4920  1.1068  1.0194
 2656TIP3    H229384   0.461   1.390   4.207 -0.4343 -1.0775 -0.5326
 2657TIP3   OH229385   4.658   3.165  15.259  0.2350  0.0904 -0.2237
 2657TIP3    H129386   4.574   3.120  15.265  1.4423 -2.2042  0.5651
 2657TIP3    H229387   4.638   3.256  15.283 -1.7627 -0.7216  1.5402
 2658TIP3   OH229388   2.585   4.131   1.744 -0.0163  0.5017  0.2017
 2658TIP3    H129389   2.648   4.204   1.749  0.1516  0.4989 -1.5084
 2658TIP3    H229390   2.617   4.076   1.673 -0.6279 -0.8157  0.9118
 2659TIP3   OH229391   0.322   6.574   2.959 -0.1599  0.0353  0.6977
 2659TIP3    H129392   0.326   6.481   2.980 -0.6396  0.1977  1.5807
 2659TIP3    H229393   0.304   6.617   3.043 -0.7423  0.8551  0.1748
 2660TIP3   OH229394   0.960   0.039  15.787  0.0607 -0.1975  0.4241
 2660TIP3    H129395   0.895   0.041  15.858  1.9384  1.5987  2.1962
 2660TIP3    H229396   0.999  -0.048  15.794  1.7298  0.6534  3.1535
 2661TIP3   OH229397   3.605   1.143   4.888 -0.1276  0.2777  0.1627
 2661TIP3    H129398   3.692   1.103   4.889 -0.4823 -0.4828  0.9701
 2661TIP3    H229399   3.620   1.231   4.853  0.7503 -0.3272 -1.0463
 2662TIP3   OH229400   6.200   2.208  15.042  0.1988  0.1110 -0.0012
 2662TIP3    H129401   6.202   2.232  14.949 -0.5442  0.3892  0.0447
 2662TIP3    H229402   6.228   2.287  15.088 -0.4295  0.3102  0.0544
 2663TIP3   OH229403   3.013   3.074   3.708 -0.0671  0.3626  0.2584
 2663TIP3    H129404   2.939   3.094   3.765 -0.7661  1.5787 -1.0195
 2663TIP3    H229405   3.053   3.159   3.690  0.4258 -0.0556 -0.6686
 2664TIP3   OH229406   2.395   5.949   5.380 -0.6104 -0.1860  0.0814
 2664TIP3    H129407   2.306   5.925   5.404 -0.9490  0.3573 -0.6104
 2664TIP3    H229408   2.389   6.039   5.351  0.3785  0.2443  1.1260
 2665TIP3   OH229409   5.354   3.369   4.216  0.2853  0.0502 -0.3862
 2665TIP3    H129410   5.390   3.299   4.160 -1.4421  0.9725 -2.8100
 2665TIP3    H229411   5.260   3.354   4.215  0.1575  0.2406  2.2355
 2666TIP3   OH229412   2.311   2.548   1.682  0.1563  0.0470  0.5810
 2666TIP3    H129413   2.299   2.458   1.653 -0.0056 -0.4890  2.2429
 2666TIP3    H229414   2.365   2.541   1.760 -0.4726  1.3367  1.1549
 2667TIP3   OH229415   4.523   3.572  10.750 -0.5422 -0.1641 -0.7786
 2667TIP3    H129416   4.446   3.622  10.722 -0.7601  0.2814  0.5390
 2667TIP3    H229417   4.487   3.491  10.786 -0.3963 -0.0280 -0.3152
 2668TIP3   OH229418   2.881   1.074  17.045 -0.7149 -0.3164  0.1358
 2668TIP3    H129419   2.813   1.130  17.006  0.3442  0.2262 -0.9962
 2668TIP3    H229420   2.920   1.128  17.113 -0.4329 -0.0881 -0.2078
 2669TIP3   OH229421   1.290   0.804  10.936  0.2803 -0.0146  0.3064
 2669TIP3    H129422   1.235   0.745  10.987 -1.5038  0.6206 -0.8014
 2669TIP3    H229423   1.257   0.891  10.955 -0.0759  0.2747 -1.4687
 2670TIP3   OH229424   2.540   4.008   2.998 -0.0780 -0.1047 -0.3242
 2670TIP3    H129425   2.593   3.956   2.938  0.1752 -0.4039  0.1463
 2670TIP3    H229426   2.542   3.959   3.080 -0.8104  0.0579 -0.2050
 2671TIP3   OH229427   1.339   5.904  16.322  0.7780 -0.2955 -0.0180
 2671TIP3    H129428   1.369   5.813  16.327  1.6599  0.0424  1.4822
 2671TIP3    H229429   1.419   5.954  16.304  0.4920  0.2746  0.2709
 2672TIP3   OH229430   2.883   3.192   1.646  0.1765 -0.1774  0.5957
 2672TIP3    H129431   2.874   3.285   1.670 -2.1154 -0.4371  1.0460
 2672TIP3    H229432   2.942   3.192   1.571  0.2602  1.6454  0.6075
 2673TIP3   OH229433   6.053   0.866  13.853 -0.3210 -0.3441 -0.4432
 2673TIP3    H129434   6.092   0.821  13.777 -2.0884 -0.6408 -1.2352
 2673TIP3    H229435   5.958   0.854  13.841 -0.7046  1.0845  0.9215
 2674TIP3   OH229436   0.148   3.887   2.054  0.0716 -0.4407  0.1315
 2674TIP3    H129437   0.139   3.822   2.123  0.8464 -1.7474 -0.9482
 2674TIP3    H229438   0.087   3.858   1.986  1.3095 -0.7583 -0.8702
 2675TIP3   OH229439   2.074   5.149   0.436  0.3544  0.5147 -0.2664
 2675TIP3    H129440   2.054   5.227   0.487 -1.0640  0.8713 -1.2927
 2675TIP3    H229441   2.071   5.178   0.345 -0.0772 -0.6869 -0.6609
 2676TIP3   OH229442   1.447   5.729  12.034  0.6501 -0.1133  0.3888
 2676TIP3    H129443   1.421   5.723  12.126  1.5285 -2.1389  0.5655
 2676TIP3    H229444   1.415   5.814  12.005 -1.0447 -0.0923  2.1328
 2677TIP3   OH229445   2.049   1.417   2.209 -0.0535 -0.4276 -0.2404
 2677TIP3    H129446   2.143   1.431   2.210  0.1908 -1.9095 -0.5472
 2677TIP3    H229447   2.027   1.397   2.300 -0.0960  0.0536 -0.1441
 2678TIP3   OH229448   2.093   6.322   0.577  0.1170 -0.3673 -0.5667
 2678TIP3    H129449   2.178   6.354   0.607  0.8374 -2.0253 -0.7229
 2678TIP3    H229450   2.032   6.392   0.598  1.3817  0.5074  0.3264
 2679TIP3   OH229451   2.116   5.397   4.958  0.2704 -0.3923  0.2003
 2679TIP3    H129452   2.023   5.385   4.975  0.6655 -0.9709  2.1658
 2679TIP3    H229453   2.119   5.452   4.879 -1.7504  1.7390  1.4938
 2680TIP3   OH229454   5.438   0.124   1.157  0.2289 -0.3698 -0.0887
 2680TIP3    H129455   5.517   0.176   1.172  0.8096 -0.9185 -1.1760
 2680TIP3    H229456   5.460   0.037   1.190  0.3664 -0.7255 -1.0803
 2681TIP3   OH229457   4.256   5.910  17.341  0.3529 -0.0316  0.2573
 2681TIP3    H129458   4.266   5.970  17.267  2.2400 -1.5807 -0.8387
 2681TIP3    H229459   4.283   5.961  17.417  1.4533  0.7020 -0.5878
 2682TIP3   OH229460   0.171   5.250  16.012 -0.4851 -0.5302  0.1782
 2682TIP3    H129461   0.214   5.165  16.022 -1.4079 -1.1515 -0.8950
 2682TIP3    H229462   0.088   5.241  16.059 -0.0907  0.1856  1.0458
 2683TIP3   OH229463   1.869   3.150   3.388 -0.1930  0.0487 -0.1419
 2683TIP3    H129464   1.782   3.152   3.349  0.3957  0.7206 -1.4947
 2683TIP3    H229465   1.873   3.228   3.443  0.4807  1.6411 -2.3073
 2684TIP3   OH229466   4.402   4.690  13.181 -0.2212 -0.7108  0.3795
 2684TIP3    H129467   4.470   4.700  13.247 -0.9295 -1.9426  1.3444
 2684TIP3    H229468   4.328   4.740  13.216  1.1628  3.8702 -2.3920
 2685TIP3   OH229469   2.666   4.154  16.977  0.3530 -0.6208  0.0361
 2685TIP3    H129470   2.658   4.212  17.053 -0.5657  0.4022 -0.8211
 2685TIP3    H229471   2.702   4.208  16.908  0.2915 -1.2945 -0.5373
 2686TIP3   OH229472   2.938   1.815   2.918 -0.0813 -0.1939 -0.1023
 2686TIP3    H129473   3.019   1.763   2.912  1.2834  1.7872  0.0693
 2686TIP3    H229474   2.962   1.900   2.879 -2.6223 -0.0976 -1.6600
 2687TIP3   OH229475   0.080   1.651  12.625  0.2369 -0.4827 -0.4102
 2687TIP3    H129476   0.092   1.745  12.640 -0.2541 -0.4966  0.1429
 2687TIP3    H229477   0.022   1.646  12.549  0.7554 -0.3547 -0.8205
 2688TIP3   OH229478   2.427   2.512   0.392 -0.3573  0.4458 -0.4142
 2688TIP3    H129479   2.439   2.580   0.326  0.1506 -0.2923 -1.1047
 2688TIP3    H229480   2.332   2.499   0.397 -0.3776  0.1280 -1.4152
 2689TIP3   OH229481   0.317   4.407   5.183 -0.8039 -0.2016  0.9155
 2689TIP3    H129482   0.303   4.492   5.141  2.2238  0.2675  0.6771
 2689TIP3    H229483   0.257   4.348   5.137 -1.7463  1.4458 -0.0810
 2690TIP3   OH229484   2.469   4.075  15.739 -0.0281  0.3102 -0.3650
 2690TIP3    H129485   2.437   4.082  15.649 -0.2908  1.2666 -0.2120
 2690TIP3    H229486   2.510   3.989  15.744 -1.2205 -0.3154 -1.0094
 2691TIP3   OH229487   5.634   4.272  13.690 -0.5230 -0.4537 -0.1720
 2691TIP3    H129488   5.651   4.266  13.784 -2.4997  1.4838  0.3703
 2691TIP3    H229489   5.712   4.315  13.655 -0.4476  0.2951  0.8599
 2692TIP3   OH229490   4.646   4.685  17.568 -0.2426  0.0197 -0.4552
 2692TIP3    H129491   4.700   4.634  17.627  0.8050  1.3954 -0.1848
 2692TIP3    H229492   4.650   4.775  17.602 -2.6687  0.1995 -0.4437
 2693TIP3   OH229493   1.306   6.071  12.304 -0.1866 -0.2642  0.5087
 2693TIP3    H129494   1.326   6.099  12.393 -1.9569  1.0914  0.5210
 2693TIP3    H229495   1.238   6.005  12.313 -0.2786 -0.2214  0.1540
 2694TIP3   OH229496   0.842   5.714  17.325  0.1803  0.0801  0.2427
 2694TIP3    H129497   0.870   5.698  17.415 -1.6935  0.1919  0.8814
 2694TIP3    H229498   0.747   5.722  17.330  0.0096 -0.1444 -1.7925
 2695TIP3   OH229499   2.756   2.225   0.586 -0.2423  0.2003 -0.9783
 2695TIP3    H129500   2.718   2.282   0.519 -0.4398 -0.0273 -1.0568
 2695TIP3    H229501   2.818   2.282   0.632 -2.1902  1.2110  0.5446
 2696TIP3   OH229502   6.632   6.644  16.176 -0.3261  0.2121 -0.1410
 2696TIP3    H129503   6.663   6.625  16.087 -0.2626 -0.0335 -0.0696
 2696TIP3    H229504   6.702   6.695  16.216  0.2195 -0.7411  0.1740
 2697TIP3   OH229505   3.527   4.511   6.500 -0.4859 -0.5761 -0.0401
 2697TIP3    H129506   3.462   4.572   6.533  0.6651  1.1373 -0.7844
 2697TIP3    H229507   3.477   4.437   6.467 -1.8125 -1.2576  3.1162
 2698TIP3   OH229508   1.694   2.648  17.430 -0.1103  0.2162  0.1894
 2698TIP3    H129509   1.657   2.732  17.402  1.4348  1.0634  0.6033
 2698TIP3    H229510   1.636   2.619  17.501 -0.7749  0.8234 -0.0950
 2699TIP3   OH229511   3.671   2.835  15.513  0.0337 -0.1181 -0.1533
 2699TIP3    H129512   3.594   2.857  15.566  0.8981  1.3432  0.5761
 2699TIP3    H229513   3.638   2.831  15.423 -0.8169  1.0322  0.0758
 2700TIP3   OH229514   0.357   1.561  14.287 -0.0240 -0.3460 -0.1574
 2700TIP3    H129515   0.418   1.535  14.217 -0.0616  0.0607 -0.3418
 2700TIP3    H229516   0.398   1.638  14.327  0.0246 -0.6089  0.3072
 2701TIP3   OH229517   5.111   6.485   0.563 -0.3124 -0.6532  0.5525
 2701TIP3    H129518   5.083   6.495   0.472 -0.1277 -0.9809  0.4574
 2701TIP3    H229519   5.195   6.439   0.557  0.3119  0.4295  0.8285
 2702TIP3   OH229520   4.254   3.436  17.198 -0.0180  0.3496  0.6016
 2702TIP3    H129521   4.269   3.528  17.219  3.0807 -0.3320  1.9331
 2702TIP3    H229522   4.338   3.405  17.165 -1.2089 -1.8581 -0.5689
 2703TIP3   OH229523   0.199   1.119   3.575  0.1599 -0.1048 -0.2374
 2703TIP3    H129524   0.210   1.209   3.546 -0.8180  0.6788  1.6626
 2703TIP3    H229525   0.114   1.092   3.539 -0.7440  0.6413  1.2414
 2704TIP3   OH229526   5.258   6.700  13.851 -0.0172 -0.3215 -0.5307
 2704TIP3    H129527   5.206   6.625  13.824 -1.6538  0.1100  1.1865
 2704TIP3    H229528   5.194   6.771  13.861  1.3182  1.0094 -1.0037
 2705TIP3   OH229529   0.435   0.120   2.569  0.6362  0.7663  0.1420
 2705TIP3    H129530   0.340   0.110   2.580  0.9965 -0.4967  2.8373
 2705TIP3    H229531   0.447   0.132   2.474 -2.3075  2.5142 -0.1369
 2706TIP3   OH229532   6.649   0.981  15.331 -0.0470  0.1215 -0.3411
 2706TIP3    H129533   6.723   0.970  15.271 -0.8365 -1.3063 -1.1056
 2706TIP3    H229534   6.586   1.034  15.283  0.7254  1.9534  0.5788
 2707TIP3   OH229535   2.056   0.557   4.955  0.0543  0.7143 -0.2809
 2707TIP3    H129536   2.113   0.529   4.883  0.9584  2.2652 -0.2249
 2707TIP3    H229537   2.000   0.624   4.916  0.7689  1.8003  0.5044
 2708TIP3   OH229538   6.524   0.338  16.292  0.2006  0.3025 -0.3132
 2708TIP3    H129539   6.590   0.365  16.228  0.2823 -0.9886 -0.8073
 2708TIP3    H229540   6.444   0.380  16.263 -0.0165 -1.1420 -1.9693
 2709TIP3   OH229541   6.627   3.946  16.683  0.5268 -0.2670 -0.0813
 2709TIP3    H129542   6.545   3.941  16.733 -0.1539 -0.8659 -1.2161
 2709TIP3    H229543   6.637   4.039  16.663  0.1913 -0.1770  0.1625
 2710TIP3   OH229544   6.556   5.928  15.949  0.0090  0.1200 -0.3956
 2710TIP3    H129545   6.475   5.881  15.929 -0.4413 -0.0052  1.5674
 2710TIP3    H229546   6.578   5.901  16.038  2.3466 -0.0138 -0.9655
 2711TIP3   OH229547   5.082   1.378   1.903 -0.7920 -0.2058 -0.1837
 2711TIP3    H129548   5.068   1.302   1.847 -0.7891  0.4577 -1.1146
 2711TIP3    H229549   5.117   1.445   1.844  0.4897  0.0961  0.8808
 2712TIP3   OH229550   1.770   0.045   6.193 -0.6658 -0.2307 -0.4428
 2712TIP3    H129551   1.789  -0.043   6.226 -1.1234 -0.4508 -0.7536
 2712TIP3    H229552   1.682   0.038   6.155 -1.4027  0.7644  0.9871
 2713TIP3   OH229553   1.010   2.332   4.101 -0.6657  0.5313  0.2368
 2713TIP3    H129554   0.956   2.295   4.031  1.0975 -1.5896 -0.1096
 2713TIP3    H229555   0.973   2.296   4.182 -0.2283 -0.3997  0.0438
 2714TIP3   OH229556   4.496   0.069   0.195  0.2779  0.1732 -0.4606
 2714TIP3    H129557   4.500   0.012   0.118  1.3139 -0.0182 -0.2770
 2714TIP3    H229558   4.561   0.032   0.256 -1.8600 -0.8892  1.3560
 2715TIP3   OH229559   6.289   2.245   1.413  0.0500 -0.6398 -0.8401
 2715TIP3    H129560   6.278   2.173   1.475 -0.3989 -1.1706 -1.5275
 2715TIP3    H229561   6.382   2.244   1.390  0.5325  0.4253  0.8413
 2716TIP3   OH229562   3.852   4.639  17.203 -0.0570  0.4402 -0.1731
 2716TIP3    H129563   3.889   4.638  17.114  2.7586  0.7813  0.8963
 2716TIP3    H229564   3.837   4.731  17.222  0.2160  0.4501  0.0089
 2717TIP3   OH229565   3.910   1.105  15.140 -0.2412 -0.3283  0.2915
 2717TIP3    H129566   3.893   1.011  15.131  0.6617 -0.6792  1.8329
 2717TIP3    H229567   3.829   1.140  15.176  0.0336 -0.8740  1.5037
 2718TIP3   OH229568   3.815   6.591   5.885 -0.6116  0.0964 -0.3847
 2718TIP3    H129569   3.784   6.539   5.959 -1.5417  0.5880 -0.4192
 2718TIP3    H229570   3.852   6.527   5.824  1.5257 -0.2080  1.1133
 2719TIP3   OH229571   1.503   4.232  16.397 -0.0403  0.2193 -0.5068
 2719TIP3    H129572   1.467   4.228  16.309 -0.8262  1.7427 -0.2798
 2719TIP3    H229573   1.440   4.283  16.447 -0.2761 -1.6946  1.2942
 2720TIP3   OH229574   5.836   3.224  14.537  0.8068 -0.0160  0.2084
 2720TIP3    H129575   5.897   3.211  14.610  0.9287  1.3324  0.3809
 2720TIP3    H229576   5.822   3.137  14.500  1.8869 -0.5086  0.9374
 2721TIP3   OH229577   3.550   1.759  13.920  0.3396 -0.2589  0.1832
 2721TIP3    H129578   3.589   1.839  13.884 -0.3976 -0.1389 -0.3968
 2721TIP3    H229579   3.592   1.688  13.872 -1.5495 -0.0605 -1.9846
 2722TIP3   OH229580   5.640   3.271   1.739 -0.2380 -0.7930  0.3848
 2722TIP3    H129581   5.689   3.204   1.785  0.6007 -0.0090  0.6557
 2722TIP3    H229582   5.603   3.326   1.808  0.9982  0.3699  0.1659
 2723TIP3   OH229583   5.109   5.580  15.630 -0.2737  0.3734  0.3634
 2723TIP3    H129584   5.033   5.533  15.663 -0.5794  0.8007  0.2713
 2723TIP3    H229585   5.184   5.526  15.657 -0.6744 -1.0134 -1.0655
 2724TIP3   OH229586   6.266   1.597  17.308  0.4866 -0.2713  0.0994
 2724TIP3    H129587   6.237   1.522  17.360 -1.4921 -0.1522 -0.7310
 2724TIP3    H229588   6.233   1.579  17.220  0.2950  1.3835 -0.2008
 2725TIP3   OH229589   4.929   6.281  15.646  0.0645 -0.4430  0.5409
 2725TIP3    H129590   4.916   6.230  15.566 -0.9138  0.0141  0.3871
 2725TIP3    H229591   4.844   6.322  15.662 -0.6698 -2.6515  3.2948
 2726TIP3   OH229592   2.758   5.960   2.512 -0.3548 -0.0730 -0.1306
 2726TIP3    H129593   2.771   5.895   2.443  0.0571 -0.5111  0.3446
 2726TIP3    H229594   2.813   5.929   2.584 -0.0624  0.8735  0.0612
 2727TIP3   OH229595   5.597   2.015  17.219  0.2876 -0.0907  0.0354
 2727TIP3    H129596   5.644   1.944  17.264 -0.6908 -1.0240 -0.3817
 2727TIP3    H229597   5.652   2.093  17.234  1.0601 -0.7967  1.0344
 2728TIP3   OH229598   1.899   3.116   0.182 -0.4587 -0.1498  0.4199
 2728TIP3    H129599   1.856   3.195   0.149  1.5594  0.4189 -1.0417
 2728TIP3    H229600   1.975   3.149   0.230  0.9795 -1.1554 -1.0606
 2729TIP3   OH229601   2.934   1.866  11.662  0.2644  0.2755 -0.5096
 2729TIP3    H129602   2.905   1.815  11.738  1.0059 -1.2043 -1.1688
 2729TIP3    H229603   3.024   1.891  11.682  0.1973  0.5597 -0.5639
 2730TIP3   OH229604   2.156   2.256  13.859 -0.6863 -0.1627 -0.3717
 2730TIP3    H129605   2.241   2.245  13.816 -0.8486 -1.8659 -0.3076
 2730TIP3    H229606   2.174   2.243  13.953 -0.8105  0.7674 -0.2080
 2731TIP3   OH229607   0.537   5.351   0.165 -0.3420  0.1653 -0.7378
 2731TIP3    H129608   0.629   5.375   0.169 -0.9342  2.6205 -0.4988
 2731TIP3    H229609   0.504   5.393   0.085 -0.9897 -1.8557 -1.6060
 2732TIP3   OH229610   2.470   2.434  11.971  0.7893  0.1049  0.0913
 2732TIP3    H129611   2.392   2.407  12.020  0.7906  1.2851  0.7629
 2732TIP3    H229612   2.463   2.386  11.888 -1.0853  0.7944 -0.1914
 2733TIP3   OH229613   1.630   2.613  12.588 -0.0109 -0.1060  0.2011
 2733TIP3    H129614   1.588   2.688  12.546  1.2011  0.3879 -0.1792
 2733TIP3    H229615   1.682   2.650  12.659  0.3837 -0.5997  0.1813
 2734TIP3   OH229616   5.131   2.043  13.820 -0.2710  0.9757  0.1943
 2734TIP3    H129617   5.051   2.089  13.793 -0.8896 -0.1293  0.0868
 2734TIP3    H229618   5.117   2.020  13.911  0.3423  1.6237  0.4591
 2735TIP3   OH229619   3.801   1.344  12.737 -0.2602 -0.5249  0.1782
 2735TIP3    H129620   3.723   1.352  12.682 -0.6766 -0.6845  0.7427
 2735TIP3    H229621   3.788   1.408  12.807  0.4186 -0.0940 -0.0862
 2736TIP3   OH229622   1.284   4.340  14.221  0.3918  0.0278 -0.0203
 2736TIP3    H129623   1.305   4.412  14.280 -0.0493 -0.7954  1.1859
 2736TIP3    H229624   1.367   4.296  14.205  0.5554  0.4111 -0.2381
 2737TIP3   OH229625   0.774   6.703  15.352  0.1131 -0.0096  0.2342
 2737TIP3    H129626   0.762   6.637  15.284 -3.2438 -2.0803  2.5413
 2737TIP3    H229627   0.703   6.766  15.338 -0.0785  0.0216  1.2159
 2738TIP3   OH229628   1.858   4.833  15.695 -0.3056 -0.6816  0.2689
 2738TIP3    H129629   1.863   4.741  15.723  0.9606 -0.6873  0.0940
 2738TIP3    H229630   1.911   4.836  15.615  2.0288  0.7461  1.7612
 2739TIP3   OH229631   3.365   3.376   6.374 -0.0250 -0.0765 -0.8870
 2739TIP3    H129632   3.291   3.357   6.432 -1.3616  4.3918 -0.7967
 2739TIP3    H229633   3.427   3.424   6.428  1.0519 -0.1549 -2.0005
 2740TIP3   OH229634   3.621   5.901   2.394 -0.2330  0.3464  0.1647
 2740TIP3    H129635   3.657   5.913   2.307 -0.6346  0.1388 -0.0329
 2740TIP3    H229636   3.588   5.812   2.395  0.4460  0.0910  0.7828
 2741TIP3   OH229637   6.498   5.392   5.591  0.1263 -0.2923  0.0827
 2741TIP3    H129638   6.435   5.408   5.522  0.0882 -3.0218 -0.5963
 2741TIP3    H229639   6.540   5.309   5.568  0.5201 -1.0344  3.0135
 2742TIP3   OH229640   3.932   4.153   1.984 -0.8199 -0.3659 -0.0062
 2742TIP3    H129641   3.848   4.110   2.003 -0.7026 -0.2163  0.8705
 2742TIP3    H229642   3.950   4.206   2.061 -0.0443 -0.1825 -0.3056
 2743TIP3   OH229643   1.478   0.180  14.860  0.0540 -0.0034  0.3978
 2743TIP3    H129644   1.510   0.186  14.770  1.9742  1.5994  1.1122
 2743TIP3    H229645   1.435   0.264  14.876  1.5625  0.6007  1.5670
 2744TIP3   OH229646   3.390   5.999  11.612  0.0520 -0.4018 -0.6184
 2744TIP3    H129647   3.462   6.003  11.550  0.3952 -1.4066 -0.2963
 2744TIP3    H229648   3.419   6.052  11.687 -0.0324  0.1447 -0.9684
 2745TIP3   OH229649   5.842   2.788   6.182 -0.7600  0.6806  0.6935
 2745TIP3    H129650   5.850   2.834   6.099 -0.6001 -1.5235 -0.5999
 2745TIP3    H229651   5.918   2.817   6.233  0.8160 -0.0620 -1.0918
 2746TIP3   OH229652   3.026   5.464   2.176 -0.5846  0.3543  0.0836
 2746TIP3    H129653   3.032   5.524   2.101  0.3388 -0.2697 -0.3536
 2746TIP3    H229654   3.086   5.501   2.241  0.4532 -0.4079 -0.4200
 2747TIP3   OH229655   0.725   4.248   0.530  0.1546  0.1857 -0.1226
 2747TIP3    H129656   0.783   4.300   0.585 -0.7320 -0.2638  1.2878
 2747TIP3    H229657   0.702   4.306   0.457  1.6456  0.6616 -0.2448
 2748TIP3   OH229658   6.318   1.751   5.905  0.5660 -0.3751  0.1583
 2748TIP3    H129659   6.317   1.713   5.993 -1.5670 -0.3922  0.1765
 2748TIP3    H229660   6.264   1.829   5.912 -0.5222 -0.9460 -1.3628
 2749TIP3   OH229661   0.492   2.287   3.652  0.3865 -0.3622  0.3387
 2749TIP3    H129662   0.576   2.322   3.621  0.7849 -1.1114  0.5459
 2749TIP3    H229663   0.487   2.317   3.743  0.9641 -1.2309  0.6724
 2750TIP3   OH229664   6.500   2.183   5.775  0.4874  0.0194 -0.1355
 2750TIP3    H129665   6.460   2.186   5.688 -0.3640  0.0967  0.2466
 2750TIP3    H229666   6.493   2.272   5.808 -0.5554 -0.3161  0.5977
 2751TIP3   OH229667   3.067   5.849  13.905 -0.4022  0.4640  0.1033
 2751TIP3    H129668   3.114   5.801  13.972 -1.2599 -1.0731 -0.3631
 2751TIP3    H229669   2.986   5.877  13.948  0.2923  1.9527  0.5105
 2752TIP3   OH229670   5.508   4.315   3.321 -0.8326 -0.3032  0.4168
 2752TIP3    H129671   5.503   4.361   3.405 -0.0865  0.2372  0.1632
 2752TIP3    H229672   5.494   4.382   3.255  1.7504 -0.1093 -0.0272
 2753TIP3   OH229673   2.361   4.525   5.142  0.0006  0.4534  0.1295
 2753TIP3    H129674   2.347   4.607   5.190 -2.1673  0.5350 -0.5563
 2753TIP3    H229675   2.292   4.523   5.077  0.8359 -1.3051 -0.7676
 2754TIP3   OH229676   3.757   2.150  16.122  0.3376  0.1746 -0.4614
 2754TIP3    H129677   3.705   2.200  16.186  0.8122  0.9397 -0.6529
 2754TIP3    H229678   3.709   2.159  16.040 -0.0850 -0.5065 -0.2926
 2755TIP3   OH229679   5.800   5.534   6.099 -0.3717  0.4067 -0.4765
 2755TIP3    H129680   5.826   5.570   6.184 -1.0866  0.6547 -0.3583
 2755TIP3    H229681   5.881   5.501   6.061 -0.0446  0.3010  0.3016
 2756TIP3   OH229682   5.079   2.864   1.745  0.1568  0.0318 -0.6220
 2756TIP3    H129683   5.066   2.770   1.755  0.7949 -0.0383 -0.4133
 2756TIP3    H229684   5.110   2.892   1.831  0.0241  0.4254 -0.7014
 2757TIP3   OH229685   6.623   2.804   5.359  0.1515 -0.2853 -0.7173
 2757TIP3    H129686   6.645   2.782   5.268  0.4301  0.3293 -0.8064
 2757TIP3    H229687   6.678   2.746   5.412  0.4533 -0.2060 -0.9416
 2758TIP3   OH229688   3.196   0.478  15.986 -0.1588  0.0956  0.3289
 2758TIP3    H129689   3.270   0.451  16.040 -0.3001  3.1856  2.2745
 2758TIP3    H229690   3.121   0.480  16.045 -0.7889  1.5005 -0.4514
 2759TIP3   OH229691   4.061   3.091   6.504 -0.1224  0.3364 -0.2292
 2759TIP3    H129692   4.027   3.132   6.583 -1.0128  1.4597 -1.1577
 2759TIP3    H229693   4.073   2.999   6.528  0.3697  0.7999  1.4237
 2760TIP3   OH229694   3.948   4.752   1.923  0.5160 -0.3076 -0.2683
 2760TIP3    H129695   3.959   4.657   1.931 -4.3190 -1.2051 -1.2220
 2760TIP3    H229696   3.933   4.781   2.013  2.5848 -0.2747  0.1001
 2761TIP3   OH229697   1.130   0.777   4.036  0.5143  0.1540  0.4064
 2761TIP3    H129698   1.050   0.816   4.070 -0.4355 -0.5759 -0.9182
 2761TIP3    H229699   1.136   0.692   4.080  0.3531  0.0398  0.2054
 2762TIP3   OH229700   3.746   3.568   1.934  0.3078  0.5530  0.1769
 2762TIP3    H129701   3.824   3.512   1.928  0.4398  0.7977 -0.6271
 2762TIP3    H229702   3.718   3.561   2.025 -0.0021 -1.2599 -0.0203
 2763TIP3   OH229703   2.547   6.592  17.204 -0.3642  0.3976  0.8019
 2763TIP3    H129704   2.493   6.608  17.127 -0.6613  2.0468  1.3120
 2763TIP3    H229705   2.517   6.507  17.237 -1.0863  0.2503 -0.1846
 2764TIP3   OH229706   2.278   2.395   0.073 -0.1460 -0.0211  0.0545
 2764TIP3    H129707   2.249   2.468   0.017  0.0143  0.0757  0.0968
 2764TIP3    H229708   2.245   2.417   0.160 -0.1100 -0.0054  0.0643
 2765TIP3   OH229709   6.346   5.627  17.338 -0.0228  0.0963  0.0383
 2765TIP3    H129710   6.427   5.589  17.304 -0.3927 -0.9899  0.3501
 2765TIP3    H229711   6.345   5.716  17.302 -0.0942 -0.7842 -2.3017
 2766TIP3   OH229712   6.488   1.669   5.171  0.4981 -0.4424 -0.1921
 2766TIP3    H129713   6.482   1.757   5.134  2.5011 -0.5617 -0.9662
 2766TIP3    H229714   6.404   1.629   5.151  0.0959  0.8114 -1.1557
 2767TIP3   OH229715   2.778   0.894   3.698  0.0509 -0.2270  0.2162
 2767TIP3    H129716   2.768   0.854   3.611  2.0549  0.6128 -0.4582
 2767TIP3    H229717   2.866   0.870   3.725  0.5044  1.8845  0.7338
 2768TIP3   OH229718   3.011   0.458   0.330 -0.1309 -0.1430 -0.0752
 2768TIP3    H129719   3.088   0.450   0.273  0.6383  2.5808  0.4401
 2768TIP3    H229720   3.034   0.409   0.408  0.7043 -0.1501 -0.3130
 2769TIP3   OH229721   2.609   1.763  14.881  0.1193  0.1706  0.0425
 2769TIP3    H129722   2.555   1.735  14.955 -0.2938 -1.6452 -0.8999
 2769TIP3    H229723   2.671   1.825  14.920 -0.4839 -0.2485  1.7960
 2770TIP3   OH229724   3.186   6.126   2.918 -0.2766 -0.3125 -0.0993
 2770TIP3    H129725   3.160   6.216   2.902  0.4898  0.3983  2.1594
 2770TIP3    H229726   3.228   6.098   2.837  0.6175  1.8074 -0.4316
 2771TIP3   OH229727   4.744   5.676  17.379  0.2241 -0.4397 -0.2216
 2771TIP3    H129728   4.666   5.722  17.348  0.4072 -0.2345 -0.3775
 2771TIP3    H229729   4.710   5.598  17.424 -0.1563  0.4420  1.0750
 2772TIP3   OH229730   4.226   0.032  15.223  0.1291  0.2506  0.2349
 2772TIP3    H129731   4.211   0.126  15.212 -0.7965  0.2200  1.0996
 2772TIP3    H229732   4.264   0.004  15.139  1.0368  1.5047  0.1922
 2773TIP3   OH229733   0.368   5.546  12.116 -0.0138  0.1209  0.2435
 2773TIP3    H129734   0.345   5.639  12.107 -0.8446 -0.0620  0.4020
 2773TIP3    H229735   0.381   5.516  12.026  0.8948  0.5423  0.2276
 2774TIP3   OH229736   2.793   4.688   0.630 -0.5582  0.2483 -0.3895
 2774TIP3    H129737   2.887   4.673   0.640 -0.3285 -0.0965 -2.5524
 2774TIP3    H229738   2.786   4.778   0.600 -0.9509  0.3283 -0.0740
 2775TIP3   OH229739   6.475   6.240   2.013  0.1866 -0.0804 -0.1653
 2775TIP3    H129740   6.488   6.243   1.919 -1.6010  2.3588 -0.4567
 2775TIP3    H229741   6.556   6.274   2.051  0.5679 -0.1973 -0.8752
 2776TIP3   OH229742   0.602   5.124   4.583 -0.1172 -0.3909 -0.3653
 2776TIP3    H129743   0.508   5.112   4.572 -0.3519  0.4739  0.5924
 2776TIP3    H229744   0.612   5.159   4.671  1.1175 -0.5782 -0.4076
 2777TIP3   OH229745   0.060   5.603   6.527  0.3287  0.3197 -0.4903
 2777TIP3    H129746   0.076   5.697   6.540 -0.1262  0.2910  0.3935
 2777TIP3    H229747   0.138   5.560   6.563  1.0381  0.3756 -1.8892
 2778TIP3   OH229748   3.464   1.737  14.357 -0.3211 -0.6173  0.1205
 2778TIP3    H129749   3.425   1.719  14.272 -3.4101 -1.4450  1.5743
 2778TIP3    H229750   3.479   1.832  14.357 -0.4681 -0.5815 -1.2501
 2779TIP3   OH229751   3.053   4.535   5.556  0.6596 -0.9660 -0.3229
 2779TIP3    H129752   3.086   4.568   5.639 -1.8424  1.6674 -0.2113
 2779TIP3    H229753   3.064   4.440   5.562 -0.6058 -1.0404  3.6007
 2780TIP3   OH229754   5.082   3.298  12.298 -0.4580 -0.1466 -0.0055
 2780TIP3    H129755   5.056   3.389  12.309  0.3199  0.0074  0.6572
 2780TIP3    H229756   5.040   3.251  12.370 -2.5436 -0.7024 -1.5002
 2781TIP3   OH229757   0.259   1.493   0.237  0.0235  0.0576  0.1989
 2781TIP3    H129758   0.261   1.436   0.315  0.9428  1.1032  0.9632
 2781TIP3    H229759   0.347   1.486   0.200 -0.4396 -0.5183 -0.8458
 2782TIP3   OH229760   4.176   6.418   4.667 -0.0857 -0.5541 -0.1496
 2782TIP3    H129761   4.108   6.413   4.600  0.2375 -2.8256 -0.3715
 2782TIP3    H229762   4.231   6.491   4.639 -0.4716 -0.8770 -1.8636
 2783TIP3   OH229763   0.274   6.251   4.831  0.1670 -0.2497 -0.7013
 2783TIP3    H129764   0.258   6.216   4.919  2.8843  0.8829  0.3753
 2783TIP3    H229765   0.233   6.188   4.773 -0.5382 -1.8121  1.3427
 2784TIP3   OH229766   0.394   5.409   5.674  0.2218  0.0277 -0.0486
 2784TIP3    H129767   0.331   5.481   5.670  1.3961  1.2068  1.3008
 2784TIP3    H229768   0.350   5.340   5.724  0.3749  1.3155  1.9794
 2785TIP3   OH229769   3.501   5.776  15.553  0.1882  0.2318 -0.0015
 2785TIP3    H129770   3.434   5.727  15.507  0.5438 -1.5709  1.3174
 2785TIP3    H229771   3.457   5.811  15.631  0.8149 -1.3051  1.0862
 2786TIP3   OH229772   4.481   5.644  16.845 -0.2038  0.1546 -0.5310
 2786TIP3    H129773   4.476   5.573  16.909 -2.2174 -0.6293 -1.4775
 2786TIP3    H229774   4.506   5.721  16.897  1.2107 -1.0265  0.6519
 2787TIP3   OH229775   5.110   4.168  14.088 -0.0646 -0.2920 -0.1775
 2787TIP3    H129776   5.065   4.238  14.135 -2.4593 -1.0876 -1.0934
 2787TIP3    H229777   5.192   4.207  14.059 -0.3572  1.4393  1.1388
 2788TIP3   OH229778   5.758   0.975   6.225  0.1031 -0.1196  0.6963
 2788TIP3    H129779   5.849   1.000   6.240  0.4290 -1.7999  1.8962
 2788TIP3    H229780   5.739   0.911   6.294 -1.0591 -1.9980 -1.2188
 2789TIP3   OH229781   4.112   5.587  14.989 -0.6369 -0.2998  0.1689
 2789TIP3    H129782   4.192   5.553  15.029 -0.9788 -0.0747  1.0572
 2789TIP3    H229783   4.086   5.660  15.045 -0.4994  0.7682 -1.1123
 2790TIP3   OH229784   1.541   0.163  15.686 -0.3817 -0.2495 -0.2944
 2790TIP3    H129785   1.611   0.132  15.743 -0.0335 -0.8348 -1.0207
 2790TIP3    H229786   1.506   0.240  15.731  0.2947 -0.3259  0.3935
 2791TIP3   OH229787   1.301   6.503  16.692 -0.6418  0.0250  0.3240
 2791TIP3    H129788   1.362   6.563  16.736 -1.2776 -0.5476  2.0552
 2791TIP3    H229789   1.234   6.561  16.655 -1.3169  0.4212  2.0809
 2792TIP3   OH229790   1.692   3.677  17.051  0.3540  0.0888 -0.1366
 2792TIP3    H129791   1.629   3.606  17.037 -0.0396  0.5525 -0.8086
 2792TIP3    H229792   1.645   3.756  17.023  0.7551  0.6279  0.6774
 2793TIP3   OH229793   0.430   4.299  16.231 -0.2069 -0.4938  0.3795
 2793TIP3    H129794   0.460   4.235  16.296 -2.1677 -0.5171  1.3410
 2793TIP3    H229795   0.382   4.247  16.167  2.5651 -0.6246 -1.7980
 2794TIP3   OH229796   6.057   1.120  12.927  0.3423  0.2813  0.0696
 2794TIP3    H129797   6.105   1.164  12.856  0.5061  0.0327  0.0247
 2794TIP3    H229798   6.001   1.057  12.882  1.6359 -1.0255  0.2400
 2795TIP3   OH229799   0.920   1.790   5.346  0.1375  1.1300  0.6375
 2795TIP3    H129800   0.924   1.761   5.255 -0.4487  0.0821  0.9280
 2795TIP3    H229801   0.986   1.859   5.352 -0.5418  1.9610 -0.8374
 2796TIP3   OH229802   1.973   3.538   3.045  0.1103  0.1964  0.3801
 2796TIP3    H129803   2.029   3.495   2.980  1.0329  0.5082  0.9457
 2796TIP3    H229804   1.996   3.631   3.039 -0.4643  0.3484  0.5084
 2797TIP3   OH229805   0.396   3.419   1.818  0.1087  0.4006 -0.4770
 2797TIP3    H129806   0.306   3.441   1.845 -0.7050 -2.0426 -0.9950
 2797TIP3    H229807   0.451   3.455   1.888 -1.3810  0.7247  0.5781
 2798TIP3   OH229808   4.486   0.271  14.604 -0.0855 -0.3357 -0.0958
 2798TIP3    H129809   4.449   0.346  14.650 -0.3569 -1.4613  1.6335
 2798TIP3    H229810   4.580   0.288  14.600 -0.1356  0.0608  0.3720
 2799TIP3   OH229811   5.733   2.250  10.986  0.6942  0.4404 -0.3802
 2799TIP3    H129812   5.769   2.317  11.044  0.6008 -1.1962  1.6843
 2799TIP3    H229813   5.775   2.169  11.015  0.2738 -0.5319 -2.3359
 2800TIP3   OH229814   2.824   2.919   4.048 -0.2516  0.4431  0.3318
 2800TIP3    H129815   2.781   3.001   4.022 -1.8638 -0.4750 -0.0135
 2800TIP3    H229816   2.900   2.947   4.100  1.7902  2.3357 -3.2486
 2801TIP3   OH229817   1.698   0.197   5.825  0.0653 -0.0955  0.0563
 2801TIP3    H129818   1.750   0.194   5.744  0.6088 -0.0032  0.3941
 2801TIP3    H229819   1.636   0.124   5.816 -0.9606  0.8837 -1.1436
 2802TIP3   OH229820   3.075   3.979  11.612  0.1651  0.2754  0.0815
 2802TIP3    H129821   3.165   4.013  11.616 -0.2926  1.4721  1.0194
 2802TIP3    H229822   3.058   3.947  11.701 -0.3128  0.0119 -0.1022
 2803TIP3   OH229823   1.679   3.204   3.197 -0.3552 -0.1197 -0.2448
 2803TIP3    H129824   1.625   3.163   3.129  1.4629 -0.1751 -1.7214
 2803TIP3    H229825   1.724   3.275   3.153  0.0763  0.5291  1.1750
 2804TIP3   OH229826   2.537   5.213  14.674  0.3786 -0.1803 -0.6965
 2804TIP3    H129827   2.509   5.141  14.617  3.5714 -0.4790 -2.1043
 2804TIP3    H229828   2.632   5.208  14.674  0.7083  3.3496  0.0868
 2805TIP3   OH229829   4.290   0.197   0.920 -0.7664  0.0863 -0.2759
 2805TIP3    H129830   4.309   0.215   1.012 -1.9869 -1.5551  0.3546
 2805TIP3    H229831   4.356   0.132   0.894 -1.3793 -0.6300 -0.0708
 2806TIP3   OH229832   5.884   2.434  12.237 -0.0732 -0.3363  0.7715
 2806TIP3    H129833   5.867   2.521  12.270  1.8102 -0.0454  1.1131
 2806TIP3    H229834   5.850   2.435  12.147 -0.7520  0.4909  1.0301
 2807TIP3   OH229835   0.292   5.706   1.208 -0.0229  0.3297 -0.8543
 2807TIP3    H129836   0.230   5.768   1.171 -0.7282  0.1440 -0.0403
 2807TIP3    H229837   0.324   5.748   1.288  1.0102  0.4777 -1.3405
 2808TIP3   OH229838   5.936   4.567   2.249  0.5526 -0.4466 -0.1052
 2808TIP3    H129839   5.969   4.477   2.240  0.5054 -0.7030  1.7315
 2808TIP3    H229840   5.936   4.582   2.344 -2.3956  0.3585 -0.1241
 2809TIP3   OH229841   2.638   4.248  15.882 -0.0022  0.1820  0.3545
 2809TIP3    H129842   2.576   4.301  15.932 -0.6303 -0.0812 -0.1324
 2809TIP3    H229843   2.584   4.198  15.821  0.8398  1.6573 -1.6982
 2810TIP3   OH229844   6.123   4.793  11.630 -0.3043  0.2183 -0.1786
 2810TIP3    H129845   6.189   4.752  11.573 -1.4234 -0.8754 -0.7532
 2810TIP3    H229846   6.040   4.759  11.597 -1.0699  0.5813  1.3185
 2811TIP3   OH229847   2.359   2.942   0.965 -0.2899 -0.3677 -0.4275
 2811TIP3    H129848   2.338   2.868   0.908  1.1784 -0.4998 -0.8414
 2811TIP3    H229849   2.449   2.966   0.942 -0.0513  0.3049  1.0460
 2812TIP3   OH229850   4.954   3.570  16.001 -0.0319 -0.4569  0.5178
 2812TIP3    H129851   4.972   3.479  15.980  0.0191  0.0109 -1.8164
 2812TIP3    H229852   4.865   3.585  15.969 -0.0883  0.2702  0.9915
 2813TIP3   OH229853   3.350   2.541   4.078 -0.1639 -0.3170 -0.2879
 2813TIP3    H129854   3.337   2.476   4.009  2.7509  1.2844 -2.6056
 2813TIP3    H229855   3.312   2.622   4.042 -0.8177  0.0247  1.1071
 2814TIP3   OH229856   3.954   4.511  12.692 -0.2914  0.0159 -1.0479
 2814TIP3    H129857   3.962   4.476  12.780  0.3037  0.5996 -0.8588
 2814TIP3    H229858   4.043   4.540  12.670 -0.6163  0.6872 -1.4964
 2815TIP3   OH229859   2.312   1.561   5.860 -0.1606 -0.4255 -0.2550
 2815TIP3    H129860   2.271   1.476   5.842  0.9625 -0.5875 -2.2761
 2815TIP3    H229861   2.373   1.574   5.788  0.9076  1.3559  0.9071
 2816TIP3   OH229862   6.161   0.786  15.181 -0.4984 -0.0767 -0.0089
 2816TIP3    H129863   6.187   0.694  15.171 -1.7278 -0.6112  1.3395
 2816TIP3    H229864   6.191   0.828  15.101  1.0327 -1.4275 -0.1922
 2817TIP3   OH229865   3.113   5.537  13.220 -0.4816 -0.4359  0.2929
 2817TIP3    H129866   3.155   5.451  13.210  1.7427  0.5740  0.5221
 2817TIP3    H229867   3.059   5.528  13.299 -2.4127 -2.3689 -1.0987
 2818TIP3   OH229868   1.823   5.009  17.505  0.0693 -0.4640  0.1602
 2818TIP3    H129869   1.862   4.928  17.471  1.0535 -0.3779  1.0397
 2818TIP3    H229870   1.833   5.072  17.433 -1.7626 -1.3842 -0.9870
 2819TIP3   OH229871   4.198   5.443  14.728  0.1510 -0.7305  0.2805
 2819TIP3    H129872   4.278   5.476  14.769  0.0493  1.8124 -1.3528
 2819TIP3    H229873   4.128   5.481  14.781  0.0400 -0.1081 -0.3003
 2820TIP3   OH229874   0.106   5.506   1.261  0.2952  0.8557  0.4270
 2820TIP3    H129875   0.131   5.454   1.184 -1.1194  0.4957  0.1962
 2820TIP3    H229876   0.176   5.571   1.269  2.2171 -1.1044  0.7910
 2821TIP3   OH229877   4.084   3.748  14.911  0.3229 -0.1574 -0.2262
 2821TIP3    H129878   4.029   3.797  14.850 -0.2709 -0.7981 -0.2084
 2821TIP3    H229879   4.139   3.693  14.855  1.7649  1.2865 -0.3040
 2822TIP3   OH229880   1.990   1.896   1.191  0.5520  0.3994  0.2907
 2822TIP3    H129881   1.914   1.896   1.250 -0.6667  0.9603 -1.2170
 2822TIP3    H229882   2.004   1.988   1.170  2.1868  0.3785  1.1657
 2823TIP3   OH229883   1.436   1.252  17.016 -0.3778  0.0630 -0.2470
 2823TIP3    H129884   1.446   1.157  17.012  1.6762  0.2537 -1.6601
 2823TIP3    H229885   1.480   1.278  17.096 -2.6824 -0.2678  1.2160
 2824TIP3   OH229886   3.025   3.716  16.727 -0.5004 -0.3516 -0.1784
 2824TIP3    H129887   2.979   3.748  16.649 -0.0073 -0.2286 -0.4254
 2824TIP3    H229888   3.109   3.683  16.693  0.1427  0.6217  0.4147
 2825TIP3   OH229889   0.063   5.527  13.715  0.5565 -0.6109  0.3401
 2825TIP3    H129890   0.058   5.464  13.787  0.6213  0.3786  1.2421
 2825TIP3    H229891   0.017   5.485  13.642  2.1086 -2.4427  0.3322
 2826TIP3   OH229892   2.115   0.908   1.078 -0.1584  0.2337  0.3721
 2826TIP3    H129893   2.181   0.965   1.038  0.0624 -0.7608 -0.7291
 2826TIP3    H229894   2.032   0.951   1.062 -0.1395 -0.4211 -1.7304
 2827TIP3   OH229895   5.691   4.184   1.417  0.3170  0.1393 -0.6589
 2827TIP3    H129896   5.665   4.274   1.397 -0.5128 -0.3532 -1.9424
 2827TIP3    H229897   5.775   4.192   1.462 -0.4644  1.6244  0.6358
 2828TIP3   OH229898   4.576   2.143   2.892 -0.7543  0.4893  0.6241
 2828TIP3    H129899   4.606   2.058   2.860  0.4688  0.9060  0.6283
 2828TIP3    H229900   4.480   2.137   2.889 -0.6797 -0.6054 -0.0970
 2829TIP3   OH229901   2.049   2.266  16.915 -0.0385  0.7151 -0.0912
 2829TIP3    H129902   2.136   2.304  16.931 -0.1429  0.6660  0.6079
 2829TIP3    H229903   2.033   2.208  16.989 -1.0415  1.3942  0.2501
 2830TIP3   OH229904   6.679   4.111   5.445  0.5382 -0.4134  0.3021
 2830TIP3    H129905   6.702   4.193   5.489  1.6027 -0.5535  0.0330
 2830TIP3    H229906   6.702   4.042   5.508 -0.1964 -0.5223  0.4619
 2831TIP3   OH229907   5.656   5.261   3.116 -0.3000 -0.8424  0.0900
 2831TIP3    H129908   5.749   5.284   3.111 -0.7080  0.7376 -1.0845
 2831TIP3    H229909   5.656   5.166   3.127  1.4608 -0.6218  3.1847
 2832TIP3   OH229910   6.095   6.100  12.190  0.6161 -0.6276  0.3210
 2832TIP3    H129911   6.145   6.164  12.240 -1.3007  0.0191  1.5180
 2832TIP3    H229912   6.051   6.151  12.122 -1.0784 -0.5658  1.4000
 2833TIP3   OH229913   5.464   5.188   1.777  0.7999  0.0249  0.1793
 2833TIP3    H129914   5.462   5.174   1.872  3.4168 -1.7065  0.0998
 2833TIP3    H229915   5.376   5.218   1.755 -0.0432 -0.0090  3.0760
 2834TIP3   OH229916   1.059   6.490  15.234  0.3873 -0.1049 -0.4779
 2834TIP3    H129917   0.983   6.512  15.181  1.9218 -0.2434 -2.8832
 2834TIP3    H229918   1.131   6.482  15.172  2.5300  0.5300  1.7277
 2835TIP3   OH229919   0.075   2.846  17.468 -0.6988 -0.1743  0.4160
 2835TIP3    H129920   0.132   2.811  17.536 -1.7105  0.0212  1.3960
 2835TIP3    H229921   0.043   2.929  17.503  0.6539  1.1753 -1.3355
 2836TIP3   OH229922   4.498   3.437  14.959 -0.2045  0.2358 -0.1495
 2836TIP3    H129923   4.463   3.488  14.886 -1.7109 -0.1634  0.2635
 2836TIP3    H229924   4.506   3.348  14.924 -2.8098 -0.4043  0.6639
 2837TIP3   OH229925   4.119   1.153   3.220  0.1826  0.0093  0.4724
 2837TIP3    H129926   4.203   1.124   3.255  0.5066 -3.4731 -2.5536
 2837TIP3    H229927   4.055   1.092   3.256 -0.2097 -0.5126 -1.0355
 2838TIP3   OH229928   4.990   3.162  13.573  0.2420  0.3941  0.5417
 2838TIP3    H129929   5.016   3.253  13.584 -1.0021  0.8639 -0.1784
 2838TIP3    H229930   4.899   3.159  13.600 -0.0613 -0.3957 -0.4820
 2839TIP3   OH229931   1.993   0.234   5.858  0.4255 -0.4884  0.1205
 2839TIP3    H129932   1.985   0.327   5.838  1.4024 -0.3003  0.5563
 2839TIP3    H229933   1.924   0.217   5.922  0.9383  0.1989  0.8849
 2840TIP3   OH229934   2.918   3.885  16.502 -0.0609  0.1601  0.3449
 2840TIP3    H129935   2.933   3.977  16.521 -1.6701  0.6962 -0.7444
 2840TIP3    H229936   2.964   3.870  16.419 -0.5598  0.2470  0.0465
 2841TIP3   OH229937   5.721   1.666  16.734  0.2075  0.0264 -0.3832
 2841TIP3    H129938   5.688   1.743  16.782 -0.2281  0.3480 -1.1859
 2841TIP3    H229939   5.730   1.697  16.644  2.9858  0.0476 -0.1704
 2842TIP3   OH229940   1.202   0.985  12.606  0.2088 -0.6897  0.0813
 2842TIP3    H129941   1.192   1.068  12.652  0.2990 -0.7024  0.1242
 2842TIP3    H229942   1.179   0.919  12.671 -0.8342 -0.6577 -0.2410
 2843TIP3   OH229943   3.047   4.883  14.079 -0.0411 -0.8169  0.4726
 2843TIP3    H129944   3.048   4.935  14.160 -0.6772 -0.3199  0.1753
 2843TIP3    H229945   2.960   4.843  14.077  1.0223 -3.4337  1.6183
 2844TIP3   OH229946   3.584   5.185   0.736 -0.6233 -0.8740 -0.9963
 2844TIP3    H129947   3.658   5.238   0.708 -0.1699  0.2526  2.0123
 2844TIP3    H229948   3.619   5.096   0.741  0.7317 -0.2898  0.8372
 2845TIP3   OH229949   3.306   4.954   0.371  0.3799 -0.6689 -0.5266
 2845TIP3    H129950   3.375   5.016   0.395  1.0228 -2.0853  1.6167
 2845TIP3    H229951   3.225   4.998   0.398  0.6437  0.0481 -0.8752
 2846TIP3   OH229952   3.004   6.372   0.602 -0.1865 -0.2919  0.1704
 2846TIP3    H129953   3.055   6.292   0.613  0.8625  0.0482 -1.8779
 2846TIP3    H229954   3.064   6.442   0.626  0.0616  0.0560 -1.3815
 2847TIP3   OH229955   0.728   5.254   3.950 -0.4316 -0.3292  0.0227
 2847TIP3    H129956   0.812   5.209   3.940 -0.6164 -0.8594  0.7615
 2847TIP3    H229957   0.669   5.187   3.984 -0.8057  0.3764  0.8040
 2848TIP3   OH229958   2.015   6.007  16.892  0.1765  0.0569  0.4477
 2848TIP3    H129959   2.070   6.016  16.970  0.8468  2.4123 -0.2263
 2848TIP3    H229960   2.075   6.019  16.819 -0.7071 -0.5948 -0.4099
 2849TIP3   OH229961   0.441   2.202  15.949 -0.1932 -0.0111 -0.3706
 2849TIP3    H129962   0.441   2.249  15.866  0.3476  0.3693 -0.1620
 2849TIP3    H229963   0.386   2.255  16.007  0.8752  0.6935  0.0321
 2850TIP3   OH229964   2.274   2.316  14.684  0.0359  0.8259  0.3586
 2850TIP3    H129965   2.205   2.345  14.745  0.6370  0.7936  1.0728
 2850TIP3    H229966   2.350   2.370  14.707  0.0554  1.3420 -0.8860
 2851TIP3   OH229967   0.783   4.065  11.551 -0.2421 -0.0909 -0.4042
 2851TIP3    H129968   0.835   4.130  11.503 -1.4002  0.0394 -1.5694
 2851TIP3    H229969   0.710   4.046  11.492  0.6727 -3.3657 -0.6267
 2852TIP3   OH229970   4.210   4.666   2.585 -0.4258  0.0068  0.5825
 2852TIP3    H129971   4.268   4.615   2.641 -0.2198 -0.7206 -0.2644
 2852TIP3    H229972   4.265   4.691   2.511 -1.2161 -0.8302 -0.3172
 2853TIP3   OH229973   3.675   2.679  14.511 -0.4672  0.3411 -0.3363
 2853TIP3    H129974   3.763   2.684  14.472  0.1148 -2.7395  0.2740
 2853TIP3    H229975   3.616   2.679  14.436 -0.0130  2.5586 -0.7563
 2854TIP3   OH229976   5.647   2.668   5.487  0.0894  0.2370  1.1029
 2854TIP3    H129977   5.577   2.608   5.464 -0.3204  0.3420  2.0154
 2854TIP3    H229978   5.603   2.752   5.504  0.6694  0.8581 -0.3327
 2855TIP3   OH229979   5.437   4.999   4.793  0.2623 -0.3255  0.5163
 2855TIP3    H129980   5.355   4.977   4.749 -0.0778 -1.1518  1.5091
 2855TIP3    H229981   5.456   4.923   4.849  0.9389  0.4536  1.3924
 2856TIP3   OH229982   2.413   4.247   2.706 -0.4709 -0.0350 -0.0110
 2856TIP3    H129983   2.391   4.171   2.760 -1.3181  1.1987  1.4731
 2856TIP3    H229984   2.489   4.219   2.655  2.3465 -0.4219  3.9695
 2857TIP3   OH229985   1.266   5.828  12.522 -0.2529 -0.0046  0.2836
 2857TIP3    H129986   1.284   5.754  12.580  0.2664 -0.6289 -0.6341
 2857TIP3    H229987   1.228   5.895  12.579 -0.2902 -0.7990  1.2245
 2858TIP3   OH229988   6.018   6.283   7.041 -0.3395  0.0891  0.2863
 2858TIP3    H129989   6.068   6.240   6.972  0.9932  2.4610 -0.3787
 2858TIP3    H229990   5.941   6.318   6.997  0.6650  1.8747 -0.1996
 2859TIP3   OH229991   3.317   1.011  15.467 -0.3541 -0.9444 -0.2496
 2859TIP3    H129992   3.262   1.080  15.431  0.3675 -0.2056  0.0381
 2859TIP3    H229993   3.256   0.940  15.489 -0.9598 -0.9075 -1.7119
 2860TIP3   OH229994   5.222   4.301  17.345 -0.0412  0.2932 -0.5980
 2860TIP3    H129995   5.279   4.225  17.342 -0.8253 -0.3042 -0.5440
 2860TIP3    H229996   5.263   4.359  17.410 -0.4323 -0.9037  0.7539
 2861TIP3   OH229997   6.152   0.574  14.416  0.9121 -0.3291  0.0807
 2861TIP3    H129998   6.202   0.625  14.480  2.3676 -1.1643 -0.3372
 2861TIP3    H229999   6.087   0.526  14.469  0.3830  0.9413  0.6152
 2862TIP3   OH230000   3.493   4.370   3.094 -0.4015  0.5174  0.1731
 2862TIP3    H130001   3.439   4.335   3.024 -0.2040  2.2404 -0.9039
 2862TIP3    H230002   3.454   4.455   3.115  0.4101  0.6787  1.1348
 2863TIP3   OH230003   3.400   2.520   2.965  0.2351 -0.2501  0.0454
 2863TIP3    H130004   3.402   2.461   3.040  0.9064 -0.6362 -0.2689
 2863TIP3    H230005   3.307   2.530   2.945  0.1038 -0.9786  0.2680
 2864TIP3   OH230006   1.106   5.927   1.692 -0.2682  0.4658 -0.4404
 2864TIP3    H130007   1.049   5.938   1.769  1.9882  1.7212  1.1668
 2864TIP3    H230008   1.166   5.857   1.717  2.4287  2.8494  0.3523
 2865TIP3   OH230009   0.581   4.255   6.539 -0.3470  0.0086 -0.4243
 2865TIP3    H130010   0.516   4.259   6.469 -0.8227  1.0152  0.0566
 2865TIP3    H230011   0.664   4.237   6.495 -0.5632  1.0645 -1.2928
 2866TIP3   OH230012   6.536   2.384  15.050  0.2422 -0.4205 -0.7193
 2866TIP3    H130013   6.544   2.296  15.086 -0.2342 -0.0443  0.3442
 2866TIP3    H230014   6.596   2.437  15.102 -3.1728  0.9103  2.2543
 2867TIP3   OH230015   6.532   6.485   1.758  0.0575 -0.0277  0.0812
 2867TIP3    H130016   6.480   6.564   1.745 -0.5266 -0.4763 -0.3775
 2867TIP3    H230017   6.574   6.498   1.843  0.8101  1.2260 -0.4498
 2868TIP3   OH230018   2.379   0.300   1.776  0.1638 -0.0637 -0.6329
 2868TIP3    H130019   2.320   0.300   1.701  0.6249 -0.3426 -1.0012
 2868TIP3    H230020   2.322   0.290   1.852 -0.4623  1.8879 -0.8036
 2869TIP3   OH230021   2.520   4.579  15.467  0.0293  0.4422  0.2675
 2869TIP3    H130022   2.607   4.572  15.428  0.0154 -1.5294  0.4734
 2869TIP3    H230023   2.537   4.598  15.559  0.3218 -1.0303  0.5427
 2870TIP3   OH230024   2.493   1.659  16.834  0.4384  0.1516 -0.4156
 2870TIP3    H130025   2.438   1.715  16.779 -0.0196  0.7945  0.6490
 2870TIP3    H230026   2.558   1.622  16.775 -1.4145 -1.0085 -1.8249
 2871TIP3   OH230027   1.795   4.578  16.514 -0.0079 -0.2324  0.2407
 2871TIP3    H130028   1.878   4.545  16.548  1.1973  2.6753  0.4266
 2871TIP3    H230029   1.779   4.529  16.434  1.7404 -1.0395  0.3604
 2872TIP3   OH230030   1.909   1.839  14.449 -0.0284 -0.4692 -0.0315
 2872TIP3    H130031   1.934   1.804  14.363  1.7896 -0.1063  0.3191
 2872TIP3    H230032   1.867   1.765  14.493  1.7459 -1.6047 -0.1410
 2873TIP3   OH230033   5.810   1.377  12.086 -0.0009  0.2291 -0.1064
 2873TIP3    H130034   5.759   1.421  12.154 -2.3022  0.6142 -1.9495
 2873TIP3    H230035   5.767   1.293  12.074 -0.9701  0.9641 -2.4039
 2874TIP3   OH230036   4.937   5.230  11.576 -0.2845 -0.0456  0.0243
 2874TIP3    H130037   4.977   5.157  11.530  0.3498  0.2888  0.0292
 2874TIP3    H230038   5.003   5.258  11.640 -0.4142  0.6908 -0.1516
 2875TIP3   OH230039   2.580   3.170   4.197 -0.7099  0.3689 -0.5560
 2875TIP3    H130040   2.672   3.145   4.192 -0.7888  0.1199 -0.8450
 2875TIP3    H230041   2.535   3.101   4.147 -1.0285  0.5991 -0.5852
 2876TIP3   OH230042   1.923   5.218  16.821 -0.0813  0.5367  0.3210
 2876TIP3    H130043   1.972   5.156  16.768  1.9986  2.6379 -0.3832
 2876TIP3    H230044   1.831   5.193  16.809  0.3968 -0.0601 -3.0202
 2877TIP3   OH230045   1.153   1.916   0.220 -0.5029  0.4886 -0.1518
 2877TIP3    H130046   1.134   1.988   0.159  0.2207  0.9056  0.0985
 2877TIP3    H230047   1.180   1.844   0.163 -2.8321 -0.1713 -0.5264
 2878TIP3   OH230048   2.739   3.518  14.386 -0.5567 -0.2448 -0.4120
 2878TIP3    H130049   2.674   3.498  14.453  1.0410  0.5011  1.4641
 2878TIP3    H230050   2.728   3.612  14.369 -1.9054 -0.7097 -2.3154
 2879TIP3   OH230051   3.312   4.815  14.363  0.1026  0.4562 -0.1688
 2879TIP3    H130052   3.313   4.781  14.273  2.4093 -0.8183  0.2743
 2879TIP3    H230053   3.330   4.739  14.418  0.6317  1.5596  1.2367
 2880TIP3   OH230054   2.763   2.459   4.355  0.2473 -0.0173 -0.1686
 2880TIP3    H130055   2.778   2.463   4.450 -1.2263 -0.1150  0.0918
 2880TIP3    H230056   2.721   2.543   4.334 -1.0160 -0.6898 -0.4157
 2881TIP3   OH230057   1.995   4.545   2.981  0.5539  0.2595 -0.0729
 2881TIP3    H130058   1.971   4.463   3.024 -0.4428 -0.5296 -2.0030
 2881TIP3    H230059   1.917   4.600   2.989  1.3673  1.2641  1.6076
 2882TIP3   OH230060   5.024   3.750  11.612 -0.1046 -0.3637  0.0363
 2882TIP3    H130061   4.979   3.665  11.612  0.4066 -0.6550 -1.1042
 2882TIP3    H230062   4.954   3.814  11.605 -0.4266 -0.7476 -0.3469
 2883TIP3   OH230063   5.520   3.042  14.194  0.2652 -0.1222 -0.0282
 2883TIP3    H130064   5.464   2.976  14.153  0.0171  0.1700 -0.1584
 2883TIP3    H230065   5.486   3.049  14.284  0.8020 -0.7539  0.2359
 2884TIP3   OH230066   1.827   1.439  14.124 -0.4286 -0.2248 -0.1403
 2884TIP3    H130067   1.814   1.524  14.167 -0.3980  0.0748 -0.7180
 2884TIP3    H230068   1.805   1.454  14.032 -0.9821 -0.9884 -0.1454
 2885TIP3   OH230069   2.452   5.337   1.778  0.1804  0.0667 -0.4194
 2885TIP3    H130070   2.359   5.333   1.801 -0.3406 -0.9029 -2.4126
 2885TIP3    H230071   2.498   5.301   1.854 -1.1439 -0.2635  0.2509
 2886TIP3   OH230072   2.786   0.292  15.764  0.0908 -0.4430 -0.9590
 2886TIP3    H130073   2.735   0.227  15.813 -1.6428  0.3707 -1.6047
 2886TIP3    H230074   2.721   0.349  15.724  1.5325  0.7484 -1.7298
 2887TIP3   OH230075   1.431   6.704  13.160 -0.5107  0.1054 -0.3805
 2887TIP3    H130076   1.414   6.798  13.164 -1.8480  0.0077 -2.1880
 2887TIP3    H230077   1.353   6.664  13.198  0.4554 -0.2964  1.2480
 2888TIP3   OH230078   5.436   1.977  16.973 -0.8970 -0.8409  0.1929
 2888TIP3    H130079   5.427   2.042  17.043 -0.9079 -0.8037  0.1563
 2888TIP3    H230080   5.352   1.979  16.928 -0.1107  0.8072 -1.3065
 2889TIP3   OH230081   2.271   2.668   4.087 -0.2815 -0.6893 -0.2795
 2889TIP3    H130082   2.231   2.632   4.008 -0.0844 -0.0445 -0.6850
 2889TIP3    H230083   2.272   2.763   4.072 -0.2541 -0.5630  0.5045
 2890TIP3   OH230084   0.764   1.681   4.589 -0.0261 -0.6012 -0.5418
 2890TIP3    H130085   0.743   1.664   4.681 -2.9391 -2.0069 -1.3331
 2890TIP3    H230086   0.701   1.748   4.562  0.8180 -0.1817 -1.5263
 2891TIP3   OH230087   5.163   6.069  13.632 -0.1953 -0.4645  0.2879
 2891TIP3    H130088   5.091   6.125  13.601  0.7271 -0.3392 -1.8042
 2891TIP3    H230089   5.134   5.980  13.612  0.3593 -0.3893 -0.9566
 2892TIP3   OH230090   5.384   0.948   3.739 -0.2060  0.0055  0.1770
 2892TIP3    H130091   5.421   1.006   3.673  1.8006 -0.2015  1.0237
 2892TIP3    H230092   5.346   0.875   3.689  1.2754 -0.1585 -0.7655
 2893TIP3   OH230093   1.135   0.363  12.361 -0.4776 -0.1446 -0.4900
 2893TIP3    H130094   1.230   0.367  12.377 -0.5181  0.9075 -0.3889
 2893TIP3    H230095   1.124   0.406  12.276 -0.8765 -0.1132 -0.4214
 2894TIP3   OH230096   4.113   1.349   3.599  0.2846  0.5419  0.3447
 2894TIP3    H130097   4.022   1.379   3.599  0.7250  2.0426  1.8257
 2894TIP3    H230098   4.146   1.374   3.512 -0.4303  0.9083  0.1703
 2895TIP3   OH230099   6.470   0.123  10.991 -0.1443 -0.0488 -0.3936
 2895TIP3    H130100   6.375   0.118  10.977 -0.4099 -1.9220  1.5330
 2895TIP3    H230101   6.500   0.032  10.983  0.8381 -0.1146  2.6038
 2896TIP3   OH230102   5.811   4.832  12.279 -0.1776 -0.0230 -0.5621
 2896TIP3    H130103   5.778   4.764  12.220 -0.4700 -0.3443 -0.0353
 2896TIP3    H230104   5.743   4.899  12.279  0.0295  0.1847 -0.9442
 2897TIP3   OH230105   5.014   1.092   6.873 -0.6765  0.2607  0.3073
 2897TIP3    H130106   5.098   1.120   6.837 -1.1369  3.4425  1.4302
 2897TIP3    H230107   5.027   0.999   6.893  2.0015  0.2344 -1.0197
 2898TIP3   OH230108   2.703   5.664   2.610 -0.3735 -0.6089 -0.1107
 2898TIP3    H130109   2.631   5.647   2.672 -1.0790  0.8989 -0.4749
 2898TIP3    H230110   2.661   5.709   2.537  0.7677 -0.7485 -0.8675
 2899TIP3   OH230111   3.496   2.036   1.720  0.3922 -0.0027 -0.3759
 2899TIP3    H130112   3.497   1.942   1.733 -2.0698  0.1260  1.4572
 2899TIP3    H230113   3.448   2.071   1.795 -1.9015  2.3514 -2.6995
 2900TIP3   OH230114   5.999   3.513  13.000 -0.0844 -0.0689 -0.0079
 2900TIP3    H130115   6.056   3.468  12.938  1.4108  0.6872  0.7728
 2900TIP3    H230116   6.003   3.460  13.079 -0.3773  0.0458  0.0843
 2901TIP3   OH230117   1.975   1.895   6.900  0.4356 -0.0885 -0.2109
 2901TIP3    H130118   1.885   1.880   6.869  0.4134 -0.7899  0.1694
 2901TIP3    H230119   2.018   1.811   6.890  0.3398 -0.4505  1.9173
 2902TIP3   OH230120   6.634   0.722  13.043 -0.2841 -0.4096  0.4251
 2902TIP3    H130121   6.602   0.663  13.111  1.5480 -2.2268 -0.2247
 2902TIP3    H230122   6.605   0.682  12.961 -1.8183  1.3683  0.0180
 2903TIP3   OH230123   5.715   2.615   0.868 -0.2925 -0.8783  0.4288
 2903TIP3    H130124   5.805   2.603   0.898  0.4634  2.0672 -0.2650
 2903TIP3    H230125   5.687   2.529   0.838  1.7757 -2.1682  1.9392
 2904TIP3   OH230126   1.292   3.058   4.639 -0.5878 -0.0750  0.1721
 2904TIP3    H130127   1.304   3.121   4.710 -0.1082 -0.7938  0.7289
 2904TIP3    H230128   1.197   3.057   4.625 -0.6421  0.4312  0.4608
 2905TIP3   OH230129   1.457   6.415   6.878 -0.1732  0.0078  0.1670
 2905TIP3    H130130   1.517   6.349   6.912 -0.7112 -1.1588 -1.0374
 2905TIP3    H230131   1.505   6.456   6.806  0.3512  1.3367  1.2246
 2906TIP3   OH230132   0.423   3.973   4.253  0.1278 -0.1221 -0.0737
 2906TIP3    H130133   0.329   3.984   4.267 -0.0786 -0.0193 -1.3946
 2906TIP3    H230134   0.448   4.050   4.202  0.9582 -0.1088  0.3307
 2907TIP3   OH230135   2.331   4.199  13.947  0.1073  0.1602  0.8340
 2907TIP3    H130136   2.269   4.271  13.958 -0.8720 -0.3876 -0.6656
 2907TIP3    H230137   2.275   4.123  13.928  1.0937 -1.0938  2.6569
 2908TIP3   OH230138   4.149   0.941   5.910 -1.2416 -0.1226 -0.3245
 2908TIP3    H130139   4.126   0.855   5.876  0.9701 -1.0334  0.3166
 2908TIP3    H230140   4.176   0.925   6.001  1.9714  0.6871 -1.0154
 2909TIP3   OH230141   3.350   3.429  14.598  0.2492  0.6250  0.3119
 2909TIP3    H130142   3.439   3.408  14.624  0.2154  0.4250  0.2721
 2909TIP3    H230143   3.314   3.346  14.568 -0.1317  0.5853  0.8572
 2910TIP3   OH230144   2.700   3.978   1.531  0.3780  0.0242  0.4370
 2910TIP3    H130145   2.719   3.980   1.437 -1.4101  1.2267  0.0492
 2910TIP3    H230146   2.676   3.887   1.548  2.1351 -0.5508  0.0853
 2911TIP3   OH230147   6.232   1.580   5.140 -0.2022  0.2615  0.3042
 2911TIP3    H130148   6.204   1.638   5.211  1.7335  0.5944  0.8635
 2911TIP3    H230149   6.192   1.496   5.159 -0.6401  0.6565  1.1461
 2912TIP3   OH230150   5.023   1.543   0.002 -0.1329 -0.2381 -0.3529
 2912TIP3    H130151   4.977   1.619   0.038 -0.0774  0.0998 -0.9855
 2912TIP3    H230152   5.115   1.569   0.001 -0.2961  0.4678 -2.3847
 2913TIP3   OH230153   4.772   3.423  11.964  0.4126 -0.2773  0.2488
 2913TIP3    H130154   4.684   3.406  11.998  1.1677 -0.5702  2.1869
 2913TIP3    H230155   4.760   3.498  11.905 -1.2602 -0.8841 -0.2668
 2914TIP3   OH230156   6.455   6.218  17.207  0.4088  0.1639  0.6547
 2914TIP3    H130157   6.444   6.139  17.260 -1.4519  0.5412  0.9040
 2914TIP3    H230158   6.413   6.197  17.124 -2.1224  1.5617  1.4763
 2915TIP3   OH230159   1.402   4.569  11.723 -0.1221 -0.0381  0.2673
 2915TIP3    H130160   1.444   4.498  11.676 -1.4132  0.0186 -1.0168
 2915TIP3    H230161   1.312   4.541  11.734 -0.5037  1.1441  0.2637
 2916TIP3   OH230162   2.087   0.959   5.326 -0.0392  0.6385  0.6763
 2916TIP3    H130163   2.029   1.034   5.312 -1.6758 -0.7953 -0.6749
 2916TIP3    H230164   2.151   0.964   5.254 -0.8556  0.1313 -0.1014
 2917TIP3   OH230165   0.491   1.481  15.465  0.1724 -0.0587 -0.4013
 2917TIP3    H130166   0.478   1.397  15.510 -1.8810  1.2879  1.7576
 2917TIP3    H230167   0.412   1.492  15.411  0.4021  0.5243 -0.6290
 2918TIP3   OH230168   4.818   3.352   0.357  0.0300  0.8870  0.3338
 2918TIP3    H130169   4.732   3.311   0.363 -0.2802  1.6844  1.9117
 2918TIP3    H230170   4.877   3.281   0.332 -1.1103  0.3930 -1.0717
 2919TIP3   OH230171   2.593   6.605  16.465 -0.1384  0.1461 -0.0523
 2919TIP3    H130172   2.515   6.631  16.515 -0.5597 -1.8780  0.4613
 2919TIP3    H230173   2.654   6.677  16.476 -2.1325  2.0811 -0.9660
 2920TIP3   OH230174   0.385   4.023  13.560 -0.4932 -0.6665  0.0300
 2920TIP3    H130175   0.456   4.039  13.499 -1.4525  1.3864 -0.6431
 2920TIP3    H230176   0.320   3.974  13.510 -0.5393 -0.4989 -0.0758
 2921TIP3   OH230177   6.153   0.566   3.756 -0.1525 -0.3009  0.1192
 2921TIP3    H130178   6.186   0.621   3.685 -1.0290 -0.1593 -0.1997
 2921TIP3    H230179   6.195   0.600   3.835 -2.0035  2.0331  0.2000
 2922TIP3   OH230180   2.319   6.665   1.845  0.4820  0.5785 -0.0429
 2922TIP3    H130181   2.337   6.697   1.934 -0.7680 -0.6567  0.6965
 2922TIP3    H230182   2.405   6.660   1.804  1.1193  0.9302  1.1913
 2923TIP3   OH230183   0.703   5.043   2.152 -0.3127 -0.3270  0.6747
 2923TIP3    H130184   0.692   4.954   2.185 -0.9531 -0.3700  0.3643
 2923TIP3    H230185   0.735   5.092   2.228  2.7708 -1.3606  0.1586
 2924TIP3   OH230186   5.695   1.675  12.678  0.0866  0.0051  0.9224
 2924TIP3    H130187   5.665   1.694  12.589  1.0049 -0.5364  0.4765
 2924TIP3    H230188   5.643   1.732  12.734 -0.0581  0.8225 -0.0163
 2925TIP3   OH230189   4.201   2.755   1.363  0.0474 -0.3747 -0.2309
 2925TIP3    H130190   4.123   2.712   1.398 -0.5644 -0.3685 -1.5097
 2925TIP3    H230191   4.195   2.741   1.268  0.6795  1.1384 -0.5180
 2926TIP3   OH230192   4.867   3.616  17.111  0.1782 -0.2571  0.5443
 2926TIP3    H130193   4.890   3.709  17.113  1.1214 -0.4226 -1.1173
 2926TIP3    H230194   4.829   3.602  17.024  1.0253 -1.6317  0.3633
 2927TIP3   OH230195   4.167   5.669  13.226  0.0301  0.0244 -0.4080
 2927TIP3    H130196   4.162   5.732  13.299  1.3659 -0.5200  0.2051
 2927TIP3    H230197   4.093   5.611  13.239 -0.5280  0.7543 -0.2777
 2928TIP3   OH230198   3.492   5.246  13.920 -0.3354 -0.2852  0.2085
 2928TIP3    H130199   3.532   5.312  13.977  0.9923 -0.4562 -0.4843
 2928TIP3    H230200   3.548   5.169  13.930 -1.5190 -1.1258  0.5392
 2929TIP3   OH230201   6.200   5.255  14.233 -0.2054 -0.5651  0.7326
 2929TIP3    H130202   6.231   5.212  14.312 -0.7959 -2.7575 -0.1578
 2929TIP3    H230203   6.105   5.247  14.236 -0.3540  0.7987  0.5629
 2930TIP3   OH230204   2.656   3.182   5.193  0.2439 -0.0051  0.1019
 2930TIP3    H130205   2.565   3.186   5.164  0.1664 -0.2772  0.3008
 2930TIP3    H230206   2.661   3.247   5.263  0.2963  0.2701 -0.1542
 2931TIP3   OH230207   4.785   5.233   0.845 -0.1900 -0.0237  0.2174
 2931TIP3    H130208   4.709   5.230   0.903 -0.9022  1.4594 -0.5973
 2931TIP3    H230209   4.859   5.209   0.901 -0.8248  1.5239  1.7832
 2932TIP3   OH230210   1.677   0.501   1.587 -0.0972 -0.3762  0.4341
 2932TIP3    H130211   1.676   0.596   1.592  1.9076 -0.3714  1.4800
 2932TIP3    H230212   1.667   0.481   1.494  1.6503  0.9485 -0.0791
 2933TIP3   OH230213   4.078   5.831  15.186 -0.4066  0.8413  0.2467
 2933TIP3    H130214   4.004   5.868  15.235 -0.9347  0.3200 -0.1421
 2933TIP3    H230215   4.117   5.768  15.246 -0.6830  0.6416  0.2193
 2934TIP3   OH230216   4.757   6.434  13.093 -0.2953 -0.0346 -0.5647
 2934TIP3    H130217   4.677   6.481  13.070 -0.7783  0.1040  1.2182
 2934TIP3    H230218   4.749   6.420  13.188  1.5589 -0.4577 -0.4466
 2935TIP3   OH230219   5.763   3.136   0.861 -0.5342  0.4788  0.0413
 2935TIP3    H130220   5.745   3.042   0.859 -1.1867  0.5976 -0.7449
 2935TIP3    H230221   5.850   3.145   0.822 -0.2061  0.1571  0.6883
 2936TIP3   OH230222   1.452   5.388   1.697  0.6211 -0.2260 -0.2327
 2936TIP3    H130223   1.363   5.352   1.700  0.1818  0.8514  1.3786
 2936TIP3    H230224   1.443   5.475   1.736  1.8800  1.1067 -2.7339
 2937TIP3   OH230225   4.916   3.549   1.663 -0.0556 -0.1495 -0.1058
 2937TIP3    H130226   4.835   3.506   1.688  0.0060  0.1148  0.6008
 2937TIP3    H230227   4.955   3.577   1.747  0.6356 -0.0549 -0.4472
 2938TIP3   OH230228   3.928   5.550  14.121  0.3506 -0.2408  0.1233
 2938TIP3    H130229   3.985   5.483  14.084 -0.0023  0.0203 -0.9253
 2938TIP3    H230230   3.844   5.539  14.075 -0.4321 -0.5552  1.5626
 2939TIP3   OH230231   0.987   0.753   5.237  0.7479 -0.0774 -0.0814
 2939TIP3    H130232   0.984   0.848   5.245  2.8843  0.2907 -2.3853
 2939TIP3    H230233   0.897   0.728   5.215  0.5931  1.7325 -1.7999
 2940TIP3   OH230234   5.983   6.320   2.575 -0.1795 -0.6704 -0.0142
 2940TIP3    H130235   5.961   6.339   2.483  2.2767  0.5283 -0.4411
 2940TIP3    H230236   6.071   6.356   2.586 -0.2761 -1.0982  2.7488
 2941TIP3   OH230237   2.184   0.321   0.115  0.3272 -0.3622  0.3250
 2941TIP3    H130238   2.274   0.333   0.146  0.8862  0.1399 -1.3519
 2941TIP3    H230239   2.169   0.227   0.118  0.8882 -0.4396  0.6904
 2942TIP3   OH230240   0.462   2.705  11.780 -0.1269  0.4697  0.4172
 2942TIP3    H130241   0.460   2.716  11.685 -2.7450 -0.0155  0.3428
 2942TIP3    H230242   0.491   2.615  11.793 -1.8379 -0.1959 -0.0757
 2943TIP3   OH230243   0.292   3.105   5.318 -0.0732  0.1512 -0.5374
 2943TIP3    H130244   0.346   3.182   5.338  0.3542 -0.2572 -0.0956
 2943TIP3    H230245   0.231   3.099   5.391  2.7301 -2.4704  1.8476
 2944TIP3   OH230246   3.609   0.326   0.709  0.2657  0.1751 -0.5640
 2944TIP3    H130247   3.680   0.280   0.754 -0.0557  0.3363  0.1245
 2944TIP3    H230248   3.543   0.259   0.693  0.5086  0.0550 -1.0735
 2945TIP3   OH230249   2.488   5.956  12.061  0.3899 -0.3300 -0.4335
 2945TIP3    H130250   2.504   5.864  12.080 -2.6592 -0.6468  1.3023
 2945TIP3    H230251   2.519   5.968  11.971  2.1595 -2.6211 -0.2305
 2946TIP3   OH230252   6.471   4.085   1.069  0.4248 -0.3058 -0.2327
 2946TIP3    H130253   6.454   4.023   1.139 -1.1739  0.6181  0.2419
 2946TIP3    H230254   6.450   4.038   0.989 -0.0749 -0.6088  0.0730
 2947TIP3   OH230255   6.085   0.398  13.110  0.4524 -0.0837  0.3628
 2947TIP3    H130256   6.134   0.371  13.188  1.6483 -0.3078 -0.4266
 2947TIP3    H230257   6.007   0.441  13.144  0.7283 -0.5778  1.6756
 2948TIP3   OH230258   2.294   5.974  12.864  0.4907  0.8949 -0.0459
 2948TIP3    H130259   2.208   6.008  12.890 -0.0873 -0.2762 -0.3117
 2948TIP3    H230260   2.355   6.010  12.927 -0.4981  0.1904  1.3762
 2949TIP3   OH230261   5.330   5.697  15.023  0.2659  0.3004  0.0675
 2949TIP3    H130262   5.276   5.767  14.987  0.6762  1.5002  1.6812
 2949TIP3    H230263   5.388   5.673  14.950  0.1040  1.6309 -0.5450
 2950TIP3   OH230264   4.024   3.792   1.511  0.5305  0.0871 -0.2981
 2950TIP3    H130265   4.092   3.844   1.469  1.3121 -0.7778 -0.1375
 2950TIP3    H230266   3.971   3.856   1.559 -0.6183  1.1574 -2.8057
 2951TIP3   OH230267   2.475   3.455  11.298 -0.2767 -0.0028 -0.1731
 2951TIP3    H130268   2.463   3.365  11.267 -0.8667  0.0583 -0.1255
 2951TIP3    H230269   2.430   3.509  11.234  1.2406  0.3843 -0.9642
 2952TIP3   OH230270   2.633   3.230   4.614 -0.0312 -0.4179 -0.4318
 2952TIP3    H130271   2.626   3.324   4.635 -2.9200 -0.4014 -1.1108
 2952TIP3    H230272   2.624   3.186   4.699  1.6452 -0.1212 -0.0672
 2953TIP3   OH230273   3.519   5.719  11.636  0.0013  0.3289  0.4413
 2953TIP3    H130274   3.540   5.797  11.584  0.6744 -0.0174  0.1833
 2953TIP3    H230275   3.441   5.744  11.685 -0.5429  0.7393 -0.5863
 2954TIP3   OH230276   6.434   6.043  12.437  0.4322 -0.4465  0.2662
 2954TIP3    H130277   6.449   5.956  12.399  1.9062 -0.4614  0.8267
 2954TIP3    H230278   6.357   6.032  12.493 -0.2270 -1.0408 -0.7225
 2955TIP3   OH230279   0.552   1.338  13.159  0.0912 -0.1710  0.0678
 2955TIP3    H130280   0.488   1.383  13.102 -0.6777 -0.0583  1.0019
 2955TIP3    H230281   0.628   1.396  13.159 -0.4435  0.5416  0.2958
 2956TIP3   OH230282   5.971   2.755   1.736  0.0305  0.0625  0.5174
 2956TIP3    H130283   6.056   2.745   1.778  0.6156 -3.2563 -1.1276
 2956TIP3    H230284   5.991   2.750   1.642 -1.9710 -0.8073  0.0985
 2957TIP3   OH230285   4.252   1.943   1.572 -0.3136 -0.1158  0.1152
 2957TIP3    H130286   4.256   1.853   1.541 -1.2976 -0.9197  2.1262
 2957TIP3    H230287   4.173   1.979   1.530  0.2349 -0.0748 -0.9090
 2958TIP3   OH230288   4.712   1.214  15.007 -0.6197 -0.0352 -0.0309
 2958TIP3    H130289   4.722   1.259  15.091  1.2807  0.6729 -0.5850
 2958TIP3    H230290   4.683   1.282  14.946 -2.5198 -0.6592  0.1189
 2959TIP3   OH230291   0.687   2.975  15.414  0.1093 -0.1677 -0.2195
 2959TIP3    H130292   0.767   2.949  15.460 -0.1619 -1.4115 -0.4201
 2959TIP3    H230293   0.652   2.894  15.380 -0.8593  0.4675 -0.7695
 2960TIP3   OH230294   1.815   4.900  16.355  0.2572  0.3413  0.3228
 2960TIP3    H130295   1.758   4.936  16.423 -1.3244  0.1984 -0.8854
 2960TIP3    H230296   1.781   4.936  16.273  2.4916  1.0102 -0.3991
 2961TIP3   OH230297   0.039   1.102  17.102  0.1491 -0.0057 -0.4788
 2961TIP3    H130298   0.008   1.149  17.025  1.3617  0.7905 -0.5084
 2961TIP3    H230299   0.071   1.170  17.161  0.2997 -0.6778  0.2361
 2962TIP3   OH230300   4.071   5.572   3.667  0.4529  1.5124 -0.4243
 2962TIP3    H130301   4.104   5.545   3.581  0.5526 -0.2779  0.1334
 2962TIP3    H230302   4.139   5.546   3.728 -0.3764  1.1465  0.3698
 2963TIP3   OH230303   1.544   1.145   2.387 -0.3281  0.2769 -0.1376
 2963TIP3    H130304   1.551   1.099   2.471 -2.0654  2.0980  1.0905
 2963TIP3    H230305   1.451   1.140   2.365  0.2202 -1.0317 -2.5483
 2964TIP3   OH230306   4.152   2.125   2.116 -0.1390  0.1014  0.1265
 2964TIP3    H130307   4.219   2.073   2.160  0.4257  0.1418 -0.6647
 2964TIP3    H230308   4.104   2.167   2.187  0.8767  0.3298  0.6961
 2965TIP3   OH230309   3.843   5.257   5.429 -0.2294 -0.1242  0.4432
 2965TIP3    H130310   3.874   5.347   5.441  1.5482 -0.5616 -0.4121
 2965TIP3    H230311   3.768   5.264   5.370  1.5490  0.6473 -1.8746
 2966TIP3   OH230312   0.254   4.351  12.650 -0.0983  0.7054  0.5156
 2966TIP3    H130313   0.320   4.293  12.610  0.9166 -0.6013  3.7308
 2966TIP3    H230314   0.268   4.436  12.608  2.2002 -0.0562 -0.4360
 2967TIP3   OH230315   2.423   2.059   4.904 -0.5772 -0.4039  0.6715
 2967TIP3    H130316   2.436   2.078   4.811 -0.3410  1.9419  1.1274
 2967TIP3    H230317   2.330   2.038   4.912 -0.4998 -1.1020 -0.1459
 2968TIP3   OH230318   1.832   4.560  15.727 -0.1918  0.0675 -0.3448
 2968TIP3    H130319   1.920   4.523  15.733  0.0541  0.6033 -0.6242
 2968TIP3    H230320   1.779   4.488  15.692  0.3981  0.1269 -1.4222
 2969TIP3   OH230321   0.757   5.673   1.800  0.6311  0.1529 -0.4618
 2969TIP3    H130322   0.684   5.720   1.840 -0.0004  0.5449 -1.9901
 2969TIP3    H230323   0.802   5.739   1.747  0.5514 -0.6402 -1.5555
 2970TIP3   OH230324   5.412   4.813   5.011 -0.2035 -1.3332 -0.2753
 2970TIP3    H130325   5.326   4.836   5.044 -0.7904 -0.4694 -2.2480
 2970TIP3    H230326   5.453   4.764   5.082 -1.8790 -0.7986  1.1270
 2971TIP3   OH230327   2.843   0.083  12.379 -0.0525 -0.0918  1.0629
 2971TIP3    H130328   2.802   0.010  12.332  0.2162  0.7391 -0.5430
 2971TIP3    H230329   2.936   0.074  12.360 -0.1459  1.4380 -0.3868
 2972TIP3   OH230330   0.909   5.950  16.685  0.2688 -0.1044  0.7123
 2972TIP3    H130331   0.838   5.908  16.638  1.2282 -1.8410  0.7377
 2972TIP3    H230332   0.925   6.031  16.637  0.2011 -1.0958 -1.0325
 2973TIP3   OH230333   0.146   5.871   0.451 -0.6954  0.3468 -0.0316
 2973TIP3    H130334   0.110   5.801   0.506  0.8937 -0.5629 -0.0824
 2973TIP3    H230335   0.200   5.922   0.510  1.2819 -0.8280 -0.7389
 2974TIP3   OH230336   1.588   4.420   6.772  0.0166 -0.2922  0.0290
 2974TIP3    H130337   1.509   4.371   6.796 -1.0896  2.3211  2.2226
 2974TIP3    H230338   1.640   4.422   6.852 -0.3375  2.6055  0.2910
 2975TIP3   OH230339   3.875   0.816   2.900  0.5112 -0.7179 -0.0642
 2975TIP3    H130340   3.865   0.903   2.862  0.6681 -0.3392  0.7441
 2975TIP3    H230341   3.803   0.808   2.962  0.4927 -1.1696 -0.1407
 2976TIP3   OH230342   1.069   4.040   2.245  0.6741  0.3783  0.5305
 2976TIP3    H130343   1.121   4.011   2.319  1.7260  0.8531 -0.0077
 2976TIP3    H230344   1.121   4.017   2.168 -0.6272 -0.5784 -0.1098
 2977TIP3   OH230345   5.513   6.577  16.053 -0.1260  0.0740  0.3490
 2977TIP3    H130346   5.510   6.635  15.977  0.0180  0.4200  0.6035
 2977TIP3    H230347   5.557   6.629  16.120  0.2340 -0.4282  0.5009
 2978TIP3   OH230348   0.896   5.505  12.620  0.0837 -0.2526 -0.0234
 2978TIP3    H130349   0.860   5.473  12.538  0.4865  1.1374 -0.7849
 2978TIP3    H230350   0.983   5.465  12.625 -0.5759 -1.6744  0.5988
 2979TIP3   OH230351   5.336   4.284   1.924 -0.0807  0.0921  0.2741
 2979TIP3    H130352   5.332   4.310   2.016 -0.5280  0.0999  0.2546
 2979TIP3    H230353   5.376   4.197   1.925  0.1378  0.1936  0.4547
 2980TIP3   OH230354   3.088   5.660  16.768  0.0180  0.0118  0.5031
 2980TIP3    H130355   3.016   5.603  16.739 -0.4324  0.9256 -0.2255
 2980TIP3    H230356   3.139   5.605  16.827 -1.0541 -0.7891  0.7284
 2981TIP3   OH230357   1.364   2.441   7.027  0.1325  0.4755  0.6675
 2981TIP3    H130358   1.344   2.347   7.023  1.7615  0.0761  1.3094
 2981TIP3    H230359   1.332   2.469   7.112  0.6862  0.2298  0.9616
 2982TIP3   OH230360   2.271   2.647  12.841 -0.0959 -0.5010  0.5115
 2982TIP3    H130361   2.208   2.581  12.870  0.6533 -0.8138  1.4829
 2982TIP3    H230362   2.301   2.616  12.756 -2.7090  0.6855 -0.9528
 2983TIP3   OH230363   5.557   5.657   1.381 -0.3983  0.7266 -0.0805
 2983TIP3    H130364   5.565   5.726   1.447 -0.7042  0.7006 -0.0155
 2983TIP3    H230365   5.553   5.704   1.297 -3.4329  1.0039  0.1070
 2984TIP3   OH230366   5.440   3.122   5.394  0.0934 -0.7066  0.3972
 2984TIP3    H130367   5.523   3.166   5.413  0.0788 -0.8206  0.7342
 2984TIP3    H230368   5.435   3.120   5.299  0.9026 -1.4999  0.3574
 2985TIP3   OH230369   1.462   2.127  17.438 -0.6605  0.6320  0.1113
 2985TIP3    H130370   1.371   2.121  17.412  0.2017  1.4384 -3.6646
 2985TIP3    H230371   1.495   2.037  17.432 -0.8661  0.5636  0.0075
 2986TIP3   OH230372   4.654   5.403  12.350 -0.0804 -0.0373 -0.6026
 2986TIP3    H130373   4.702   5.375  12.428  0.3004  0.0505 -0.8014
 2986TIP3    H230374   4.646   5.498  12.361 -1.2051 -0.1930 -0.0193
 2987TIP3   OH230375   2.992   6.287  16.818 -0.1380 -0.4137 -0.6492
 2987TIP3    H130376   3.023   6.306  16.730  2.6915  1.4137  0.5814
 2987TIP3    H230377   3.070   6.259  16.866 -1.3196 -0.1872  1.5470
 2988TIP3   OH230378   4.958   6.334   6.121 -0.1482 -0.0987  0.5267
 2988TIP3    H130379   4.890   6.296   6.178  0.0423 -0.9928  0.1765
 2988TIP3    H230380   5.010   6.389   6.179 -1.3893  0.9015  0.7347
 2989TIP3   OH230381   6.686   1.962  16.796 -0.2681 -0.1108  0.2049
 2989TIP3    H130382   6.676   2.055  16.774 -0.1509  0.0734  0.9260
 2989TIP3    H230383   6.613   1.920  16.751 -0.4946  0.3704  0.1071
 2990TIP3   OH230384   5.889   3.117  11.446 -0.4554  0.8183  0.7008
 2990TIP3    H130385   5.966   3.151  11.492  0.1652  2.6083 -1.4615
 2990TIP3    H230386   5.907   3.135  11.354 -2.4204 -0.9514 -0.0935
 2991TIP3   OH230387   2.210   0.588   1.382  0.0145  0.0089 -0.3279
 2991TIP3    H130388   2.230   0.681   1.390 -0.7479  0.3520 -1.9877
 2991TIP3    H230389   2.255   0.547   1.456 -0.2672  1.7805  0.8652
 2992TIP3   OH230390   3.124   6.354  12.312 -0.0083  0.5014  0.3307
 2992TIP3    H130391   3.162   6.338  12.226  0.3595  1.2221  0.3512
 2992TIP3    H230392   3.172   6.430  12.345 -1.0990  1.0868  0.5922
 2993TIP3   OH230393   4.401   4.261  12.647  0.0398  0.7450 -0.2937
 2993TIP3    H130394   4.444   4.296  12.725  0.7445 -1.1944  0.2644
 2993TIP3    H230395   4.427   4.319  12.576  0.2825  1.9186  0.7317
 2994TIP3   OH230396   5.291   5.602  17.501  0.2858 -0.1159 -0.5055
 2994TIP3    H130397   5.328   5.683  17.467 -1.9100  0.8435 -0.8135
 2994TIP3    H230398   5.230   5.631  17.570  0.2032 -1.5853  0.0768
 2995TIP3   OH230399   3.682   3.619   0.267  0.3871  0.3476  0.3307
 2995TIP3    H130400   3.611   3.638   0.329  0.0454  0.0523  0.0339
 2995TIP3    H230401   3.744   3.566   0.317 -0.6970 -1.3531 -0.0376
 2996TIP3   OH230402   3.790   2.022  15.736  0.3157  0.4900 -0.1854
 2996TIP3    H130403   3.760   2.011  15.645 -1.3337  0.0625  0.3850
 2996TIP3    H230404   3.837   2.106  15.735 -3.2276  2.6726 -0.6362
 2997TIP3   OH230405   3.100   2.670  15.742  0.5614  0.3109 -0.4111
 2997TIP3    H130406   3.139   2.682  15.828 -2.2558 -0.3155  1.0455
 2997TIP3    H230407   3.145   2.593  15.706  1.8597  0.6615  0.3810
 2998TIP3   OH230408   6.112   3.276  13.844  0.3490 -0.1449 -0.1356
 2998TIP3    H130409   6.048   3.236  13.903  1.1906  0.7197  1.4243
 2998TIP3    H230410   6.081   3.253  13.756 -2.5793  0.9251  0.4892
 2999TIP3   OH230411   2.359   0.672   2.007 -0.1565  0.2546 -0.2516
 2999TIP3    H130412   2.444   0.707   2.031 -0.3758 -0.4105  1.6282
 2999TIP3    H230413   2.357   0.583   2.043 -1.1088 -0.2754 -1.5095
 3000TIP3   OH230414   4.175   3.338   4.485 -0.2812  0.0564 -0.2912
 3000TIP3    H130415   4.180   3.299   4.572  1.1203  0.3099 -0.2420
 3000TIP3    H230416   4.210   3.426   4.496  0.5375 -0.1381 -1.2480
 3001TIP3   OH230417   1.830   4.002  13.030 -0.3999  0.1449 -0.0277
 3001TIP3    H130418   1.838   3.956  12.946  0.0100 -1.8058  1.0408
 3001TIP3    H230419   1.847   3.936  13.096 -1.0907  1.5581  1.6466
 3002TIP3   OH230420   2.975   2.551  13.378 -0.0677 -0.0278  0.0439
 3002TIP3    H130421   2.996   2.458  13.388  0.6035  0.0837 -0.2798
 3002TIP3    H230422   3.045   2.597  13.425 -1.2218  0.2966  1.5547
 3003TIP3   OH230423   3.194   4.814  16.636  0.3972  0.3765  0.5718
 3003TIP3    H130424   3.268   4.755  16.653  0.3888  0.2924  0.3228
 3003TIP3    H230425   3.213   4.892  16.688  1.2353  0.8187 -0.3669
 3004TIP3   OH230426   2.797   0.451  12.226  0.3242  0.5650  0.3812
 3004TIP3    H130427   2.890   0.433  12.221 -0.0473 -1.3202 -1.5784
 3004TIP3    H230428   2.784   0.529  12.173  0.5218 -0.7901 -1.7908
 3005TIP3   OH230429   1.128   4.898   4.951 -0.4778 -1.0407 -0.1745
 3005TIP3    H130430   1.177   4.828   4.995 -0.5558 -0.6573  0.5475
 3005TIP3    H230431   1.036   4.875   4.964 -0.5011 -0.9072 -0.0922
 3006TIP3   OH230432   3.463   1.361   6.123 -0.0312  0.0889  0.1452
 3006TIP3    H130433   3.411   1.374   6.202 -0.7320 -0.0186 -0.2928
 3006TIP3    H230434   3.399   1.363   6.052  0.4447 -0.9620 -0.3254
 3007TIP3   OH230435   0.807   4.648  16.543  0.0794 -0.2866  0.5163
 3007TIP3    H130436   0.884   4.593  16.558  0.6119  0.3029 -0.0345
 3007TIP3    H230437   0.809   4.712  16.614 -1.0896 -1.5215  1.7576
 3008TIP3   OH230438   6.559   6.562  12.127 -0.0050  0.1140 -0.4715
 3008TIP3    H130439   6.638   6.615  12.131  0.3416 -0.3568 -0.9525
 3008TIP3    H230440   6.574   6.491  12.190  0.1693 -0.2556 -0.9257
 3009TIP3   OH230441   2.633   5.769   2.909  0.0292  0.4616  0.1164
 3009TIP3    H130442   2.700   5.742   2.972 -0.6695  0.3200  0.8275
 3009TIP3    H230443   2.680   5.780   2.827  0.7961 -0.3393  0.4280
 3010TIP3   OH230444   3.265   3.179   0.082 -0.2768 -0.1737 -0.2456
 3010TIP3    H130445   3.251   3.255   0.026 -1.1575  1.3165  1.8378
 3010TIP3    H230446   3.360   3.167   0.084 -0.2509 -0.9814 -2.8339
 3011TIP3   OH230447   0.409   2.605  16.867 -0.3636 -0.6928  0.0509
 3011TIP3    H130448   0.408   2.695  16.899  0.2956 -1.4781  2.4343
 3011TIP3    H230449   0.497   2.594  16.830  0.3182 -0.9750  1.7113
 3012TIP3   OH230450   4.738   1.515  16.632 -0.1321 -0.2028  0.5262
 3012TIP3    H130451   4.648   1.491  16.608 -0.0088  1.0483 -1.3587
 3012TIP3    H230452   4.781   1.532  16.549  1.2421  1.3497  1.5175
 3013TIP3   OH230453   5.617   1.013   2.570  0.0624  0.5605 -0.2605
 3013TIP3    H130454   5.647   0.931   2.529 -1.7528 -0.4921  0.4033
 3013TIP3    H230455   5.574   1.061   2.500  1.6836  1.2889 -0.8056
 3014TIP3   OH230456   5.164   2.116   2.225  0.5276  0.0605 -0.7389
 3014TIP3    H130457   5.153   2.022   2.207  0.4095 -0.3529  1.2247
 3014TIP3    H230458   5.243   2.120   2.279 -0.3093  0.8747  0.4930
 3015TIP3   OH230459   0.426   5.334   2.086  0.0108 -0.1953  0.6482
 3015TIP3    H130460   0.478   5.369   2.014  0.4081 -1.7976  0.1167
 3015TIP3    H230461   0.458   5.379   2.164  1.1691 -0.0988  0.1278
 3016TIP3   OH230462   3.420   0.157   3.770 -0.0779  0.4103 -0.2000
 3016TIP3    H130463   3.397   0.189   3.857  0.5107  0.3690 -0.0240
 3016TIP3    H230464   3.410   0.062   3.775  1.0015  0.2960  0.1614
 3017TIP3   OH230465   6.045   5.621  12.630  0.4791 -0.7795 -0.2151
 3017TIP3    H130466   5.993   5.585  12.702  0.6903 -0.0633  0.3160
 3017TIP3    H230467   5.989   5.611  12.553 -0.6547  0.3494  0.4067
 3018TIP3   OH230468   3.190   2.150  12.668 -0.2027 -0.0525 -0.0896
 3018TIP3    H130469   3.160   2.169  12.579  0.9986 -1.0297 -0.7300
 3018TIP3    H230470   3.144   2.070  12.692 -0.6189  0.2770  0.2284
 3019TIP3   OH230471   4.221   4.323  12.105  0.6879 -0.0056  0.3762
 3019TIP3    H130472   4.213   4.237  12.146 -1.1066 -0.3918 -0.6463
 3019TIP3    H230473   4.226   4.385  12.178 -0.6169 -0.8020  1.1852
 3020TIP3   OH230474   2.182   6.074   0.051  0.1634 -0.3839 -0.0797
 3020TIP3    H130475   2.133   6.137   0.104  1.5829  1.0271 -0.3545
 3020TIP3    H230476   2.257   6.050   0.107  0.9125  0.0360 -0.8705
 3021TIP3   OH230477   2.760   4.484   5.135 -0.2281 -0.1306 -0.9076
 3021TIP3    H130478   2.838   4.448   5.092  0.0020 -1.0180  0.2052
 3021TIP3    H230479   2.753   4.435   5.217 -1.2572  0.7910 -0.4195
 3022TIP3   OH230480   4.154   2.960  15.126 -0.4771  0.6398  0.4905
 3022TIP3    H130481   4.097   2.890  15.094 -1.6152  1.2831  1.0560
 3022TIP3    H230482   4.140   3.032  15.065 -1.5807  1.3815  1.5778
 3023TIP3   OH230483   0.042   1.421   1.894 -0.1348  0.1943  0.3721
 3023TIP3    H130484   0.119   1.477   1.906  0.1828  0.0641 -0.9542
 3023TIP3    H230485   0.067   1.360   1.825 -0.5156 -1.5674  1.7246
 3024TIP3   OH230486   0.647   3.842   2.011  0.1114  0.0105  0.3474
 3024TIP3    H130487   0.614   3.914   1.956  2.8343  0.4410 -0.8887
 3024TIP3    H230488   0.698   3.886   2.079  1.3288 -0.7022 -0.0795
 3025TIP3   OH230489   3.051   2.416  14.599  0.4274 -0.0687  0.1392
 3025TIP3    H130490   3.129   2.424  14.654  1.5584  2.1396 -1.6362
 3025TIP3    H230491   2.989   2.479  14.636 -0.2873 -1.2653  1.0719
 3026TIP3   OH230492   0.371   0.108   1.129  0.1036  0.1974 -0.2434
 3026TIP3    H130493   0.397   0.151   1.210  1.0166 -1.9794  0.6984
 3026TIP3    H230494   0.309   0.041   1.156  1.4910 -1.5062 -1.1054
 3027TIP3   OH230495   5.414   5.603   2.284 -0.5391 -0.0468  0.6219
 3027TIP3    H130496   5.451   5.630   2.200  0.6522 -0.9808  0.8094
 3027TIP3    H230497   5.324   5.576   2.263 -0.7731  1.1756 -0.0574
 3028TIP3   OH230498   1.988   4.549  15.194 -0.1599 -0.0627  0.0021
 3028TIP3    H130499   1.902   4.507  15.193  0.8809 -2.3748  0.8017
 3028TIP3    H230500   1.989   4.603  15.115 -2.7007  0.8753  0.5238
 3029TIP3   OH230501   4.590   5.869  14.062 -0.8392  0.3155  0.0977
 3029TIP3    H130502   4.581   5.937  14.129  0.7523  2.2165 -1.4450
 3029TIP3    H230503   4.550   5.907  13.984 -0.2628 -0.6859 -0.7185
 3030TIP3   OH230504   0.195   0.055  16.760  0.0731 -0.0562 -0.5311
 3030TIP3    H130505   0.124   0.119  16.762  0.4223  0.3311  1.3858
 3030TIP3    H230506   0.158  -0.022  16.803  0.0265 -0.7630 -1.7986
 3031TIP3   OH230507   5.342   2.346   1.011 -0.1904 -0.1443 -0.8380
 3031TIP3    H130508   5.320   2.355   1.103 -0.4317  0.1360 -0.9221
 3031TIP3    H230509   5.369   2.255   1.001 -0.0685 -0.1490 -0.4717
 3032TIP3   OH230510   2.007   1.361   3.979  0.2623 -1.1216 -0.1108
 3032TIP3    H130511   2.097   1.343   4.007  0.3109 -0.9781 -0.1718
 3032TIP3    H230512   2.016   1.430   3.913  0.2554 -2.1990 -1.2749
 3033TIP3   OH230513   4.495   6.137  15.687  0.4742  0.7868  0.0970
 3033TIP3    H130514   4.495   6.168  15.777  1.4477  0.2986  0.2699
 3033TIP3    H230515   4.402   6.130  15.665  0.2247  0.6833  1.1373
 3034TIP3   OH230516   5.345   4.624   4.191  0.4790  0.1725 -0.0243
 3034TIP3    H130517   5.431   4.603   4.156  0.1296  0.1358 -0.8863
 3034TIP3    H230518   5.362   4.654   4.280  1.2428 -1.1095  0.2781
 3035TIP3   OH230519   4.423   5.589  13.241  0.6321  0.5188 -0.3702
 3035TIP3    H130520   4.332   5.618  13.249  0.1547 -0.7875 -0.7755
 3035TIP3    H230521   4.471   5.668  13.218 -0.5659  1.0557 -1.1526
 3036TIP3   OH230522   3.189   1.758   0.334 -0.8470 -0.3562  0.1641
 3036TIP3    H130523   3.212   1.741   0.426 -0.1270 -1.7703 -0.2340
 3036TIP3    H230524   3.143   1.679   0.306 -1.3343  0.1890 -0.6079
 3037TIP3   OH230525   2.568   5.400  15.937  0.3506  0.5947 -0.0409
 3037TIP3    H130526   2.660   5.413  15.961  0.3590  0.4527  0.0068
 3037TIP3    H230527   2.519   5.416  16.018  0.3649  0.2937  0.0301
 3038TIP3   OH230528   4.265   0.806  11.994 -0.3951 -0.0240  0.4722
 3038TIP3    H130529   4.219   0.729  11.960  0.9376  0.0378 -1.7176
 3038TIP3    H230530   4.198   0.874  11.997 -0.7184 -0.1575 -1.8217
 3039TIP3   OH230531   5.966   0.679   0.898 -0.0260  0.0109 -0.0241
 3039TIP3    H130532   5.984   0.735   0.823 -0.1786  1.1290  0.7342
 3039TIP3    H230533   5.910   0.610   0.864 -0.1777  0.5604 -0.9234
 3040TIP3   OH230534   5.730   3.977  13.523 -0.1728 -0.2679 -0.3586
 3040TIP3    H130535   5.647   4.022  13.537 -0.7360 -1.2856 -0.3313
 3040TIP3    H230536   5.708   3.905  13.462  0.2800 -1.7091  1.1115
 3041TIP3   OH230537   5.745   4.588   6.399  0.0772 -0.0700 -0.2697
 3041TIP3    H130538   5.729   4.631   6.483 -0.4587  0.5531 -0.6793
 3041TIP3    H230539   5.725   4.496   6.415  1.0754 -0.1589  0.5812
 3042TIP3   OH230540   2.035   5.610  17.113 -0.2241 -0.0419 -0.2214
 3042TIP3    H130541   2.050   5.630  17.206  0.9241  1.4398 -0.6775
 3042TIP3    H230542   2.123   5.602  17.076 -0.6407  0.6675 -1.4246
 3043TIP3   OH230543   0.917   1.705  15.463 -0.6004  0.2875  0.0254
 3043TIP3    H130544   0.826   1.720  15.438 -0.8876  0.5888  1.1726
 3043TIP3    H230545   0.950   1.643  15.398 -1.7606 -0.1789 -0.1479
 3044TIP3   OH230546   6.015   2.064  14.744 -0.3371  0.2027  0.6257
 3044TIP3    H130547   5.995   2.043  14.652  2.8167  0.4803 -0.2232
 3044TIP3    H230548   5.958   2.138  14.764 -1.9679 -0.6221 -0.6775
 3045TIP3   OH230549   6.380   0.301   6.541  0.3022  0.9614 -0.4741
 3045TIP3    H130550   6.340   0.243   6.477 -0.4821  2.0891 -1.0279
 3045TIP3    H230551   6.323   0.296   6.618  1.0680 -0.1427  0.0525
 3046TIP3   OH230552   3.738   6.620   4.524  0.0832  0.1548  0.1591
 3046TIP3    H130553   3.660   6.674   4.506  0.9510  1.6020  0.5495
 3046TIP3    H230554   3.812   6.680   4.511  1.0078 -0.2157  2.9633
 3047TIP3   OH230555   3.181   2.245  13.134  0.1544  0.2601  0.0799
 3047TIP3    H130556   3.207   2.273  13.222  0.5498 -0.6903  0.2779
 3047TIP3    H230557   3.242   2.291  13.075  0.4641  0.2071  0.3575
 3048TIP3   OH230558   6.228   1.995  16.777 -0.1791 -0.3715  0.3484
 3048TIP3    H130559   6.157   1.946  16.818 -1.1549  0.7293  0.0186
 3048TIP3    H230560   6.203   2.000  16.684  0.0262  0.5277  0.3352
 3049TIP3   OH230561   6.520   2.761   2.459  0.4021  0.1955  0.6132
 3049TIP3    H130562   6.488   2.824   2.523  1.7147  0.5496  0.9377
 3049TIP3    H230563   6.562   2.692   2.510  1.0949  0.2722  0.1588
 3050TIP3   OH230564   1.032   3.469  17.191 -0.1522  0.5210 -0.1796
 3050TIP3    H130565   0.979   3.397  17.227  0.4909  0.2744  0.2827
 3050TIP3    H230566   0.978   3.547  17.205 -0.1650  0.3466  0.7897
 3051TIP3   OH230567   1.173   3.192   2.929 -0.4946  0.0290  0.0212
 3051TIP3    H130568   1.179   3.148   3.014  0.2445  0.9260  0.4462
 3051TIP3    H230569   1.172   3.285   2.950  1.8019  0.3655 -1.0049
 3052TIP3   OH230570   5.600   1.921  11.597 -0.1592 -0.3625  0.0144
 3052TIP3    H130571   5.543   1.993  11.570  0.4140  0.1073  0.0409
 3052TIP3    H230572   5.599   1.861  11.523 -0.9999 -0.5503  0.1714
 3053TIP3   OH230573   4.923   3.732  15.185  0.4293  0.6661 -0.1546
 3053TIP3    H130574   4.952   3.783  15.109  1.3727  0.6159  0.1599
 3053TIP3    H230575   4.994   3.671  15.201  0.7511  1.4166  1.4562
 3054TIP3   OH230576   0.662   3.556  11.864  0.3831 -0.3660  0.4386
 3054TIP3    H130577   0.716   3.520  11.793  0.8092 -0.0090  0.5822
 3054TIP3    H230578   0.671   3.492  11.935  2.7413  0.9448  1.4251
 3055TIP3   OH230579   0.983   3.389  14.231  0.4951 -0.0903 -0.0586
 3055TIP3    H130580   0.918   3.326  14.199  1.1356 -0.7720 -0.0477
 3055TIP3    H230581   0.977   3.383  14.326  0.0126  0.4416 -0.0526
 3056TIP3   OH230582   5.701   6.011   0.310  0.2090  0.0292  0.3760
 3056TIP3    H130583   5.654   5.951   0.368 -0.8101  0.4553  0.0115
 3056TIP3    H230584   5.657   6.095   0.323 -0.5404 -0.0241 -1.5757
 3057TIP3   OH230585   6.708   6.641  14.680  0.2491 -0.0560  0.0638
 3057TIP3    H130586   6.634   6.684  14.723  1.4022  1.5418  0.5523
 3057TIP3    H230587   6.782   6.656  14.739  1.3386 -0.0127 -1.2709
 3058TIP3   OH230588   4.619   2.746  14.110 -0.4530  0.0277  0.0812
 3058TIP3    H130589   4.653   2.827  14.148 -0.3306  0.1191 -0.2165
 3058TIP3    H230590   4.697   2.697  14.085 -0.5264 -0.2265  0.3532
 3059TIP3   OH230591   5.929   4.425  17.074 -0.1178  0.2500 -0.3003
 3059TIP3    H130592   5.898   4.447  17.162 -2.4346 -1.5816 -0.5532
 3059TIP3    H230593   5.859   4.457  17.016 -0.3616 -1.7140 -1.1484
 3060TIP3   OH230594   1.636   5.074   3.240 -0.2362  0.0333 -0.1125
 3060TIP3    H130595   1.551   5.100   3.207  0.6631  1.8221 -1.1445
 3060TIP3    H230596   1.674   5.154   3.276  0.4642 -1.0229  1.6114
 3061TIP3   OH230597   0.906   4.975  17.336  0.0649 -0.1436 -0.1101
 3061TIP3    H130598   0.991   4.932  17.341 -0.5085 -1.1715  1.1317
 3061TIP3    H230599   0.909   5.024  17.253  2.0521  0.2829  0.1730
 3062TIP3   OH230600   5.078   0.626   5.660  0.4107 -0.1014 -0.6420
 3062TIP3    H130601   5.123   0.649   5.579 -2.0428 -0.3414 -2.1737
 3062TIP3    H230602   5.095   0.532   5.671  1.9639  0.2223 -0.0109
 3063TIP3   OH230603   0.740   0.450   0.428 -0.1790  0.4673 -0.2022
 3063TIP3    H130604   0.814   0.421   0.374 -0.8615 -1.5985 -0.1124
 3063TIP3    H230605   0.695   0.369   0.452 -1.8471  1.6021  0.6626
 3064TIP3   OH230606   2.680   3.710  15.940 -0.5861  0.0397  0.3413
 3064TIP3    H130607   2.645   3.734  15.854 -1.4807 -1.7714  0.1620
 3064TIP3    H230608   2.763   3.757  15.946  0.0870 -0.7044 -2.0318
 3065TIP3   OH230609   0.707   3.940  16.748 -0.5274  0.0943 -0.2266
 3065TIP3    H130610   0.681   4.026  16.714  0.6717  0.7113  0.3478
 3065TIP3    H230611   0.637   3.916  16.809 -1.1526  0.3869 -0.8094
 3066TIP3   OH230612   6.085   5.180  17.489 -0.3610  0.8477 -0.8946
 3066TIP3    H130613   6.075   5.087  17.510  0.5905  0.1522 -3.1102
 3066TIP3    H230614   6.126   5.218  17.567  1.6978 -1.1938 -0.8456
 3067TIP3   OH230615   0.643   5.604   5.406 -0.5455 -0.0612 -0.1503
 3067TIP3    H130616   0.683   5.640   5.485  0.9763 -0.8676 -0.5135
 3067TIP3    H230617   0.679   5.516   5.398  0.1136  0.3274 -2.2399
 3068TIP3   OH230618   0.361   0.798   0.586  0.1909 -0.3035 -0.1746
 3068TIP3    H130619   0.422   0.864   0.552  0.1650  0.4371  1.1514
 3068TIP3    H230620   0.282   0.848   0.608 -0.2718 -0.9812 -0.2868
 3069TIP3   OH230621   4.637   2.026   2.021 -0.3049  0.3039  0.5560
 3069TIP3    H130622   4.551   2.020   1.980 -1.1111  0.6314  2.1472
 3069TIP3    H230623   4.673   2.108   1.987 -1.0776  0.7242  0.7335
 3070TIP3   OH230624   2.901   3.797   2.660  0.1438  0.9667 -0.1951
 3070TIP3    H130625   2.983   3.749   2.657  0.6469  1.7931  0.0466
 3070TIP3    H230626   2.927   3.889   2.660 -0.7689  1.2338  0.2822
 3071TIP3   OH230627   6.097   3.800   2.070 -0.7113 -0.8992 -0.1982
 3071TIP3    H130628   6.035   3.728   2.077 -0.6294 -0.8409  1.3934
 3071TIP3    H230629   6.145   3.799   2.153  0.4399 -0.0533 -0.8236
 3072TIP3   OH230630   3.155   3.360  14.825  0.5085 -0.2737 -0.0178
 3072TIP3    H130631   3.143   3.349  14.731  0.9637  1.6031 -0.3303
 3072TIP3    H230632   3.207   3.440  14.834 -0.1355 -0.0111  1.8629
 3073TIP3   OH230633   1.160   6.385  16.905 -0.4354  0.0732  0.2882
 3073TIP3    H130634   1.146   6.470  16.947 -0.4245 -0.1592  0.7654
 3073TIP3    H230635   1.191   6.407  16.817  0.6331  0.5545  0.7707
 3074TIP3   OH230636   5.879   5.572   2.112 -0.2270 -0.2973 -0.5454
 3074TIP3    H130637   5.822   5.502   2.081 -0.2650 -0.4685 -0.1010
 3074TIP3    H230638   5.966   5.548   2.081  0.0029 -1.2875  0.7899
 3075TIP3   OH230639   4.959   6.010  12.341 -0.2585 -0.1855  0.4499
 3075TIP3    H130640   4.896   6.082  12.336  0.5468  0.5056 -0.0579
 3075TIP3    H230641   4.929   5.957  12.414 -3.0551 -1.4356 -1.4023
 3076TIP3   OH230642   6.363   2.797  17.312  0.2857  0.3522 -0.1642
 3076TIP3    H130643   6.277   2.776  17.274  0.0598  1.2613 -0.1839
 3076TIP3    H230644   6.372   2.736  17.386 -0.1496 -0.0897 -0.4657
 3077TIP3   OH230645   2.521   6.103   0.610  0.5855 -0.0733  0.0173
 3077TIP3    H130646   2.438   6.064   0.637 -0.2831  0.7924 -1.3092
 3077TIP3    H230647   2.519   6.101   0.515  1.0053  2.1001 -0.0899
 3078TIP3   OH230648   1.115   0.757  17.077 -0.4781 -0.4457 -0.0808
 3078TIP3    H130649   1.178   0.703  17.126 -1.8124 -1.0244  1.0646
 3078TIP3    H230650   1.136   0.740  16.985 -0.1252 -2.0455  0.2549
 3079TIP3   OH230651   5.202   2.838  12.189  1.0584  0.3938 -0.7699
 3079TIP3    H130652   5.155   2.764  12.150  0.3763  0.9145 -0.9705
 3079TIP3    H230653   5.182   2.911  12.130 -1.4175  1.6285  1.3865
 3080TIP3   OH230654   3.748   5.935   1.991  0.0345 -0.2584 -0.1571
 3080TIP3    H130655   3.709   5.968   2.071  1.4434  1.0174  0.0512
 3080TIP3    H230656   3.746   5.840   2.000 -3.6970 -0.3638 -0.5412
 3081TIP3   OH230657   2.576   6.620   0.933 -0.0788 -0.7989 -0.1604
 3081TIP3    H130658   2.609   6.709   0.943  0.8207 -0.7569 -2.7788
 3081TIP3    H230659   2.491   6.629   0.890 -0.5652 -1.1888  0.6815
 3082TIP3   OH230660   2.333   0.043   0.229 -0.6715  0.2563 -0.1153
 3082TIP3    H130661   2.375  -0.021   0.287 -1.1556 -0.1459 -0.1960
 3082TIP3    H230662   2.387   0.122   0.237  0.3349 -0.3653 -0.5204
 3083TIP3   OH230663   3.029   0.879   2.572 -0.0410 -0.4384  0.2654
 3083TIP3    H130664   3.075   0.807   2.528 -0.1608 -1.5018  1.7862
 3083TIP3    H230665   2.948   0.839   2.605 -0.3753  0.5395  0.6671
 3084TIP3   OH230666   3.446   1.465  16.550  0.0494  0.0647 -0.2363
 3084TIP3    H130667   3.537   1.434  16.551 -0.4913 -1.6767 -1.4792
 3084TIP3    H230668   3.429   1.490  16.641  1.0925 -1.6953  0.4806
 3085TIP3   OH230669   5.935   6.535  17.431 -0.1181  0.0835  0.2205
 3085TIP3    H130670   5.895   6.597  17.491 -1.6253 -0.1645 -0.4719
 3085TIP3    H230671   6.017   6.576  17.404 -0.1657  0.8808  1.2486
 3086TIP3   OH230672   2.107   5.971   5.288 -0.3319  0.4527 -0.0034
 3086TIP3    H130673   2.168   6.045   5.283  0.4750 -0.2733 -1.9519
 3086TIP3    H230674   2.082   5.954   5.197 -0.5738 -1.5915  0.3941
 3087TIP3   OH230675   4.141   1.831   6.713  0.2982 -0.5759  0.0530
 3087TIP3    H130676   4.100   1.748   6.690  1.4955 -1.3236  0.5099
 3087TIP3    H230677   4.210   1.842   6.648  1.5593 -1.0601  1.2648
 3088TIP3   OH230678   1.342   0.645  12.277 -0.3763  0.6947  0.0575
 3088TIP3    H130679   1.354   0.696  12.196  0.1235  0.1499 -0.2201
 3088TIP3    H230680   1.394   0.692  12.342  0.5281  0.2611 -0.3253
 3089TIP3   OH230681   2.002   5.111   5.347 -0.1278  0.0385 -0.0628
 3089TIP3    H130682   2.011   5.015   5.352 -0.7777 -0.1126 -1.4439
 3089TIP3    H230683   2.063   5.137   5.278  0.8051  0.7673  0.9956
 3090TIP3   OH230684   4.182   2.775   3.294  0.4594 -0.2686  0.4805
 3090TIP3    H130685   4.139   2.794   3.378  0.8604 -0.0310  0.6369
 3090TIP3    H230686   4.258   2.722   3.318  0.0492 -1.0013  0.1688
 3091TIP3   OH230687   4.564   5.907  16.594 -0.1525  0.2303  0.4292
 3091TIP3    H130688   4.598   5.984  16.639 -1.8639  0.2810  1.7410
 3091TIP3    H230689   4.476   5.932  16.566 -1.4172 -1.6778  2.3215
 3092TIP3   OH230690   5.155   1.344  13.331 -0.2199 -0.0185  0.1030
 3092TIP3    H130691   5.238   1.303  13.307  0.2987  1.0340  0.0690
 3092TIP3    H230692   5.172   1.385  13.416 -0.7865 -0.0191  0.2210
 3093TIP3   OH230693   0.446   2.295   0.442  0.0889 -0.4667  0.3567
 3093TIP3    H130694   0.535   2.278   0.411  1.2695  2.5194  1.7483
 3093TIP3    H230695   0.419   2.374   0.396 -1.4770 -0.7543  0.7235
 3094TIP3   OH230696   1.504   1.967   3.124 -0.9091  0.1324 -0.3610
 3094TIP3    H130697   1.491   2.060   3.143 -0.9064  0.1242 -0.3171
 3094TIP3    H230698   1.540   1.965   3.036  0.8976  0.2902  0.3291
 3095TIP3   OH230699   2.878   3.119   3.472  0.1759  0.4103 -0.0844
 3095TIP3    H130700   2.881   3.150   3.382 -0.0921 -1.7255 -0.8789
 3095TIP3    H230701   2.968   3.094   3.492 -0.0154 -0.4899 -0.2995
 3096TIP3   OH230702   6.632   4.120   0.560  0.0034  0.5575 -0.3966
 3096TIP3    H130703   6.651   4.052   0.625  0.4782 -0.4836 -1.5834
 3096TIP3    H230704   6.537   4.128   0.560  0.0112  0.7908  0.6271
 3097TIP3   OH230705   0.919   2.824   2.059  0.2349 -0.0181  0.1348
 3097TIP3    H130706   0.859   2.830   2.134 -0.7863  2.3270 -0.7463
 3097TIP3    H230707   0.986   2.762   2.087 -1.5855 -1.3556  1.9016
 3098TIP3   OH230708   6.442   5.301   1.391  0.1617  0.1617 -0.3269
 3098TIP3    H130709   6.460   5.211   1.417  1.1035  0.5737  0.5143
 3098TIP3    H230710   6.347   5.310   1.400 -0.3078 -1.4443 -2.8087
 3099TIP3   OH230711   1.834   2.085  15.421 -0.0525  0.4235 -0.1363
 3099TIP3    H130712   1.922   2.083  15.459 -0.2380 -0.9653  0.2704
 3099TIP3    H230713   1.837   2.019  15.352 -0.2475  1.6749 -1.3843
 3100TIP3   OH230714   6.029   0.881   1.729  0.0384 -0.8597 -0.0117
 3100TIP3    H130715   6.121   0.876   1.702  0.3518  1.6661  0.3673
 3100TIP3    H230716   5.983   0.909   1.650 -0.0892 -0.1929  0.2954
 3101TIP3   OH230717   1.524   6.694   6.039 -0.1276 -0.2609 -0.2796
 3101TIP3    H130718   1.586   6.662   5.974  0.9175  0.1449  0.5042
 3101TIP3    H230719   1.459   6.624   6.045  0.7158 -1.0847 -0.4719
 3102TIP3   OH230720   5.636   0.663  12.053  0.5146 -0.2943  0.0002
 3102TIP3    H130721   5.616   0.711  11.973  0.9972 -0.3848 -0.1796
 3102TIP3    H230722   5.681   0.726  12.109  0.2398 -0.2509  0.1723
 3103TIP3   OH230723   3.829   3.285  16.484 -0.1516 -0.6453  0.5516
 3103TIP3    H130724   3.849   3.205  16.434  0.0713  1.1946 -2.5561
 3103TIP3    H230725   3.915   3.321  16.505 -0.2530 -0.4902  0.6971
 3104TIP3   OH230726   5.368   1.318  13.865  0.3314  0.0260 -0.4070
 3104TIP3    H130727   5.379   1.370  13.945 -1.8102 -0.2579  0.1452
 3104TIP3    H230728   5.330   1.380  13.802  1.4273  0.0854 -1.0370
 3105TIP3   OH230729   6.525   4.325   1.197  0.7091  0.1188 -0.1572
 3105TIP3    H130730   6.488   4.240   1.170  0.4505  0.3902 -0.6762
 3105TIP3    H230731   6.495   4.337   1.287 -1.8728  1.0824 -1.0704
 3106TIP3   OH230732   2.102   2.185  12.098 -0.2281 -0.2499 -0.2857
 3106TIP3    H130733   2.125   2.254  12.160 -1.1670 -1.4854  1.5473
 3106TIP3    H230734   2.178   2.127  12.096 -1.1183 -1.5979  1.8127
 3107TIP3   OH230735   5.103   3.780  11.896  0.1381 -0.2805  0.4570
 3107TIP3    H130736   5.088   3.732  11.815 -0.3855 -0.2585  0.5413
 3107TIP3    H230737   5.195   3.761  11.918  0.8254  1.0763 -1.0311
 3108TIP3   OH230738   2.463   1.217   1.733  0.2260  0.2887 -0.2525
 3108TIP3    H130739   2.433   1.202   1.643 -4.2443  0.1504  0.9967
 3108TIP3    H230740   2.533   1.153   1.746  1.1760  0.4541 -3.6272
 3109TIP3   OH230741   1.969   5.116  14.473  0.1586  0.4460  0.4274
 3109TIP3    H130742   2.052   5.068  14.474  0.8162  1.2106 -3.1814
 3109TIP3    H230743   1.977   5.178  14.546  2.0565 -0.5363  1.1421
 3110TIP3   OH230744   1.057   4.718  16.155  0.2187  0.0910  0.1826
 3110TIP3    H130745   0.997   4.643  16.152 -1.6523  1.5534 -0.8134
 3110TIP3    H230746   1.076   4.738  16.064  0.0402  1.2996  0.3913
 3111TIP3   OH230747   2.189   6.338  17.328  0.0158  0.0591 -0.2816
 3111TIP3    H130748   2.152   6.393  17.260  1.3686 -0.8156 -1.7927
 3111TIP3    H230749   2.135   6.259  17.327 -1.2135  0.8248  1.1049
 3112TIP3   OH230750   6.637   0.347  11.601  0.1723 -0.1636  0.2496
 3112TIP3    H130751   6.623   0.419  11.662  0.5175  0.2415 -0.1403
 3112TIP3    H230752   6.550   0.324  11.570 -0.0315 -0.5517  1.0887
 3113TIP3   OH230753   4.857   4.164  11.274  0.4203 -0.0675  0.3650
 3113TIP3    H130754   4.861   4.150  11.368  1.4318 -1.0726  0.1919
 3113TIP3    H230755   4.938   4.126  11.240  0.8522  1.7192 -0.7414
 3114TIP3   OH230756   6.538   1.498   0.732  0.0467 -0.0970  0.3556
 3114TIP3    H130757   6.554   1.428   0.795 -0.1426 -0.4759 -0.0123
 3114TIP3    H230758   6.452   1.478   0.695 -0.1736  0.5356  0.5136
 3115TIP3   OH230759   4.741   2.251  16.702  0.3316 -0.3881 -0.2954
 3115TIP3    H130760   4.786   2.326  16.664 -2.2135  2.2761  1.4852
 3115TIP3    H230761   4.665   2.237  16.644 -0.6077  0.1616  0.7655
 3116TIP3   OH230762   0.651   4.611   2.935 -0.5369  0.1026  0.4317
 3116TIP3    H130763   0.734   4.569   2.956 -1.7607 -1.5389  2.2970
 3116TIP3    H230764   0.636   4.672   3.007 -1.0799  0.1938  0.2448
 3117TIP3   OH230765   0.499   1.401   5.250 -0.0414 -0.3279  0.3751
 3117TIP3    H130766   0.491   1.357   5.335  1.0554 -0.4934  0.4110
 3117TIP3    H230767   0.562   1.472   5.266 -1.0637  0.6827  0.0826
 3118TIP3   OH230768   1.416   1.864   4.557  0.5918  0.2351  0.3272
 3118TIP3    H130769   1.457   1.878   4.472  0.8280 -0.3410  0.3372
 3118TIP3    H230770   1.352   1.934   4.566  1.9472  1.4798  0.5558
 3119TIP3   OH230771   1.008   5.917   5.677 -0.4146 -0.1455 -0.4832
 3119TIP3    H130772   0.933   5.976   5.677 -0.8494 -0.6317 -2.1442
 3119TIP3    H230773   1.084   5.974   5.669 -0.5568  0.3569  1.2954
 3120TIP3   OH230774   0.320   3.679   3.326  0.3114  0.1155 -0.0363
 3120TIP3    H130775   0.259   3.747   3.295 -0.2964  0.0488  0.9546
 3120TIP3    H230776   0.300   3.603   3.272 -0.8933 -0.0702  0.6226
 3121TIP3   OH230777   5.109   4.592   5.759 -0.4969  0.7360  0.0498
 3121TIP3    H130778   5.127   4.511   5.711 -1.4672  1.1438 -1.0547
 3121TIP3    H230779   5.135   4.573   5.849 -0.9706 -0.9014 -0.1293
 3122TIP3   OH230780   4.692   3.183   1.322 -0.6768  0.6383  0.2659
 3122TIP3    H130781   4.723   3.268   1.353 -1.5057  1.8038 -1.8658
 3122TIP3    H230782   4.759   3.121   1.349  1.7164  2.5040 -1.0642
 3123TIP3   OH230783   2.699   4.724  13.180 -0.3738  0.3941  0.4528
 3123TIP3    H130784   2.606   4.703  13.190  0.0230 -0.9968  1.4587
 3123TIP3    H230785   2.716   4.787  13.250 -0.7277  1.3618 -0.2941
 3124TIP3   OH230786   0.031   5.027  14.419 -0.0813 -0.5551  0.1395
 3124TIP3    H130787   0.071   5.039  14.332  0.8343 -0.4232  0.5678
 3124TIP3    H230788   0.007   5.115  14.447  2.1409 -0.2051  1.1714
 3125TIP3   OH230789   1.876   3.240  12.846  0.5592  0.2652  0.2514
 3125TIP3    H130790   1.964   3.212  12.870  1.0009  0.0874 -1.4384
 3125TIP3    H230791   1.819   3.167  12.871  1.0343 -0.0789  0.3292
 3126TIP3   OH230792   1.467   3.048  17.421  0.5429 -0.6341  0.1169
 3126TIP3    H130793   1.410   2.972  17.414 -1.8758  1.1452 -1.0669
 3126TIP3    H230794   1.417   3.112  17.471  1.8124  0.7515 -0.2947
 3127TIP3   OH230795   2.342   3.798  12.427  0.3189  0.0634 -0.0034
 3127TIP3    H130796   2.388   3.768  12.348  1.5558 -1.4102  1.2223
 3127TIP3    H230797   2.261   3.748  12.428  1.0663 -1.1769  0.5106
 3128TIP3   OH230798   4.328   5.634  15.961  0.2171 -0.0370  0.3893
 3128TIP3    H130799   4.316   5.623  15.866  1.1854  0.7278  0.1623
 3128TIP3    H230800   4.395   5.703  15.969  0.2040 -0.1477  1.6293
 3129TIP3   OH230801   3.207   1.383   2.095 -0.3979  0.4942 -0.0360
 3129TIP3    H130802   3.148   1.450   2.059  1.1116  1.2878 -1.1437
 3129TIP3    H230803   3.294   1.411   2.067  0.6278 -0.1783  2.2503
 3130TIP3   OH230804   4.417   1.996   1.840  0.1279  0.0750 -0.1538
 3130TIP3    H130805   4.366   1.932   1.791 -0.3578 -1.0958  1.7504
 3130TIP3    H230806   4.360   2.073   1.847 -1.5997 -1.2570  2.0693
 3131TIP3   OH230807   5.371   5.498   4.073  0.6951 -0.3438  0.6650
 3131TIP3    H130808   5.351   5.570   4.133  0.4261 -0.6262  0.9190
 3131TIP3    H230809   5.289   5.448   4.067  0.6019 -0.1022 -0.2353
 3132TIP3   OH230810   4.961   2.671   0.876  0.4621 -0.0649 -0.2858
 3132TIP3    H130811   5.021   2.598   0.858 -0.8228 -1.5951  1.2248
 3132TIP3    H230812   4.892   2.632   0.930 -1.3396  1.8493 -1.0636
 3133TIP3   OH230813   4.938   1.967  16.524 -0.1085  0.4347  0.2134
 3133TIP3    H130814   5.012   1.946  16.466 -1.2555 -0.3502 -1.0183
 3133TIP3    H230815   4.917   2.058  16.503  0.4484  0.6439  0.5275
 3134TIP3   OH230816   0.005   5.141   5.502 -0.1467 -0.1246  0.2874
 3134TIP3    H130817   0.077   5.089   5.468 -0.5472 -0.6059  0.1659
 3134TIP3    H230818   0.045   5.225   5.524  0.6110 -0.6494  0.9754
 3135TIP3   OH230819   0.942   4.784   3.079 -0.0202  0.1904 -0.0439
 3135TIP3    H130820   0.930   4.864   3.029  1.4591  0.8615  0.6268
 3135TIP3    H230821   0.943   4.715   3.013  2.3035  1.0970 -1.0572
 3136TIP3   OH230822   4.409   4.342   3.767 -0.4973  0.6249  0.8529
 3136TIP3    H130823   4.450   4.280   3.828  0.8825  0.7664  0.1001
 3136TIP3    H230824   4.482   4.382   3.721 -1.4926  0.3995 -1.0263
 3137TIP3   OH230825   4.592   5.406  17.514  0.6028 -0.3088  0.0914
 3137TIP3    H130826   4.673   5.367  17.481  1.9865  2.0884  0.4051
 3137TIP3    H230827   4.587   5.378  17.605  0.4404 -1.3702 -0.2264
 3138TIP3   OH230828   3.880   3.485   0.703  0.3129 -0.7078 -0.1628
 3138TIP3    H130829   3.916   3.455   0.787 -0.8421  1.0428  1.0368
 3138TIP3    H230830   3.790   3.455   0.703 -0.8713  2.4513  1.0612
 3139TIP3   OH230831   6.387   3.724  15.763 -0.5389  0.2056 -0.0525
 3139TIP3    H130832   6.435   3.804  15.787 -1.4226  0.5015  0.7978
 3139TIP3    H230833   6.329   3.708  15.837 -2.4315  0.3925 -1.4208
 3140TIP3   OH230834   6.294   1.274   3.123 -0.1960  0.0659 -0.0235
 3140TIP3    H130835   6.246   1.197   3.152  1.6023 -1.4556 -0.8376
 3140TIP3    H230836   6.276   1.280   3.029  0.6458 -0.1297 -0.2092
 3141TIP3   OH230837   0.630   0.895  14.057  0.1506 -0.1223  0.0146
 3141TIP3    H130838   0.685   0.909  13.980  0.0672 -0.9728 -0.2162
 3141TIP3    H230839   0.544   0.930  14.033  0.3712  0.4710  0.0775
 3142TIP3   OH230840   3.462   0.630  12.800 -0.3105 -0.3926 -0.5645
 3142TIP3    H130841   3.510   0.689  12.742 -1.0424  0.1998 -0.5941
 3142TIP3    H230842   3.379   0.613  12.754  0.3831 -2.4952 -1.1498
 3143TIP3   OH230843   4.283   3.140   2.879 -0.5925  0.2191  0.1399
 3143TIP3    H130844   4.194   3.106   2.884 -1.0961  1.3230 -0.8019
 3143TIP3    H230845   4.294   3.190   2.960 -0.8061  0.0377  0.2807
 3144TIP3   OH230846   5.608   0.272   2.380  0.0613 -0.3252 -0.0930
 3144TIP3    H130847   5.689   0.321   2.390 -0.5702  0.6530  0.3579
 3144TIP3    H230848   5.551   0.305   2.450  0.1183 -2.7743  1.2307
 3145TIP3   OH230849   3.681   0.227   1.854  0.8961  0.5390  0.2049
 3145TIP3    H130850   3.651   0.136   1.852 -2.7292  1.6096 -0.4633
 3145TIP3    H230851   3.700   0.245   1.946  1.4772 -0.7712  0.3700
 3146TIP3   OH230852   5.137   4.282  13.773 -0.3600 -0.0096  0.4772
 3146TIP3    H130853   5.177   4.297  13.858  0.1124  2.0992 -0.0420
 3146TIP3    H230854   5.204   4.308  13.710 -1.0244 -0.6141 -0.5090
 3147TIP3   OH230855   6.230   0.638   1.049  0.0976  0.3041 -0.1272
 3147TIP3    H130856   6.279   0.573   0.999  0.6326  0.7804 -0.2356
 3147TIP3    H230857   6.148   0.649   1.001 -0.4026 -0.9693  0.4056
 3148TIP3   OH230858   3.464   3.568  13.668  0.9321 -0.3442  0.1247
 3148TIP3    H130859   3.417   3.548  13.749 -0.2967 -0.9696 -0.7113
 3148TIP3    H230860   3.426   3.509  13.603 -0.4482  2.3214 -1.6754
 3149TIP3   OH230861   1.611   1.624  15.549  0.0660  0.2701 -0.3263
 3149TIP3    H130862   1.599   1.628  15.643 -0.0066  0.9695 -0.3621
 3149TIP3    H230863   1.558   1.550  15.521  0.9872 -0.6531  0.3164
 3150TIP3   OH230864   6.559   0.730   1.331  0.1984 -0.4285 -0.2892
 3150TIP3    H130865   6.550   0.635   1.325  0.7932 -0.5209  0.0949
 3150TIP3    H230866   6.472   0.765   1.312 -0.3833 -1.1227  0.9794
 3151TIP3   OH230867   6.109   1.391   2.287 -0.4465  0.2543  0.2533
 3151TIP3    H130868   6.068   1.476   2.306  0.7281  0.6792  1.0721
 3151TIP3    H230869   6.156   1.369   2.368 -0.7714 -1.2138  0.0701
 3152TIP3   OH230870   4.599   5.940  11.449  0.1223  0.3593 -0.1152
 3152TIP3    H130871   4.541   5.867  11.469 -0.2080  0.0833 -1.8925
 3152TIP3    H230872   4.652   5.909  11.375  0.3977  1.6951 -0.5151
 3153TIP3   OH230873   2.532   5.106  16.831 -0.0279  0.5957  0.0499
 3153TIP3    H130874   2.536   5.034  16.894  3.1817  0.6325  0.0435
 3153TIP3    H230875   2.440   5.132  16.830 -1.4329 -3.5932 -0.0901
 3154TIP3   OH230876   5.421   5.385  15.316  0.0279 -0.0713 -0.2743
 3154TIP3    H130877   5.398   5.296  15.342  0.9118 -0.8794 -2.0746
 3154TIP3    H230878   5.337   5.425  15.293 -0.1455 -1.5203 -2.4819
 3155TIP3   OH230879   6.253   3.339   0.516 -0.4944  0.2518  0.3774
 3155TIP3    H130880   6.167   3.375   0.538  0.2745  1.8223  0.9980
 3155TIP3    H230881   6.242   3.244   0.524 -1.9418  0.4630  1.3294
 3156TIP3   OH230882   4.683   6.262  13.728 -0.2048 -0.1824 -0.6506
 3156TIP3    H130883   4.748   6.325  13.696 -0.7316  0.0194 -1.3418
 3156TIP3    H230884   4.722   6.176  13.711  0.8119 -0.0725  0.8998
 3157TIP3   OH230885   3.386   3.095  11.214 -0.3341 -0.8359 -0.2683
 3157TIP3    H130886   3.386   3.027  11.281 -1.0155  0.4320  1.0528
 3157TIP3    H230887   3.294   3.104  11.188 -0.5760  0.9789  1.0696
 3158TIP3   OH230888   2.234   6.592  16.736 -0.0165 -0.1249  0.0164
 3158TIP3    H130889   2.168   6.534  16.697 -3.4345  1.2245  3.1266
 3158TIP3    H230890   2.275   6.539  16.804  1.0415 -0.5094 -0.9037
 3159TIP3   OH230891   0.106   5.779  13.639 -0.5796  0.0903 -0.6028
 3159TIP3    H130892   0.075   5.693  13.667 -1.3168  0.7111  0.5402
 3159TIP3    H230893   0.028   5.834  13.640  0.0208  0.9555 -0.5746
 3160TIP3   OH230894   5.527   6.286  12.948  0.0043  0.3027 -0.8718
 3160TIP3    H130895   5.545   6.306  12.856 -0.3019 -1.0049 -1.2344
 3160TIP3    H230896   5.484   6.201  12.946 -0.5627  0.5403  0.4461
 3161TIP3   OH230897   1.624   5.588  16.822 -0.3697 -0.2117 -0.7682
 3161TIP3    H130898   1.667   5.655  16.875 -1.6608  0.2266 -0.2329
 3161TIP3    H230899   1.687   5.517  16.817 -0.1697 -0.2255  1.2900
 3162TIP3   OH230900   5.656   5.572  11.789  0.0200 -0.3696 -0.1583
 3162TIP3    H130901   5.705   5.628  11.728  1.2096  1.5026  2.3542
 3162TIP3    H230902   5.715   5.500  11.808  0.2445 -0.1771 -0.1181
 3163TIP3   OH230903   6.404   4.663  17.076  0.2805  0.4779  0.0020
 3163TIP3    H130904   6.420   4.711  16.994 -1.4881 -2.1704 -2.0439
 3163TIP3    H230905   6.317   4.624  17.065  0.7890 -1.5790  2.3406
 3164TIP3   OH230906   4.621   2.944   0.888  0.3812 -0.4782  0.5384
 3164TIP3    H130907   4.601   2.989   0.970 -1.9513  2.5572 -1.4718
 3164TIP3    H230908   4.714   2.959   0.874  0.9091 -1.3750  2.7083
 3165TIP3   OH230909   2.478   3.522  14.093 -0.6155  0.3195  0.0479
 3165TIP3    H130910   2.420   3.452  14.062 -0.2969  0.4275 -0.8172
 3165TIP3    H230911   2.561   3.478  14.111 -0.7631  0.2793  0.6394
 3166TIP3   OH230912   5.582   1.196   2.965 -0.0593  0.3980 -0.0763
 3166TIP3    H130913   5.678   1.196   2.960 -0.0540  1.0030 -0.1153
 3166TIP3    H230914   5.559   1.289   2.968 -0.5911  0.2520  1.0595
 3167TIP3   OH230915   5.843   5.361  11.319 -0.0576 -0.2486 -0.6273
 3167TIP3    H130916   5.770   5.419  11.296  0.3422  0.4861 -0.0994
 3167TIP3    H230917   5.878   5.399  11.399  2.5544  0.9625 -2.2252
 3168TIP3   OH230918   2.610   1.310  12.114  0.2080  0.1412  0.2449
 3168TIP3    H130919   2.648   1.249  12.178  0.2899  0.5093  0.5463
 3168TIP3    H230920   2.563   1.374  12.167  0.6108  0.6791 -0.0445
 3169TIP3   OH230921   3.971   5.348  16.961  0.1460  0.1408  0.4381
 3169TIP3    H130922   3.900   5.292  16.993  0.4852 -0.7613 -0.3008
 3169TIP3    H230923   3.927   5.421  16.918 -0.4295 -1.2992 -1.5800
 3170TIP3   OH230924   2.296   1.675   6.634  0.2410 -0.1002 -0.3047
 3170TIP3    H130925   2.256   1.592   6.659  0.5664 -0.1580  0.0508
 3170TIP3    H230926   2.379   1.677   6.683 -0.4557  1.1077  0.8878
 3171TIP3   OH230927   4.847   2.566  13.401  0.6297  0.4479  0.2213
 3171TIP3    H130928   4.803   2.628  13.343 -0.8095 -0.8866 -0.1815
 3171TIP3    H230929   4.809   2.583  13.487 -0.2168 -0.2543 -0.0018
 3172TIP3   OH230930   1.016   3.891   4.520 -0.5888  0.3410 -0.2265
 3172TIP3    H130931   1.014   3.924   4.610 -1.0119 -0.5792  0.1137
 3172TIP3    H230932   1.100   3.846   4.513 -0.5360  0.4511 -0.3136
 3173TIP3   OH230933   4.424   4.874   1.635 -0.9129  0.8262 -0.2211
 3173TIP3    H130934   4.380   4.795   1.605  0.8733 -0.0553 -0.6350
 3173TIP3    H230935   4.518   4.854   1.628 -0.4061  2.0886  2.0447
 3174TIP3   OH230936   0.413   3.467   6.825  0.7899 -0.2345 -0.0886
 3174TIP3    H130937   0.403   3.412   6.903  0.7772  0.5903  0.5157
 3174TIP3    H230938   0.508   3.471   6.811  0.8607  0.4241  0.5022
 3175TIP3   OH230939   0.193   4.082   3.903 -0.1156 -0.5876 -0.8530
 3175TIP3    H130940   0.268   4.112   3.954 -0.1466  0.0152 -1.1475
 3175TIP3    H230941   0.176   4.154   3.841  1.3258 -2.1679 -3.2646
 3176TIP3   OH230942   6.402   6.167  15.711  0.1217 -0.1628 -0.4810
 3176TIP3    H130943   6.324   6.198  15.756  0.4735  0.9268 -0.5687
 3176TIP3    H230944   6.416   6.232  15.641  0.6535 -0.7783 -0.9632
 3177TIP3   OH230945   0.054   2.983  13.354 -0.5199  0.1633 -0.6047
 3177TIP3    H130946   0.094   3.066  13.328  0.5112  0.2397  1.0368
 3177TIP3    H230947  -0.040   2.996  13.338 -0.1495  0.8042 -2.4557
 3178TIP3   OH230948   3.265   3.680   2.057 -0.0225 -0.2247 -0.3757
 3178TIP3    H130949   3.325   3.664   2.129  1.0463 -0.0098 -1.1969
 3178TIP3    H230950   3.321   3.703   1.983 -0.9682 -2.0138 -1.7418
 3179TIP3   OH230951   0.106   1.906  15.820 -0.0950 -0.9640  0.3344
 3179TIP3    H130952   0.091   1.878  15.729  1.9461 -1.5474  0.1271
 3179TIP3    H230953   0.194   1.943  15.819  0.0392 -1.1472  2.1285
 3180TIP3   OH230954   5.804   4.879   0.836  0.4328 -0.1555  0.0679
 3180TIP3    H130955   5.822   4.792   0.871  2.9652  0.6220  0.8792
 3180TIP3    H230956   5.799   4.865   0.741  2.4104 -1.0075  0.0376
 3181TIP3   OH230957   6.198   5.163  17.118 -0.0444 -0.2044 -0.1194
 3181TIP3    H130958   6.192   5.077  17.160  1.1671  0.3806  1.3438
 3181TIP3    H230959   6.274   5.205  17.159 -0.4510  1.4706 -0.9731
 3182TIP3   OH230960   6.157   6.422   0.555  0.6847  0.1186 -0.7803
 3182TIP3    H130961   6.099   6.348   0.536  0.1720  0.4608 -0.5770
 3182TIP3    H230962   6.165   6.468   0.471  2.0949 -0.9035 -1.2436
 3183TIP3   OH230963   0.946   5.329   5.681 -0.2001 -0.3432  0.4212
 3183TIP3    H130964   0.863   5.316   5.727  1.9030 -3.0411  3.9233
 3183TIP3    H230965   0.963   5.423   5.689 -2.4226  0.1235  0.3741
 3184TIP3   OH230966   0.955   0.841   6.986 -0.0695 -0.5360  0.2718
 3184TIP3    H130967   0.996   0.762   7.022  0.7738 -1.1257 -1.8005
 3184TIP3    H230968   1.021   0.910   6.998  0.7113 -0.9974 -1.0970
 3185TIP3   OH230969   0.425   5.439   6.196 -0.1046  0.7858  0.1562
 3185TIP3    H130970   0.335   5.468   6.177 -0.2161  0.5312  0.2958
 3185TIP3    H230971   0.480   5.504   6.153 -0.3267  2.4684  2.2139
 3186TIP3   OH230972   5.474   0.513  15.549  0.2726 -0.1867  0.2243
 3186TIP3    H130973   5.421   0.558  15.614 -3.0073 -1.3120 -1.4450
 3186TIP3    H230974   5.453   0.420  15.560  0.6438 -0.5230 -1.5515
 3187TIP3   OH230975   6.338   0.843  13.974  0.5898 -1.0158  0.1189
 3187TIP3    H130976   6.265   0.878  13.923  0.7196 -0.8712  0.0317
 3187TIP3    H230977   6.298   0.814  14.056  0.6262  0.2713  0.6098
 3188TIP3   OH230978   3.207   5.817   1.560 -0.3483 -0.1332 -0.6269
 3188TIP3    H130979   3.211   5.912   1.573  0.1749 -0.4048  1.7082
 3188TIP3    H230980   3.289   5.795   1.516 -0.6920  0.5282 -1.6323
 3189TIP3   OH230981   5.169   3.551   4.469  0.0829  0.5031  0.0497
 3189TIP3    H130982   5.113   3.548   4.546  1.1861  1.5274  0.9279
 3189TIP3    H230983   5.136   3.482   4.412 -0.0903 -0.9974  1.8866
 3190TIP3   OH230984   1.827   6.273  16.909 -0.4000 -0.0603 -0.0655
 3190TIP3    H130985   1.869   6.209  16.852 -2.1350 -1.1719 -0.1796
 3190TIP3    H230986   1.799   6.343  16.851  0.1675  0.0696 -0.1787
 3191TIP3   OH230987   0.110   0.686  16.381 -0.5845 -0.4748  0.1859
 3191TIP3    H130988   0.132   0.677  16.474 -0.3605  0.2897  0.2152
 3191TIP3    H230989   0.195   0.694  16.337 -0.7052 -0.4227 -0.0397
 3192TIP3   OH230990   3.339   0.603   3.370  0.2672  0.2709  0.1589
 3192TIP3    H130991   3.341   0.509   3.386  0.2991  0.0448 -1.0610
 3192TIP3    H230992   3.252   0.620   3.335  0.5069  0.5653 -0.3076
 3193TIP3   OH230993   2.281   3.856  15.658 -0.2606  0.3875  0.2251
 3193TIP3    H130994   2.233   3.785  15.614  0.7076 -0.6668  0.8105
 3193TIP3    H230995   2.226   3.880  15.732 -0.4433 -0.0014  0.2204
 3194TIP3   OH230996   3.765   2.831  15.779  0.1262  0.5480  0.2299
 3194TIP3    H130997   3.851   2.791  15.791  0.5988  1.1908 -0.8893
 3194TIP3    H230998   3.744   2.816  15.687 -1.5778 -0.7559  0.7770
 3195TIP3   OH230999   1.912   4.489   0.346  0.4021  0.2302 -0.1435
 3195TIP3    H131000   2.004   4.485   0.370  0.9040  2.0046 -1.4871
 3195TIP3    H231001   1.912   4.490   0.250 -1.1239 -1.1360 -0.2019
 3196TIP3   OH231002   1.743   6.274  15.601  0.1413 -0.3037  0.0600
 3196TIP3    H131003   1.726   6.187  15.563  0.8707 -0.5305  0.2362
 3196TIP3    H231004   1.737   6.334  15.527  1.6824 -0.7580 -0.4608
 3197TIP3   OH231005   6.594   3.561   4.865 -0.3255 -0.1100  0.1257
 3197TIP3    H131006   6.676   3.534   4.907 -0.8276 -0.9203  0.6053
 3197TIP3    H231007   6.610   3.548   4.771 -0.6215 -2.4210  0.3263
 3198TIP3   OH231008   5.017   5.830   1.130  0.1549 -0.0642  0.2064
 3198TIP3    H131009   5.058   5.901   1.180  3.1903 -2.4363  1.4514
 3198TIP3    H231010   5.032   5.852   1.039 -0.8331  1.8519  0.4698
 3199TIP3   OH231011   1.758   3.562   2.319  0.1373 -0.2799 -0.4162
 3199TIP3    H131012   1.715   3.577   2.403  0.7824  0.4583 -0.2023
 3199TIP3    H231013   1.771   3.467   2.314  2.8222 -0.1460  1.7346
 3200TIP3   OH231014   5.668   0.417   5.129  0.1410 -0.7172 -0.4506
 3200TIP3    H131015   5.684   0.510   5.110  1.0953 -0.6953  0.3623
 3200TIP3    H231016   5.635   0.417   5.219  2.1980 -1.2957  0.3666
 3201TIP3   OH231017   0.101   0.454   5.094 -0.6369 -0.7607  0.5147
 3201TIP3    H131018   0.068   0.366   5.075 -3.3124  0.1918  0.3515
 3201TIP3    H231019   0.074   0.471   5.184 -0.9910  0.2308  0.2366
 3202TIP3   OH231020   3.713   6.058   4.278  0.5191 -0.3103 -0.0918
 3202TIP3    H131021   3.705   6.149   4.249  1.8121 -0.5857 -1.4318
 3202TIP3    H231022   3.759   6.064   4.362  0.0720  0.2992  0.1174
 3203TIP3   OH231023   3.691   0.552  17.388  0.1353  0.2614 -0.1020
 3203TIP3    H131024   3.695   0.613  17.462 -2.5383 -0.7215  1.0047
 3203TIP3    H231025   3.601   0.560  17.356 -0.3500 -3.0197  0.1177
 3204TIP3   OH231026   6.165   5.274  16.188  0.3847  0.4080  0.0169
 3204TIP3    H131027   6.219   5.221  16.129 -0.5063  0.8120 -1.2000
 3204TIP3    H231028   6.153   5.219  16.265  1.5432 -0.1484 -0.1703
 3205TIP3   OH231029   0.825   1.418   2.175  0.5185  0.0641 -0.0946
 3205TIP3    H131030   0.892   1.449   2.236  1.0932 -1.6970  0.2424
 3205TIP3    H231031   0.861   1.438   2.088  1.1562 -0.2217  0.0981
 3206TIP3   OH231032   5.366   3.524  16.541 -0.9356  0.2644  0.1171
 3206TIP3    H131033   5.344   3.433  16.559 -1.4961  0.8354  2.6994
 3206TIP3    H231034   5.412   3.521  16.456  0.2580 -2.5706  0.7449
 3207TIP3   OH231035   3.177   4.030  12.648 -0.4488 -0.5925 -0.2145
 3207TIP3    H131036   3.122   3.992  12.716  1.8880 -1.9489  1.0435
 3207TIP3    H231037   3.266   4.004  12.671  0.9027  2.2366 -1.6222
 3208TIP3   OH231038   0.626   1.359  14.346 -0.3044 -0.9572 -0.2670
 3208TIP3    H131039   0.611   1.377  14.254  0.9153  1.3336 -0.0964
 3208TIP3    H231040   0.660   1.442  14.381 -2.6260 -1.0671  2.6820
 3209TIP3   OH231041   5.793   4.865  16.704  0.5808  0.8646 -0.1754
 3209TIP3    H131042   5.777   4.779  16.665 -1.8113  1.1167  0.1079
 3209TIP3    H231043   5.723   4.875  16.768  2.3504  1.9562  1.7081
 3210TIP3   OH231044   4.922   4.449  13.680  0.0092 -0.1066 -0.0086
 3210TIP3    H131045   4.871   4.370  13.662  2.1874 -1.5528 -0.1757
 3210TIP3    H231046   5.001   4.418  13.723  0.6310  2.0823  0.5915
 3211TIP3   OH231047   3.293   4.363  17.077  0.3401  0.1879  0.1296
 3211TIP3    H131048   3.365   4.344  17.016 -0.1935  0.1754 -0.5113
 3211TIP3    H231049   3.240   4.283  17.077 -0.2420  0.5724 -0.2091
 3212TIP3   OH231050   2.171   5.694  12.987  0.0743  0.6201 -0.4151
 3212TIP3    H131051   2.097   5.746  12.958 -0.4867 -0.1263 -0.3502
 3212TIP3    H231052   2.145   5.659  13.072  0.3440  0.0536 -0.5570
 3213TIP3   OH231053   0.757   4.126   4.583 -0.1934 -0.3156  0.2109
 3213TIP3    H131054   0.787   4.092   4.499  0.4128 -1.5538  0.9074
 3213TIP3    H231055   0.698   4.059   4.618  1.4671 -1.0364  1.8619
 3214TIP3   OH231056   3.391   5.573  11.114 -0.1944  0.4816 -0.7601
 3214TIP3    H131057   3.435   5.594  11.196 -1.2859  2.1309 -0.5544
 3214TIP3    H231058   3.403   5.650  11.059 -1.3432  0.2758 -1.3380
 3215TIP3   OH231059   5.652   0.907   1.440  0.2035 -0.4381  0.0860
 3215TIP3    H131060   5.723   0.905   1.376  0.0603  1.0292 -0.1519
 3215TIP3    H231061   5.577   0.872   1.393 -0.0102  1.0271 -0.7320
 3216TIP3   OH231062   3.085   2.684  16.955  0.3324 -0.0822  0.4199
 3216TIP3    H131063   3.007   2.708  16.905 -0.1464 -1.1237  0.6361
 3216TIP3    H231064   3.117   2.604  16.914  0.7471 -0.1793  0.9109
 3217TIP3   OH231065   1.951   6.265  14.012  0.4383 -0.4884 -0.0056
 3217TIP3    H131066   2.028   6.219  14.046 -0.6631 -1.0132  1.9147
 3217TIP3    H231067   1.954   6.351  14.053  0.5961 -0.0731 -0.8545
 3218TIP3   OH231068   4.664   0.378   0.348 -0.6623 -0.4128 -0.1330
 3218TIP3    H131069   4.684   0.414   0.434  0.9196 -0.4751 -0.4581
 3218TIP3    H231070   4.641   0.454   0.295 -1.2925 -0.3373  0.2308
 3219TIP3   OH231071   1.282   0.600   1.597 -0.6769  0.0200  0.1522
 3219TIP3    H131072   1.225   0.553   1.658  0.9195  0.0863  1.7668
 3219TIP3    H231073   1.306   0.535   1.531 -0.7662 -0.6405  0.7635
 3220TIP3   OH231074   1.359   2.297  14.894 -0.0821  0.2772  0.5983
 3220TIP3    H131075   1.285   2.352  14.921 -0.4157 -0.8221  2.0097
 3220TIP3    H231076   1.429   2.321  14.953  1.0364  1.9346 -1.2778
 3221TIP3   OH231077   4.138   4.336  11.851  0.9063  0.6632 -0.6797
 3221TIP3    H131078   4.086   4.415  11.833  1.0421  0.7775 -0.5750
 3221TIP3    H231079   4.128   4.322  11.945 -1.0001 -0.7744 -1.0367
 3222TIP3   OH231080   2.184   4.201   3.976  0.5383 -0.5914 -0.2371
 3222TIP3    H131081   2.145   4.119   4.006 -0.0880 -0.3727 -0.4583
 3222TIP3    H231082   2.268   4.174   3.938 -0.1429 -1.2639 -1.2863
 3223TIP3   OH231083   1.467   3.618  12.598 -0.8900  0.4537  0.3913
 3223TIP3    H131084   1.475   3.536  12.550 -0.7115 -1.7259  3.8310
 3223TIP3    H231085   1.418   3.676  12.539 -0.4141 -1.8130 -2.4562
 3224TIP3   OH231086   4.997   3.773   3.089 -0.4750 -0.0018  0.0403
 3224TIP3    H131087   4.903   3.770   3.070 -0.2515 -0.1469 -1.1623
 3224TIP3    H231088   5.003   3.799   3.181 -1.6568  2.1327 -0.4224
 3225TIP3   OH231089   3.838   6.686  16.654  0.3833 -0.0066  0.2076
 3225TIP3    H131090   3.747   6.660  16.637  0.2957  1.5312 -2.2205
 3225TIP3    H231091   3.831   6.756  16.719 -0.2198  0.3672 -0.2466
 3226TIP3   OH231092   0.876   1.113   1.439 -0.3961 -0.4954  0.1855
 3226TIP3    H131093   0.835   1.062   1.369 -1.2972  0.6950 -0.1879
 3226TIP3    H231094   0.889   1.200   1.401  0.9193 -0.3614  0.8710
 3227TIP3   OH231095   6.593   6.279   5.009 -0.0973 -0.5206  0.2036
 3227TIP3    H131096   6.617   6.187   4.997 -2.6617 -1.3829  1.0023
 3227TIP3    H231097   6.516   6.276   5.066  0.1323  2.1826  0.7842
 3228TIP3   OH231098   2.317   0.831   4.303  0.1583 -0.2078  0.6227
 3228TIP3    H131099   2.293   0.865   4.390  0.8140  2.3199 -0.1087
 3228TIP3    H231100   2.410   0.854   4.293  0.1369 -0.6230 -0.6686
 3229TIP3   OH231101   3.887   1.192  17.114  0.0545 -0.2260  0.1405
 3229TIP3    H131102   3.799   1.192  17.076  0.4023  1.5181 -0.7409
 3229TIP3    H231103   3.881   1.250  17.189  0.8408  1.3503 -0.9692
 3230TIP3   OH231104   6.602   6.502   2.621 -0.1571 -0.6869 -0.1470
 3230TIP3    H131105   6.538   6.500   2.693  0.0865 -0.2262  0.0885
 3230TIP3    H231106   6.549   6.500   2.542 -0.4342 -1.1026  0.0410
 3231TIP3   OH231107   3.723   2.201   4.819  0.6430  0.8921  0.3591
 3231TIP3    H131108   3.767   2.162   4.895 -1.8578 -0.2187  1.3266
 3231TIP3    H231109   3.684   2.282   4.853  1.7235  1.7802 -0.4450
 3232TIP3   OH231110   5.974   6.171  15.190  0.0653  0.3460 -0.0518
 3232TIP3    H131111   6.059   6.213  15.179 -0.3463  0.8037 -1.8289
 3232TIP3    H231112   5.924   6.232  15.245 -1.2356  3.4991 -4.2448
 3233TIP3   OH231113   5.895   2.093  15.000  0.5286  0.1525 -0.7158
 3233TIP3    H131114   5.848   2.021  14.958  0.0206  0.4733 -0.7098
 3233TIP3    H231115   5.980   2.095  14.957  0.0580  0.4035 -1.6602
 3234TIP3   OH231116   5.580   1.455   0.356  0.5684 -0.0493 -0.1776
 3234TIP3    H131117   5.531   1.380   0.388  0.4568 -1.2680 -2.8841
 3234TIP3    H231118   5.671   1.426   0.356  0.7519  0.5128  0.5192
 3235TIP3   OH231119   4.491   0.269   4.497  0.4967 -0.0969 -0.3063
 3235TIP3    H131120   4.487   0.213   4.574 -0.8683  0.7774  0.2814
 3235TIP3    H231121   4.535   0.215   4.431 -0.2339 -1.6362  0.4202
 3236TIP3   OH231122   0.892   6.551  14.025  0.3496  0.0268 -0.0139
 3236TIP3    H131123   0.859   6.473  14.070  3.2957 -0.4790  1.5494
 3236TIP3    H231124   0.973   6.521  13.983  0.7224  1.8773 -0.6940
 3237TIP3   OH231125   1.816   0.097   3.917  0.2790  0.2952 -0.0309
 3237TIP3    H131126   1.858   0.143   3.989  1.5939  0.0069 -0.5776
 3237TIP3    H231127   1.834   0.151   3.840 -0.0926  0.0088 -0.3231
 3238TIP3   OH231128   2.618   4.220  12.041  0.0384  0.4548 -0.3481
 3238TIP3    H131129   2.670   4.297  12.063 -1.3801  1.3541  0.0538
 3238TIP3    H231130   2.527   4.249  12.055 -0.6233 -0.7249 -1.9864
 3239TIP3   OH231131   3.531   1.711   6.416  0.4367  0.4434 -0.1969
 3239TIP3    H131132   3.588   1.685   6.344  0.4581  0.7820 -0.3045
 3239TIP3    H231133   3.450   1.738   6.374  1.3583  3.3174 -0.3801
 3240TIP3   OH231134   4.463   5.770   1.101 -0.4542  0.5509  0.4588
 3240TIP3    H131135   4.558   5.764   1.112 -0.2819  0.5553 -0.8805
 3240TIP3    H231136   4.443   5.863   1.115 -0.2418  0.5866  0.5267
 3241TIP3   OH231137   0.147   6.409   1.512  0.4128  0.2793 -0.4646
 3241TIP3    H131138   0.141   6.436   1.420  1.3209  0.9066 -0.3548
 3241TIP3    H231139   0.138   6.491   1.561 -0.7111 -0.1296  0.0384
 3242TIP3   OH231140   3.039   3.193   0.247  0.3147  0.5555 -0.9839
 3242TIP3    H131141   2.967   3.241   0.205  0.3121  0.3777 -1.1869
 3242TIP3    H231142   3.106   3.186   0.179  0.1291 -0.1255 -1.1018
 3243TIP3   OH231143   1.520   0.310  13.452  0.2651 -0.2583 -0.3234
 3243TIP3    H131144   1.582   0.237  13.454 -0.5267 -1.0803  3.9240
 3243TIP3    H231145   1.435   0.269  13.470 -0.6460  1.4524 -0.5168
 3244TIP3   OH231146   4.418   2.993   6.290  0.2735 -0.2887  0.1469
 3244TIP3    H131147   4.460   2.932   6.350 -1.9567 -0.6553  1.4523
 3244TIP3    H231148   4.345   2.943   6.253 -0.4112  0.9953 -0.2875
 3245TIP3   OH231149   6.559   5.054   0.874 -0.5841 -0.3442 -1.0262
 3245TIP3    H131150   6.651   5.049   0.848 -0.6057 -0.9495 -1.0115
 3245TIP3    H231151   6.527   5.136   0.837  0.1650  0.2580 -0.3720
 3246TIP3   OH231152   1.710   1.839   4.874 -0.4747  0.2859  0.0944
 3246TIP3    H131153   1.662   1.913   4.910 -1.4392 -0.5971  0.6923
 3246TIP3    H231154   1.642   1.780   4.841  0.1682 -1.1118  1.1890
 3247TIP3   OH231155   6.145   0.949  14.282 -0.0004 -0.3190 -0.4232
 3247TIP3    H131156   6.238   0.963  14.302  0.3414 -0.6329 -1.6752
 3247TIP3    H231157   6.126   0.863  14.318  0.5514 -0.8039 -1.2533
 3248TIP3   OH231158   2.437   5.407  11.813  0.1316  1.0121  0.0889
 3248TIP3    H131159   2.512   5.400  11.753 -0.3642  1.2452 -0.5666
 3248TIP3    H231160   2.477   5.422  11.899  0.8957 -0.4440  0.0213
 3249TIP3   OH231161   4.278   5.342  12.626  0.1183 -0.0080 -0.3047
 3249TIP3    H131162   4.198   5.295  12.648  0.4727 -0.0169  1.0206
 3249TIP3    H231163   4.305   5.383  12.708  1.8996 -0.6536 -0.5306
 3250TIP3   OH231164   5.029   0.799  11.964 -0.0513 -0.4268  0.2465
 3250TIP3    H131165   4.948   0.776  12.009 -1.0129  0.1304 -1.1257
 3250TIP3    H231166   5.097   0.750  12.010 -0.9317  0.2894  2.4275
 3251TIP3   OH231167   4.751   3.538   5.130  0.2618  0.1263 -0.1403
 3251TIP3    H131168   4.732   3.629   5.108  0.4128  0.2412  0.1938
 3251TIP3    H231169   4.837   3.521   5.092 -0.5870 -0.4912 -1.9344
 3252TIP3   OH231170   6.219   1.069  16.013 -0.1508 -0.3642  0.2455
 3252TIP3    H131171   6.174   0.995  16.054  0.1380 -0.0539  1.1329
 3252TIP3    H231172   6.247   1.035  15.927  1.0419 -1.6945  1.1074
 3253TIP3   OH231173   6.091   6.693  15.009  0.2568 -0.1839 -0.1642
 3253TIP3    H131174   6.076   6.687  14.915 -1.1428 -1.5172  0.1105
 3253TIP3    H231175   6.020   6.643  15.048  1.0107  0.0512  1.6005
 3254TIP3   OH231176   4.116   2.843   0.115 -0.8016 -0.1261  0.1847
 3254TIP3    H131177   4.157   2.898   0.182 -2.0760  1.7079 -0.4470
 3254TIP3    H231178   4.094   2.905   0.045  0.4375 -1.9600 -1.9421
 3255TIP3   OH231179   0.529   0.344   4.837 -0.2995  0.0909 -0.6660
 3255TIP3    H131180   0.528   0.437   4.861  0.3297  0.0181 -0.3433
 3255TIP3    H231181   0.495   0.299   4.915  1.4564 -0.1203  0.0326
 3256TIP3   OH231182   0.193   3.621  11.688 -0.4793 -0.0534  0.2954
 3256TIP3    H131183   0.231   3.704  11.660 -0.5916  0.1814  0.8230
 3256TIP3    H231184   0.106   3.644  11.721 -0.1967 -0.2523  1.2107
 3257TIP3   OH231185   0.409   5.303   5.405  0.5280 -0.3911 -0.2401
 3257TIP3    H131186   0.415   5.329   5.497 -0.1045 -0.0983 -0.2703
 3257TIP3    H231187   0.499   5.305   5.374  0.8164 -1.0144  0.5058
 3258TIP3   OH231188   0.914   0.996  14.760 -0.1402 -0.0546  0.1176
 3258TIP3    H131189   0.839   1.056  14.762  1.2142  1.7736 -0.7429
 3258TIP3    H231190   0.988   1.051  14.733  1.2018 -2.1461 -0.7008
 3259TIP3   OH231191   3.228   0.092  12.679 -0.3271  0.3592 -0.4775
 3259TIP3    H131192   3.258   0.140  12.602  0.2784 -0.2652 -0.6403
 3259TIP3    H231193   3.284   0.015  12.683 -2.1452 -1.0872 -1.0330
 3260TIP3   OH231194   6.678   3.087   4.255 -0.0225 -0.2331 -1.0754
 3260TIP3    H131195   6.752   3.147   4.272 -0.5974  0.6220 -1.5145
 3260TIP3    H231196   6.616   3.139   4.204 -1.0050 -0.8898 -0.5868
 3261TIP3   OH231197   1.292   6.554  11.333 -0.1938  0.5890  0.5164
 3261TIP3    H131198   1.290   6.547  11.238 -0.2169  1.1848  0.4666
 3261TIP3    H231199   1.206   6.525  11.362 -0.2048  0.4597  0.3528
 3262TIP3   OH231200   5.126   0.103   0.844 -0.2339 -0.1372  0.0016
 3262TIP3    H131201   5.086   0.069   0.924  0.2854 -1.2638 -0.2034
 3262TIP3    H231202   5.219   0.083   0.854 -0.2137 -0.5961 -1.0226
 3263TIP3   OH231203   3.721   5.654  12.592 -0.4350  0.0457  0.0060
 3263TIP3    H131204   3.750   5.632  12.680 -2.5327  2.5448  1.4574
 3263TIP3    H231205   3.671   5.735  12.602 -1.9983 -0.3295 -3.2866
 3264TIP3   OH231206   1.330   5.311  17.118  0.0353  0.4142 -0.2892
 3264TIP3    H131207   1.419   5.279  17.106 -0.4613 -2.0425  1.7086
 3264TIP3    H231208   1.337   5.381  17.182  0.4352 -0.7771  1.0156
 3265TIP3   OH231209   3.502   1.841  17.387 -0.2158  0.4520  0.1553
 3265TIP3    H131210   3.499   1.920  17.441  2.3191  1.6548 -1.2482
 3265TIP3    H231211   3.411   1.820  17.370 -1.0634  1.1217  3.2447
 3266TIP3   OH231212   1.858   4.629  13.226 -0.1686  0.0447 -0.1640
 3266TIP3    H131213   1.841   4.674  13.308 -1.3320 -0.0111 -0.3610
 3266TIP3    H231214   1.774   4.590  13.202 -0.0196  0.6196 -1.7146
 3267TIP3   OH231215   3.706   3.615  13.275  0.0283  0.4628  0.3698
 3267TIP3    H131216   3.705   3.710  13.290 -0.1262  0.9419 -2.2836
 3267TIP3    H231217   3.614   3.592  13.261  0.0625 -0.1131  1.0486
 3268TIP3   OH231218   3.963   6.658  15.189  0.7101 -0.0212  0.5484
 3268TIP3    H131219   3.951   6.585  15.249  0.2896 -0.8868 -0.5537
 3268TIP3    H231220   4.055   6.684  15.200  0.8435 -0.6649  0.9905
 3269TIP3   OH231221   0.815   2.410  17.440  0.4147 -0.1112 -0.5675
 3269TIP3    H131222   0.811   2.324  17.398 -0.9932 -0.7864  0.8657
 3269TIP3    H231223   0.728   2.447  17.429  0.2718  0.0735  0.9119
 3270TIP3   OH231224   2.062   5.674   5.403  0.5220 -0.5099  0.6807
 3270TIP3    H131225   2.119   5.610   5.445  0.9156  0.6048  1.8830
 3270TIP3    H231226   1.992   5.621   5.363  0.9682 -1.6948  1.4210
 3271TIP3   OH231227   4.957   4.968  11.824  0.5199  0.0087 -0.3363
 3271TIP3    H131228   5.043   4.981  11.784 -1.1282  1.3321 -3.7904
 3271TIP3    H231229   4.937   4.876  11.807  0.9635 -0.1507 -0.0380
 3272TIP3   OH231230   2.777   1.416  13.898 -0.0485 -0.3073 -0.2220
 3272TIP3    H131231   2.856   1.362  13.894 -0.9915 -1.8759  1.2083
 3272TIP3    H231232   2.705   1.354  13.888 -1.2023  0.5394  2.1953
 3273TIP3   OH231233   5.299   2.533  14.881 -0.4560  0.2466  0.2524
 3273TIP3    H131234   5.274   2.624  14.865 -0.5416  0.7878  2.8913
 3273TIP3    H231235   5.298   2.525  14.977 -1.7648 -2.9178  0.0862
 3274TIP3   OH231236   5.855   2.767   1.139  0.4981  0.5219  0.8697
 3274TIP3    H131237   5.918   2.837   1.151  2.1494 -0.5863 -0.8634
 3274TIP3    H231238   5.804   2.793   1.062  2.0166 -0.6823 -0.6430
 3275TIP3   OH231239   1.320   4.718   3.247  0.1530  0.0837 -0.3036
 3275TIP3    H131240   1.398   4.751   3.291  0.6948 -0.7152 -0.6304
 3275TIP3    H231241   1.248   4.770   3.283  0.7946  0.6271  0.2269
 3276TIP3   OH231242   3.718   5.695   3.402 -0.0789 -0.2039 -0.0425
 3276TIP3    H131243   3.733   5.787   3.422  0.5720 -0.6832  1.9206
 3276TIP3    H231244   3.698   5.693   3.308 -3.0833  2.2653  0.4036
 3277TIP3   OH231245   2.538   5.365   3.907 -0.8149 -0.0686  0.2005
 3277TIP3    H131246   2.567   5.301   3.972 -0.3693 -1.2533 -1.1014
 3277TIP3    H231247   2.547   5.450   3.951  1.7692 -0.6212  0.8929
 3278TIP3   OH231248   2.188   3.191   2.811  0.5782 -0.0122 -0.4332
 3278TIP3    H131249   2.146   3.132   2.873  1.2184 -0.5289 -0.4797
 3278TIP3    H231250   2.128   3.194   2.736 -1.0008  1.8790  0.8200
 3279TIP3   OH231251   5.313   6.183  12.296 -0.6145  0.0020 -0.1710
 3279TIP3    H131252   5.397   6.207  12.257  0.1572 -0.5301  1.1124
 3279TIP3    H231253   5.271   6.127  12.230  1.6636 -2.8274  0.5834
 3280TIP3   OH231254   0.297   2.928  16.329  0.3471 -1.0114  0.0707
 3280TIP3    H131255   0.286   2.932  16.234 -0.4547 -0.2971  0.1787
 3280TIP3    H231256   0.266   2.841  16.354 -2.9001  0.0311  0.0650
 3281TIP3   OH231257   3.239   3.744   2.401  0.6037 -0.6283 -0.0860
 3281TIP3    H131258   3.252   3.809   2.470 -0.6066 -0.6067  0.1477
 3281TIP3    H231259   3.322   3.740   2.355  1.4718 -0.7032  1.4336
 3282TIP3   OH231260   3.077   3.520   2.180  0.0046  0.6981 -0.1914
 3282TIP3    H131261   3.142   3.580   2.145 -0.5354  1.6179  0.3408
 3282TIP3    H231262   2.997   3.540   2.132 -0.1466  0.2907 -0.1164
 3283TIP3   OH231263   1.146   4.474  12.140  0.4231 -0.1815 -0.0212
 3283TIP3    H131264   1.131   4.413  12.212 -1.6904 -0.1162 -0.3387
 3283TIP3    H231265   1.221   4.527  12.169  0.2538 -0.8026  1.6820
 3284TIP3   OH231266   4.130   4.908   0.271  0.2286 -0.3907 -0.0025
 3284TIP3    H131267   4.180   4.913   0.352  0.4747  1.5134 -0.2176
 3284TIP3    H231268   4.192   4.933   0.202 -0.0588 -1.6766 -0.7582
 3285TIP3   OH231269   0.306   2.756   1.201  0.4787  0.0926 -0.0203
 3285TIP3    H131270   0.263   2.714   1.126  1.0052  1.2002 -0.9807
 3285TIP3    H231271   0.241   2.751   1.271 -1.0369  1.2097 -1.2676
 3286TIP3   OH231272   2.617   0.331   6.502  0.0226 -0.5837  0.3746
 3286TIP3    H131273   2.665   0.401   6.546  0.4375 -1.3754  1.1836
 3286TIP3    H231274   2.532   0.328   6.547 -0.4445  0.1491 -0.4118
 3287TIP3   OH231275   0.134   0.024   6.262 -0.4498  0.2445  0.5863
 3287TIP3    H131276   0.165  -0.060   6.296  0.7868  0.9660  1.3246
 3287TIP3    H231277   0.081   0.061   6.332  0.5138  0.8735  1.0074
 3288TIP3   OH231278   6.428   5.319   0.444  0.1623  0.3211  0.0398
 3288TIP3    H131279   6.493   5.313   0.373 -0.2122 -3.2961 -0.2075
 3288TIP3    H231280   6.347   5.285   0.405 -0.0978 -1.5712  2.0688
 3289TIP3   OH231281   3.960   1.213  13.555  0.2436 -0.6254 -0.2213
 3289TIP3    H131282   4.038   1.158  13.547 -1.2468 -2.7515 -0.8111
 3289TIP3    H231283   3.995   1.302  13.565  2.7264 -1.5095 -0.3321
 3290TIP3   OH231284   5.810   2.683  13.928 -0.4962 -0.4497 -0.0868
 3290TIP3    H131285   5.753   2.606  13.924 -1.1056  0.0181 -0.8706
 3290TIP3    H231286   5.807   2.711  14.019 -2.4415  0.2133 -0.3108
 3291TIP3   OH231287   4.094   5.993  13.793 -0.2725  0.1072 -0.4030
 3291TIP3    H131288   4.015   6.040  13.765  0.2889  0.2217 -1.8408
 3291TIP3    H231289   4.145   6.057  13.842 -1.9360 -0.4777  2.3820
 3292TIP3   OH231290   2.352   1.002  13.593 -0.1390  0.1238 -0.2779
 3292TIP3    H131291   2.352   1.093  13.622  0.2400 -0.4082  1.5064
 3292TIP3    H231292   2.269   0.967  13.624 -1.5881  0.4962 -3.3529
 3293TIP3   OH231293   5.866   6.365  14.758  0.4085 -0.2040 -0.4559
 3293TIP3    H131294   5.848   6.273  14.779  0.1031  0.1019  0.7079
 3293TIP3    H231295   5.795   6.413  14.800  1.3155  0.6647  0.1204
 3294TIP3   OH231296   3.987   0.099   0.545 -0.0678  0.1536 -0.1338
 3294TIP3    H131297   4.078   0.128   0.552 -0.2271  0.3147  2.3199
 3294TIP3    H231298   3.992   0.008   0.517  0.8357  0.2925 -0.4367
 3295TIP3   OH231299   4.103   0.739  14.613  0.2209  0.2060  0.0754
 3295TIP3    H131300   4.062   0.825  14.624  1.6957  1.1001 -1.0305
 3295TIP3    H231301   4.191   0.758  14.579  1.1781 -1.6685  1.2879
 3296TIP3   OH231302   2.173   3.012   4.831  0.3757 -0.1332 -0.1828
 3296TIP3    H131303   2.208   3.040   4.916  1.9432 -0.2158 -0.7833
 3296TIP3    H231304   2.103   3.075   4.813  0.0530 -0.0766  1.1299
 3297TIP3   OH231305   5.105   3.153   3.931  0.2143  0.7003 -0.5189
 3297TIP3    H131306   5.186   3.103   3.922  0.7105  1.3776 -0.0334
 3297TIP3    H231307   5.118   3.230   3.876  0.1715  1.1265  0.0516
 3298TIP3   OH231308   6.453   4.879  11.613  0.2472 -0.4342  0.3978
 3298TIP3    H131309   6.467   4.958  11.562  1.3964 -1.8119 -1.5592
 3298TIP3    H231310   6.365   4.850  11.589  1.6262 -2.3837 -2.9161
 3299TIP3   OH231311   2.842   0.086   6.621 -0.0958 -0.6389  0.6101
 3299TIP3    H131312   2.916   0.121   6.571  0.4367 -0.2859  1.6104
 3299TIP3    H231313   2.878   0.012   6.668 -0.7897 -1.4567 -0.1191
 3300TIP3   OH231314   2.466   5.160   0.992 -0.0800 -0.7597  0.7365
 3300TIP3    H131315   2.388   5.111   1.015 -0.3695 -1.7727 -2.0469
 3300TIP3    H231316   2.526   5.095   0.957  0.9456  0.3870  0.2973
 3301TIP3   OH231317   2.265   4.058  12.431 -0.0129 -0.4192 -0.0294
 3301TIP3    H131318   2.306   3.974  12.411 -0.5009 -0.4421 -0.9678
 3301TIP3    H231319   2.309   4.088  12.511  1.9532 -0.3696 -1.0555
 3302TIP3   OH231320   3.295   2.332   3.865 -0.0782 -0.0322  0.5341
 3302TIP3    H131321   3.201   2.323   3.849 -0.0971 -1.8351  1.4122
 3302TIP3    H231322   3.336   2.267   3.808  0.5226 -0.2462  1.1907
 3303TIP3   OH231323   1.419   1.748   6.470  0.4982 -1.0729  0.5294
 3303TIP3    H131324   1.324   1.755   6.456  0.8652  0.1541 -1.7663
 3303TIP3    H231325   1.431   1.662   6.509 -1.4500 -1.8050 -0.3477
 3304TIP3   OH231326   4.077   4.359   3.283 -0.1480  0.6023  0.3773
 3304TIP3    H131327   4.159   4.365   3.331 -0.2851  0.1578  0.6774
 3304TIP3    H231328   4.102   4.336   3.193  0.1149  1.5194  0.2100
 3305TIP3   OH231329   2.803   0.587   0.545  0.7615  0.5351 -0.1971
 3305TIP3    H131330   2.771   0.566   0.633 -0.9146  0.9787 -0.6656
 3305TIP3    H231331   2.813   0.502   0.502  1.6879  0.3117  0.4383
 3306TIP3   OH231332   1.681   5.367  10.824 -0.4809  0.2046  0.1562
 3306TIP3    H131333   1.731   5.313  10.763  0.6761  0.6516  0.6583
 3306TIP3    H231334   1.630   5.305  10.875  0.0957 -0.3375  0.0878
 3307TIP3   OH231335   5.822   4.052  16.253  0.0603 -0.4056 -0.7404
 3307TIP3    H131336   5.729   4.044  16.233 -0.7025 -2.1723  2.7715
 3307TIP3    H231337   5.827   4.128  16.311  0.2915 -1.8443  1.2113
 3308TIP3   OH231338   6.168   3.675   6.046  0.2415 -0.3145  0.0756
 3308TIP3    H131339   6.073   3.684   6.038  0.3262  0.0952 -0.5585
 3308TIP3    H231340   6.183   3.580   6.047 -0.3990 -0.4903  3.3072
 3309TIP3   OH231341   3.857   0.180  13.214  0.3836 -0.4429  0.3393
 3309TIP3    H131342   3.810   0.175  13.297 -1.9832 -0.1153 -0.8919
 3309TIP3    H231343   3.876   0.089  13.191 -0.6511 -0.6797  0.3671
 3310TIP3   OH231344   2.046   1.823  17.273  0.2527  0.4313  0.1165
 3310TIP3    H131345   2.003   1.888  17.329 -0.4501 -1.2677  1.6254
 3310TIP3    H231346   1.976   1.791  17.216  0.2280 -0.0816  0.4275
 3311TIP3   OH231347   0.865   4.738   1.177  0.2600  0.3010  0.6755
 3311TIP3    H131348   0.889   4.686   1.254  0.6210 -1.6302 -0.6580
 3311TIP3    H231349   0.922   4.704   1.107 -2.1369 -0.1965 -1.1631
 3312TIP3   OH231350   5.612   1.434   5.709  0.0932  0.4282 -0.3978
 3312TIP3    H131351   5.695   1.419   5.664  0.5008 -1.0867  0.7729
 3312TIP3    H231352   5.603   1.530   5.711  1.7197  0.6249 -0.6976
 3313TIP3   OH231353   1.277   4.604  14.336  0.0136  0.4423 -0.9084
 3313TIP3    H131354   1.193   4.594  14.382 -0.6432 -0.0669 -2.1514
 3313TIP3    H231355   1.329   4.660  14.393 -0.1692 -1.4003  1.1894
 3314TIP3   OH231356   3.337   3.116   6.582  0.6399  0.0357 -0.1118
 3314TIP3    H131357   3.404   3.171   6.622 -0.3823 -0.8410  3.0579
 3314TIP3    H231358   3.370   3.027   6.593 -1.7360 -0.5994  3.3709
 3315TIP3   OH231359   3.296   3.944   6.428  0.0508  0.0054 -0.2584
 3315TIP3    H131360   3.351   3.865   6.432 -1.6369 -1.2080 -0.0435
 3315TIP3    H231361   3.310   3.988   6.512 -0.6702 -1.2615  0.5542
 3316TIP3   OH231362   0.336   5.687  14.349  0.0018  0.2775 -0.3279
 3316TIP3    H131363   0.397   5.759  14.333 -0.2288  0.4851 -0.2704
 3316TIP3    H231364   0.249   5.725  14.333 -0.0673 -0.2141 -1.1393
 3317TIP3   OH231365   1.480   0.094   6.362  0.1317 -0.3014 -0.0636
 3317TIP3    H131366   1.505   0.005   6.338 -0.8653 -1.3115  2.3199
 3317TIP3    H231367   1.384   0.094   6.356  0.1525  0.8884 -0.7927
 3318TIP3   OH231368   1.104   5.555   4.264 -1.0739  0.0444 -0.4691
 3318TIP3    H131369   1.074   5.495   4.195 -3.4037 -3.5402  3.1847
 3318TIP3    H231370   1.196   5.533   4.276 -0.9290 -0.0753 -1.6296
 3319TIP3   OH231371   2.791   0.272  16.773  0.0361  0.4873 -0.2971
 3319TIP3    H131372   2.751   0.258  16.859 -0.6704  0.7642 -0.5769
 3319TIP3    H231373   2.870   0.323  16.791  0.3205 -0.1420  0.2699
 3320TIP3   OH231374   6.449   4.320   0.479 -0.0011 -0.4410 -0.1386
 3320TIP3    H131375   6.521   4.339   0.539 -0.5981  0.0645  0.4353
 3320TIP3    H231376   6.476   4.358   0.396  0.9989 -1.4701 -0.2990
 3321TIP3   OH231377   0.436   3.080  12.947  0.4126  0.3136 -0.6262
 3321TIP3    H131378   0.479   3.060  12.864 -1.0976 -2.1108 -0.9257
 3321TIP3    H231379   0.342   3.071  12.929 -0.0860  1.8069  0.8781
 3322TIP3   OH231380   1.910   6.272  14.813  0.0436 -0.3038  0.1134
 3322TIP3    H131381   1.867   6.187  14.807  0.4018 -0.6406  1.8169
 3322TIP3    H231382   1.837   6.334  14.827 -0.2097 -0.3117 -1.0661
 3323TIP3   OH231383   1.864   3.925   5.603  0.2116 -0.5590  0.2044
 3323TIP3    H131384   1.906   3.999   5.647 -0.2349 -0.7233  0.9169
 3323TIP3    H231385   1.924   3.852   5.616  0.7241 -0.2959 -0.6275
 3324TIP3   OH231386   1.230   5.950  13.056  0.5892  0.6163  0.0289
 3324TIP3    H131387   1.320   5.960  13.085  0.2072  0.1508  1.4820
 3324TIP3    H231388   1.195   6.039  13.054  0.6028  0.6660  1.1641
 3325TIP3   OH231389   4.817   6.449   0.822  0.1984 -0.5610 -0.0901
 3325TIP3    H131390   4.776   6.477   0.904 -1.6924  0.1671 -1.2184
 3325TIP3    H231391   4.860   6.527   0.789  0.0791 -0.5825 -0.2942
 3326TIP3   OH231392   5.214   5.013  11.729  1.8826 -0.1639 -0.5175
 3326TIP3    H131393   5.182   5.103  11.737  0.3870 -0.8203  4.1926
 3326TIP3    H231394   5.301   5.015  11.769  1.0058 -0.9940  1.6172
 3327TIP3   OH231395   5.302   6.352  16.874 -0.0162  0.4363 -0.3972
 3327TIP3    H131396   5.321   6.387  16.786  0.4547 -0.4734 -0.6724
 3327TIP3    H231397   5.245   6.277  16.858 -0.4364  0.6450  0.1270
 3328TIP3   OH231398   0.190   0.354  17.530 -0.0054 -0.1274 -0.3791
 3328TIP3    H131399   0.261   0.338  17.467  0.3535 -0.2349  0.0432
 3328TIP3    H231400   0.143   0.271  17.535 -0.4791  0.0912 -1.0399
 3329TIP3   OH231401   3.344   2.725  15.125 -0.2637  0.0789  0.0061
 3329TIP3    H131402   3.274   2.667  15.096 -0.2963  0.7050 -1.2680
 3329TIP3    H231403   3.326   2.742  15.217 -0.6816 -1.2998  0.1942
 3330TIP3   OH231404   1.237   5.198   1.884 -0.2030  0.3362  0.2269
 3330TIP3    H131405   1.178   5.128   1.858 -0.3569  0.3860  0.4369
 3330TIP3    H231406   1.221   5.268   1.820 -1.0121  0.6894  0.7854
 3331TIP3   OH231407   1.287   0.881  14.989 -0.1781  0.4297  0.0571
 3331TIP3    H131408   1.299   0.969  14.954 -0.3158  0.4832  0.1458
 3331TIP3    H231409   1.332   0.824  14.927 -0.9988  0.4560 -0.5788
 3332TIP3   OH231410   4.365   1.384  15.568 -0.3545  0.3009 -0.1845
 3332TIP3    H131411   4.429   1.318  15.598 -1.1861 -0.2257  0.4643
 3332TIP3    H231412   4.408   1.468  15.583  0.1979 -0.0476  0.2247
 3333TIP3   OH231413   5.829   3.677  16.739 -0.6022 -0.8940  0.2028
 3333TIP3    H131414   5.734   3.679  16.733 -0.6069  1.9619 -0.0308
 3333TIP3    H231415   5.847   3.694  16.832 -0.3093 -1.2882  0.2210
 3334TIP3   OH231416   4.684   2.003  16.100 -0.1298  0.6196 -0.2480
 3334TIP3    H131417   4.700   1.944  16.174 -1.4044 -1.5927 -1.5872
 3334TIP3    H231418   4.771   2.025  16.067  0.4184 -0.4985  0.3820
 3335TIP3   OH231419   6.372   4.402  14.996 -0.5834 -0.2107  0.5290
 3335TIP3    H131420   6.418   4.460  15.057 -0.7825  1.0067 -0.4473
 3335TIP3    H231421   6.440   4.374  14.934 -0.8736  0.5846 -0.1693
 3336TIP3   OH231422   2.175   0.669   3.412  0.6843 -0.0932  0.5553
 3336TIP3    H131423   2.231   0.672   3.489  1.8253 -1.6197 -0.1583
 3336TIP3    H231424   2.232   0.694   3.340 -0.3876  1.4082  0.1698
 3337TIP3   OH231425   1.338   0.575  11.544 -0.4346  0.5613 -0.3208
 3337TIP3    H131426   1.371   0.664  11.553  0.8424  0.1839 -0.9221
 3337TIP3    H231427   1.317   0.567  11.451  1.6457 -0.4299 -0.7663
 3338TIP3   OH231428   0.067   3.493  17.242 -0.0885 -0.2356 -0.2946
 3338TIP3    H131429   0.159   3.484  17.268 -0.0775  0.0153 -0.2487
 3338TIP3    H231430   0.060   3.441  17.162 -0.2241 -1.3859  0.4370
 3339TIP3   OH231431   0.737   5.723   4.700  0.0520  0.4422  0.1532
 3339TIP3    H131432   0.700   5.651   4.650 -3.0333  2.1029 -0.1842
 3339TIP3    H231433   0.678   5.732   4.775  2.0046  0.8768  1.7122
 3340TIP3   OH231434   2.835   0.702  12.097  0.6696 -0.2702  0.1060
 3340TIP3    H131435   2.781   0.780  12.088  0.6220 -0.4340 -1.1986
 3340TIP3    H231436   2.884   0.697  12.015  2.3639 -0.3636  1.0919
 3341TIP3   OH231437   3.936   2.765  17.046 -0.7116  0.4352  0.0761
 3341TIP3    H131438   4.001   2.835  17.056  0.1896 -0.3794  0.0364
 3341TIP3    H231439   3.861   2.794  17.099  0.3638  0.5678  1.5919
 3342TIP3   OH231440   0.029   0.149  12.644  0.1695  0.7600  0.2119
 3342TIP3    H131441   0.080   0.076  12.682 -0.9944 -0.8710 -1.2149
 3342TIP3    H231442  -0.022   0.183  12.718  1.5137  0.8574  1.1345
 3343TIP3   OH231443   5.726   2.745   0.609 -0.1322  0.4666  0.4622
 3343TIP3    H131444   5.662   2.683   0.574  0.5063  0.0742 -0.0085
 3343TIP3    H231445   5.769   2.697   0.680  0.0968  0.4973  0.3450
 3344TIP3   OH231446   1.520   2.569  11.559  0.8558 -0.3154 -0.3388
 3344TIP3    H131447   1.586   2.537  11.621  0.5137  0.3963  0.4193
 3344TIP3    H231448   1.437   2.537  11.594  0.5790  0.7424  0.0352
 3345TIP3   OH231449   4.319   5.978  15.966 -0.4448  0.3489 -0.2432
 3345TIP3    H131450   4.296   6.070  15.971 -1.3245  0.1705 -0.7805
 3345TIP3    H231451   4.301   5.953  15.875  1.7952  0.1534 -0.6946
 3346TIP3   OH231452   3.704   3.736  15.630  0.0345 -0.3581 -0.3137
 3346TIP3    H131453   3.754   3.683  15.569  1.4259  0.4588  0.0721
 3346TIP3    H231454   3.653   3.673  15.681  2.3948 -1.4605  0.8237
 3347TIP3   OH231455   6.360   1.548   4.861  0.1180  0.5335 -0.8578
 3347TIP3    H131456   6.324   1.501   4.936 -0.5516  0.4471 -1.2255
 3347TIP3    H231457   6.444   1.505   4.844  0.3397  0.6511 -0.0723
 3348TIP3   OH231458   5.347   5.066   5.256  0.1788 -0.4022 -0.0335
 3348TIP3    H131459   5.392   4.992   5.298  2.6100 -0.4008 -2.3538
 3348TIP3    H231460   5.298   5.026   5.184  1.5190  0.1493 -1.3096
 3349TIP3   OH231461   1.959   5.600  11.958  0.6481  0.0532  0.1678
 3349TIP3    H131462   2.022   5.599  11.886  0.0990 -0.4423 -0.3123
 3349TIP3    H231463   1.955   5.509  11.987  0.7742  0.2283  0.7508
 3350TIP3   OH231464   5.386   0.089  16.365 -0.0564  0.0084  0.2240
 3350TIP3    H131465   5.411   0.148  16.436 -0.3501 -1.7000  1.8198
 3350TIP3    H231466   5.468   0.072  16.317  0.3049  0.5614  0.6398
 3351TIP3   OH231467   3.105   1.721  16.431 -0.2914  0.1070 -0.3883
 3351TIP3    H131468   3.186   1.670  16.439 -1.2490 -1.3246  0.7285
 3351TIP3    H231469   3.048   1.667  16.376 -1.1421  0.2027  0.3822
 3352TIP3   OH231470   2.373   1.021   4.796  0.0201 -0.4688  0.5945
 3352TIP3    H131471   2.358   1.098   4.742  0.0413 -1.0162 -0.2039
 3352TIP3    H231472   2.363   0.947   4.736  0.1828 -1.0800  1.3072
 3353TIP3   OH231473   2.974   4.560  11.652 -0.3874 -0.4660  0.3495
 3353TIP3    H131474   3.057   4.597  11.624  0.7550 -2.2267  1.1602
 3353TIP3    H231475   2.937   4.521  11.573 -0.2035 -0.0843  0.0732
 3354TIP3   OH231476   0.805   5.847  14.774 -0.1355 -0.2065 -0.1454
 3354TIP3    H131477   0.765   5.926  14.737 -0.6341 -1.0940 -1.5691
 3354TIP3    H231478   0.891   5.841  14.731  0.6706  0.5141  1.2993
 3355TIP3   OH231479   0.892   2.688  15.748  0.4311 -0.1536 -0.8822
 3355TIP3    H131480   0.883   2.594  15.761 -0.4057 -0.1307 -1.2018
 3355TIP3    H231481   0.981   2.700  15.716  1.0208 -0.6717  0.5072
 3356TIP3   OH231482   2.511   5.414   1.084 -0.1299  0.3194  0.5765
 3356TIP3    H131483   2.589   5.453   1.044  1.0144  0.1542  2.4860
 3356TIP3    H231484   2.491   5.338   1.030  0.6483  0.7180 -0.3075
 3357TIP3   OH231485   6.308   4.680  13.384 -0.0184 -0.5842 -0.5154
 3357TIP3    H131486   6.278   4.599  13.426  0.6713 -0.7954 -0.4234
 3357TIP3    H231487   6.376   4.713  13.442 -1.1518  0.7513  0.1237
 3358TIP3   OH231488   6.508   2.041   1.935 -0.2898  0.1961  0.1082
 3358TIP3    H131489   6.461   2.106   1.882 -0.1200  0.2454  0.0209
 3358TIP3    H231490   6.600   2.062   1.925 -0.2746  0.4880  0.7844
 3359TIP3   OH231491   2.035   1.964   2.321 -0.0681  0.0130  0.5150
 3359TIP3    H131492   2.060   1.971   2.228 -0.7198 -1.9879  0.1513
 3359TIP3    H231493   1.942   1.942   2.320  0.2010 -1.3100  1.5852
 3360TIP3   OH231494   4.113   0.233  12.604 -0.0162  0.1562  0.0025
 3360TIP3    H131495   4.097   0.139  12.600  0.8158  0.0313 -0.7302
 3360TIP3    H231496   4.130   0.259  12.513  1.6491  0.6416  0.4165
 3361TIP3   OH231497   6.135   3.248  16.490 -0.0748 -0.0901  0.5495
 3361TIP3    H131498   6.187   3.168  16.493  0.4196  0.1696 -0.5671
 3361TIP3    H231499   6.095   3.254  16.577 -0.8041 -1.9881  0.3942
 3362TIP3   OH231500   6.592   2.002   3.727  0.1141  0.2336 -0.2278
 3362TIP3    H131501   6.640   2.048   3.795 -1.2662  1.9112 -0.3182
 3362TIP3    H231502   6.523   1.955   3.774  0.2135 -0.0042 -0.3201
 3363TIP3   OH231503   3.058   0.921  16.766 -0.6546  0.1355 -0.2457
 3363TIP3    H131504   3.152   0.922  16.749 -0.7562  0.1158 -0.8292
 3363TIP3    H231505   3.022   0.986  16.706 -1.1734 -0.8960 -1.0897
 3364TIP3   OH231506   1.400   6.376   4.341  0.0475  0.2795 -1.1027
 3364TIP3    H131507   1.444   6.456   4.371  0.8382 -0.0772 -1.2944
 3364TIP3    H231508   1.391   6.323   4.420 -0.2986  0.4672 -1.0124
 3365TIP3   OH231509   3.217   5.981  16.446 -0.2628  0.5778  0.3537
 3365TIP3    H131510   3.240   5.894  16.412  1.0680  1.0040  0.0938
 3365TIP3    H231511   3.252   5.982  16.535  1.3145  1.4287 -0.2298
 3366TIP3   OH231512   1.203   3.364  14.814  0.6838 -0.3321 -0.0556
 3366TIP3    H131513   1.186   3.330  14.727 -1.2155 -0.1980  0.2206
 3366TIP3    H231514   1.214   3.458  14.802 -0.8856 -0.1140 -0.0468
 3367TIP3   OH231515   2.026   3.504  14.168 -0.0026 -0.0795 -0.2957
 3367TIP3    H131516   2.044   3.413  14.193  1.1895  0.6847  1.8870
 3367TIP3    H231517   1.932   3.506  14.151 -0.6525 -1.1188  2.6366
 3368TIP3   OH231518   6.625   3.279   5.164 -0.1641  0.3135  0.3754
 3368TIP3    H131519   6.561   3.288   5.094 -0.5004 -1.7845  0.3466
 3368TIP3    H231520   6.675   3.361   5.162 -0.1894  0.3464 -2.2887
 3369TIP3   OH231521   2.635   4.113  13.662 -0.6459  0.2796  0.1871
 3369TIP3    H131522   2.556   4.166  13.649 -0.0186  0.7472 -2.2414
 3369TIP3    H231523   2.604   4.022  13.656 -1.3654  0.3785  1.9740
 3370TIP3   OH231524   0.437   1.708   0.398 -0.5188  0.3643  0.0186
 3370TIP3    H131525   0.532   1.712   0.395 -0.5108  0.9834  0.7212
 3370TIP3    H231526   0.417   1.655   0.475 -0.7026  3.2615  2.1740
 3371TIP3   OH231527   6.266   6.285   1.331  0.1775  0.3140 -0.0842
 3371TIP3    H131528   6.231   6.257   1.415  0.0487  0.2902 -0.1451
 3371TIP3    H231529   6.280   6.204   1.282 -0.6993  0.3810 -0.4580
 3372TIP3   OH231530   1.520   3.204  13.109  0.5399  0.3375 -0.0245
 3372TIP3    H131531   1.539   3.192  13.016  1.3524 -2.1457  0.3996
 3372TIP3    H231532   1.599   3.246  13.144  1.3384 -1.1006 -0.0265
 3373TIP3   OH231533   4.423   4.414   1.985 -0.0414 -0.1421  0.0484
 3373TIP3    H131534   4.411   4.508   1.971 -0.6216 -0.3365 -0.8118
 3373TIP3    H231535   4.487   4.389   1.919  0.2909 -0.3154  0.4323
 3374TIP3   OH231536   5.698   1.662   4.707  0.5132 -0.4302 -0.0494
 3374TIP3    H131537   5.766   1.633   4.646 -0.0020 -2.4859  0.2949
 3374TIP3    H231538   5.633   1.591   4.706 -0.4789  0.4093  1.4025
 3375TIP3   OH231539   4.078   1.498   5.831  0.3874 -0.0762 -0.1177
 3375TIP3    H131540   3.986   1.524   5.828 -0.0898 -1.2433  2.2705
 3375TIP3    H231541   4.080   1.415   5.782 -0.0061 -0.4369  0.4600
 3376TIP3   OH231542   5.005   3.603   5.390 -0.4686 -0.3761  0.0619
 3376TIP3    H131543   5.063   3.653   5.447 -1.6826 -0.5382  1.4883
 3376TIP3    H231544   4.991   3.660   5.314  1.5069 -0.3358 -0.3293
 3377TIP3   OH231545   5.678   1.200   3.315  0.5279 -0.1400  0.6301
 3377TIP3    H131546   5.756   1.255   3.302  3.2864 -3.7862  0.2185
 3377TIP3    H231547   5.692   1.157   3.399 -0.8505 -1.2422  0.3366
 3378TIP3   OH231548   2.049   5.693  15.734 -0.2134 -0.1851  0.1594
 3378TIP3    H131549   2.087   5.737  15.659 -0.0906  1.0438  0.9162
 3378TIP3    H231550   1.974   5.645  15.699 -0.4240  0.7273 -0.6759
 3379TIP3   OH231551   2.931   6.434  14.668  0.0415 -0.4101  0.1102
 3379TIP3    H131552   2.861   6.372  14.688  1.1527 -1.1191  1.9850
 3379TIP3    H231553   2.953   6.416  14.576 -1.8380 -0.5309 -0.3508
 3380TIP3   OH231554   1.220   3.326  13.559 -0.3258  0.2530  0.6052
 3380TIP3    H131555   1.247   3.385  13.488 -0.1553  0.5073  0.8781
 3380TIP3    H231556   1.167   3.381  13.617  2.6981  1.1278  2.7424
 3381TIP3   OH231557   1.676   4.502   3.914  0.0715  0.1582  0.0421
 3381TIP3    H131558   1.650   4.410   3.902 -0.9932  0.6948 -2.3410
 3381TIP3    H231559   1.772   4.499   3.915  0.0756 -0.9159 -0.8646
 3382TIP3   OH231560   6.017   3.677  11.855  0.2137 -0.3849 -0.5307
 3382TIP3    H131561   6.096   3.622  11.855  1.1981  0.9110 -2.1927
 3382TIP3    H231562   6.047   3.760  11.818 -2.1159 -0.1359 -2.0499
 3383TIP3   OH231563   0.172   3.373   4.671  0.2241  0.6293 -0.1449
 3383TIP3    H131564   0.200   3.372   4.580  1.2799 -0.0428  0.1718
 3383TIP3    H231565   0.252   3.382   4.722 -0.2580  0.1309  0.7442
 3384TIP3   OH231566   5.175   0.297   1.796 -0.7867  0.2741  0.1987
 3384TIP3    H131567   5.106   0.232   1.804 -1.7529  1.3641  1.1777
 3384TIP3    H231568   5.186   0.331   1.885 -0.2551  1.3803 -0.2703
 3385TIP3   OH231569   2.668   4.638   4.272 -0.1530  0.5002 -0.2861
 3385TIP3    H131570   2.691   4.558   4.319  1.3972  1.3554  0.4946
 3385TIP3    H231571   2.643   4.700   4.341  0.4065  1.2310 -0.7318
 3386TIP3   OH231572   2.014   4.064   2.929 -0.0272 -0.5742  0.0201
 3386TIP3    H131573   1.947   4.110   2.878  0.8933 -1.1437 -1.7877
 3386TIP3    H231574   1.966   3.995   2.974 -0.6590 -1.1272 -1.4382
 3387TIP3   OH231575   6.392   2.036  13.026 -0.0562 -0.1951 -0.0693
 3387TIP3    H131576   6.392   2.130  13.011  0.3862 -0.0341  0.8844
 3387TIP3    H231577   6.478   2.018  13.066  0.5324 -1.2353 -1.6786
 3388TIP3   OH231578   5.700   2.330   1.757 -0.1364 -0.4942  0.7354
 3388TIP3    H131579   5.711   2.363   1.668 -0.1616 -1.7124  0.2541
 3388TIP3    H231580   5.633   2.262   1.749 -0.2938 -0.4672  1.7208
 3389TIP3   OH231581   3.344   3.970  11.707 -0.0879 -0.1950 -0.2112
 3389TIP3    H131582   3.414   3.922  11.751 -0.9849 -1.3919 -0.0279
 3389TIP3    H231583   3.386   4.013  11.633  1.0988  0.3179  0.7213
 3390TIP3   OH231584   0.456   5.777  11.244  0.3845 -0.1956 -0.2657
 3390TIP3    H131585   0.430   5.688  11.224 -0.4074 -0.6809  2.5175
 3390TIP3    H231586   0.395   5.806  11.312  1.2132  2.1353 -0.4000
 3391TIP3   OH231587   0.411   4.857   5.722 -0.1872  0.2174  0.4199
 3391TIP3    H131588   0.470   4.782   5.712 -0.0561  0.3308  0.3457
 3391TIP3    H231589   0.434   4.894   5.807  0.5746  0.8957 -0.0769
 3392TIP3   OH231590   1.938   2.053   3.574  0.4370 -0.1795  0.0903
 3392TIP3    H131591   1.987   1.993   3.519  2.3502  0.1493  1.3315
 3392TIP3    H231592   1.877   1.997   3.623  1.6216 -1.0369  0.6335
 3393TIP3   OH231593   3.763   0.321  12.982 -0.0568  0.5414 -0.5044
 3393TIP3    H131594   3.689   0.367  13.020 -1.4465 -0.0890 -2.2997
 3393TIP3    H231595   3.801   0.271  13.054 -2.9130 -1.0902  0.0020
 3394TIP3   OH231596   6.112   3.927   3.131 -0.1541  0.1989 -0.0460
 3394TIP3    H131597   6.173   3.854   3.119 -0.5157 -0.0044 -0.7081
 3394TIP3    H231598   6.149   3.978   3.203  0.8810  0.1617 -0.5367
 3395TIP3   OH231599   6.311   6.481  11.557  0.0773 -0.0328  0.0496
 3395TIP3    H131600   6.285   6.519  11.641 -2.1640 -1.4095  0.0722
 3395TIP3    H231601   6.297   6.387  11.568  0.7925 -0.3557 -1.5355
 3396TIP3   OH231602   2.373   4.238  11.790 -0.2713 -0.6417 -0.0137
 3396TIP3    H131603   2.304   4.302  11.775  0.5483  0.4184  0.6591
 3396TIP3    H231604   2.434   4.251  11.717 -0.0285 -0.5492  0.2045
 3397TIP3   OH231605   1.825   6.141  13.130 -0.2762 -0.6239  0.1435
 3397TIP3    H131606   1.916   6.129  13.159 -0.6030 -1.5393  0.8242
 3397TIP3    H231607   1.822   6.103  13.043  0.2604  0.4492 -0.3658
 3398TIP3   OH231608   4.885   4.588  15.794  0.2780  0.2171  0.2715
 3398TIP3    H131609   4.861   4.518  15.855  3.2682 -0.1118  1.2112
 3398TIP3    H231610   4.936   4.650  15.847  1.5681  0.7768 -1.5245
 3399TIP3   OH231611   2.393   4.260  13.612 -0.6989 -0.3673 -0.2442
 3399TIP3    H131612   2.305   4.289  13.588 -0.6319  1.6812  1.6275
 3399TIP3    H231613   2.434   4.337  13.651  1.1960 -1.8144  0.8277
 3400TIP3   OH231614   6.023   0.552   5.143 -0.2765 -0.6460 -0.1998
 3400TIP3    H131615   6.077   0.473   5.148  0.0143 -0.6250 -2.2063
 3400TIP3    H231616   5.980   0.546   5.058 -0.7820  1.0306 -0.0891
 3401TIP3   OH231617   0.651   4.449   1.089 -0.0044 -0.1506  0.5452
 3401TIP3    H131618   0.576   4.389   1.092 -2.4431  2.5265 -1.4766
 3401TIP3    H231619   0.712   4.408   1.028 -1.1134 -1.0800  0.0087
 3402TIP3   OH231620   1.371   1.320  15.860 -0.0695 -0.2614 -0.3690
 3402TIP3    H131621   1.342   1.337  15.949 -0.7595 -0.1114 -0.6159
 3402TIP3    H231622   1.355   1.403  15.814  1.5790  0.1287 -0.3163
 3403TIP3   OH231623   2.430   6.278   3.298  0.1998 -0.1142 -0.0762
 3403TIP3    H131624   2.382   6.329   3.363 -0.3760  1.2319 -1.4903
 3403TIP3    H231625   2.366   6.264   3.227  1.3246  0.0147 -1.1389
 3404TIP3   OH231626   0.290   2.314  14.421  0.2301 -0.2997  0.2270
 3404TIP3    H131627   0.370   2.337  14.373 -1.2474  1.3518 -1.6556
 3404TIP3    H231628   0.262   2.231  14.381  0.0119  0.0983 -0.4615
 3405TIP3   OH231629   1.975   5.285  11.515  0.0094  0.2413 -0.4975
 3405TIP3    H131630   2.051   5.331  11.481 -0.4196  0.2664 -1.4478
 3405TIP3    H231631   1.931   5.350  11.571  0.8603  0.1094  0.3571
 3406TIP3   OH231632   5.110   4.736   4.365 -0.3055 -0.1912 -0.2426
 3406TIP3    H131633   5.030   4.693   4.395  0.1571 -0.7321  0.2492
 3406TIP3    H231634   5.150   4.673   4.305  0.2225 -0.3395  0.2486
 3407TIP3   OH231635   0.949   4.827   2.260  0.4609  0.1341  0.5632
 3407TIP3    H131636   0.987   4.741   2.242  2.1249  0.7635  0.8594
 3407TIP3    H231637   0.865   4.808   2.302 -0.1123 -1.3253 -1.1426
 3408TIP3   OH231638   3.157   0.008   4.605  0.7667  0.4822  0.5117
 3408TIP3    H131639   3.236   0.021   4.657  0.5143  0.3383  0.9324
 3408TIP3    H231640   3.141   0.093   4.564  1.3106  0.4274  0.1765
 3409TIP3   OH231641   5.642   2.833  16.448 -0.3527  0.0602 -0.2252
 3409TIP3    H131642   5.646   2.810  16.540  1.3194  1.9050  0.2297
 3409TIP3    H231643   5.551   2.817  16.423 -0.5530 -1.6849  1.3587
 3410TIP3   OH231644   6.075   3.182   3.314  0.1915  0.1114 -0.4585
 3410TIP3    H131645   6.117   3.121   3.375  2.1318  2.5977  0.8419
 3410TIP3    H231646   5.983   3.182   3.339 -0.0550 -2.7252 -0.9812
 3411TIP3   OH231647   4.317   1.583  16.751 -0.3243  0.3312  0.1917
 3411TIP3    H131648   4.378   1.509  16.759  1.9525  2.0821  0.1338
 3411TIP3    H231649   4.289   1.600  16.841  0.0505  0.1050  0.3590
 3412TIP3   OH231650   4.536   4.102   0.815  0.0738  0.1458  0.7344
 3412TIP3    H131651   4.460   4.128   0.867  0.7959  1.0214  1.4077
 3412TIP3    H231652   4.610   4.110   0.876  1.2107  2.8551 -0.7878
 3413TIP3   OH231653   2.468   6.668  13.437  0.0745  0.1864 -0.1693
 3413TIP3    H131654   2.548   6.618  13.449 -0.0223  0.0646 -0.0171
 3413TIP3    H231655   2.467   6.692  13.345  1.0530  1.4827  0.1145
 3414TIP3   OH231656   2.267   1.929  14.288 -0.0671  0.5502  0.3021
 3414TIP3    H131657   2.243   1.866  14.356  0.0343 -2.0046 -1.8566
 3414TIP3    H231658   2.347   1.970  14.321  0.5764 -1.3706  1.3248
 3415TIP3   OH231659   6.333   5.691  14.242 -0.0091  0.3121 -0.4781
 3415TIP3    H131660   6.259   5.750  14.257 -0.6315 -0.9345  1.7507
 3415TIP3    H231661   6.304   5.606  14.276  2.6890 -0.0457  1.2484
 3416TIP3   OH231662   1.926   0.046  11.968 -0.0720  0.2738  0.6892
 3416TIP3    H131663   1.968   0.085  11.892  0.9952 -1.0252  0.5533
 3416TIP3    H231664   1.938  -0.049  11.956 -2.1380 -0.0944  1.2081
 3417TIP3   OH231665   2.953   4.647  15.998  0.1586 -0.8670  0.5272
 3417TIP3    H131666   2.987   4.737  16.001  0.8154 -1.0342 -0.9548
 3417TIP3    H231667   3.031   4.593  15.989 -0.3459 -1.4230 -0.7082
 3418TIP3   OH231668   3.107   4.314  11.035 -0.3799 -0.3267  0.0387
 3418TIP3    H131669   3.024   4.316  10.988 -0.1213 -1.0726 -0.4753
 3418TIP3    H231670   3.170   4.282  10.970  0.4219  0.7474  0.2604
 3419TIP3   OH231671   1.740   4.157  16.896 -0.7027  0.4025 -0.3793
 3419TIP3    H131672   1.812   4.194  16.846  0.6577  1.0705  1.9763
 3419TIP3    H231673   1.680   4.230  16.909 -0.6473  0.4340 -0.3041
 3420TIP3   OH231674   4.454   3.247   4.773  0.5084  0.3130  0.2967
 3420TIP3    H131675   4.413   3.239   4.859 -2.1644  1.1964 -0.8054
 3420TIP3    H231676   4.543   3.276   4.793  0.4489 -0.8909  2.7847
 3421TIP3   OH231677   1.888   4.272   4.046 -0.4508 -0.2849 -0.1474
 3421TIP3    H131678   1.969   4.294   4.000  0.5702 -1.1390  1.1445
 3421TIP3    H231679   1.914   4.268   4.138 -2.4358  1.4932  0.5677
 3422TIP3   OH231680   4.959   0.628  12.740 -0.1736 -0.2742  0.4403
 3422TIP3    H131681   5.017   0.604  12.813 -0.4151 -0.5029  0.5572
 3422TIP3    H231682   4.885   0.672  12.781  0.8510  1.8507  0.1385
 3423TIP3   OH231683   1.060   3.743  15.337  0.2953  0.2643 -0.5037
 3423TIP3    H131684   1.095   3.782  15.418  0.7762 -0.2708 -0.4440
 3423TIP3    H231685   1.006   3.670  15.368  0.1111  0.3405 -0.6477
 3424TIP3   OH231686   6.615   2.622   2.699  0.1838 -0.1740  0.2917
 3424TIP3    H131687   6.590   2.559   2.767 -1.2673 -0.6565 -0.6322
 3424TIP3    H231688   6.703   2.651   2.724  0.5446 -1.9209  1.2254
 3425TIP3   OH231689   0.512   3.949  11.121  0.4348 -0.2427 -0.5046
 3425TIP3    H131690   0.570   3.947  11.044  0.3443  1.5996 -0.6626
 3425TIP3    H231691   0.424   3.952  11.084  0.3438 -0.5587 -0.3120
 3426TIP3   OH231692   3.402   0.651  16.635 -0.2841  0.2549  0.0385
 3426TIP3    H131693   3.390   0.557  16.652 -0.9454  0.4521  0.7126
 3426TIP3    H231694   3.488   0.657  16.594 -0.5600 -0.7323 -0.7353
 3427TIP3   OH231695   2.037   6.591   4.438  0.6432  0.1356 -0.4574
 3427TIP3    H131696   2.027   6.548   4.353 -1.4644 -0.7126  0.1482
 3427TIP3    H231697   2.068   6.522   4.497  0.3027  0.2311 -0.1574
 3428TIP3   OH231698   4.582   0.298  12.234 -0.1816 -0.4947  0.5712
 3428TIP3    H131699   4.590   0.389  12.265  1.7882 -0.3521 -0.1874
 3428TIP3    H231700   4.641   0.249  12.291  0.2214 -0.9487 -0.2186
 3429TIP3   OH231701   4.825   0.245   4.318 -0.2686  0.1691 -0.4693
 3429TIP3    H131702   4.803   0.314   4.380  0.6886 -0.2727  0.3937
 3429TIP3    H231703   4.919   0.253   4.304 -0.4703  0.3067 -1.9593
 3430TIP3   OH231704   3.893   5.324  12.927 -0.4649 -0.6896 -0.1002
 3430TIP3    H131705   3.978   5.314  12.970  0.1067  0.3676 -0.9145
 3430TIP3    H231706   3.842   5.249  12.956  0.2759 -0.6091  1.5035
 3431TIP3   OH231707   3.924   1.872  13.868  0.0015 -0.1424 -0.2340
 3431TIP3    H131708   3.892   1.801  13.813 -2.7314  0.5416  0.2957
 3431TIP3    H231709   3.883   1.951  13.832 -0.2271  0.5932  1.4962
 3432TIP3   OH231710   6.689   6.653   6.053 -0.2860  0.0514 -0.0840
 3432TIP3    H131711   6.765   6.677   6.105  1.9696 -0.0940 -3.0547
 3432TIP3    H231712   6.681   6.724   5.988 -1.9307 -0.5601 -0.6078
 3433TIP3   OH231713   6.270   2.387  16.240  0.3200 -0.8957 -0.3549
 3433TIP3    H131714   6.298   2.418  16.326  0.0896 -0.7111 -0.3459
 3433TIP3    H231715   6.250   2.295  16.253  3.0568 -1.6480 -0.8564
 3434TIP3   OH231716   5.183   4.361  15.120 -0.0213  0.2889 -0.0206
 3434TIP3    H131717   5.198   4.367  15.214  0.8847  0.5706 -0.1686
 3434TIP3    H231718   5.116   4.426  15.101 -1.7826 -1.2332  0.7320
 3435TIP3   OH231719   5.355   5.551  11.221 -0.4780  0.5510 -0.2647
 3435TIP3    H131720   5.289   5.495  11.179  0.2388  0.8827 -1.8979
 3435TIP3    H231721   5.311   5.585  11.299 -1.2265 -1.5869  0.3249
 3436TIP3   OH231722   1.395   0.906  13.827 -0.5543  0.6906 -0.2055
 3436TIP3    H131723   1.443   0.978  13.869 -2.5384  1.1847  1.3375
 3436TIP3    H231724   1.392   0.930  13.734  1.7748  0.8246 -0.3014
 3437TIP3   OH231725   6.668   0.933   4.259 -0.5155 -0.2640 -0.0534
 3437TIP3    H131726   6.638   0.864   4.318  1.2309 -0.5324  0.5706
 3437TIP3    H231727   6.736   0.892   4.205 -0.2307  0.6779 -0.4369
 3438TIP3   OH231728   4.468   4.112   2.465  0.2948  0.4176 -0.2492
 3438TIP3    H131729   4.547   4.147   2.508 -0.7149  0.4132  1.7193
 3438TIP3    H231730   4.395   4.150   2.514 -0.9148 -0.7141 -1.0963
 3439TIP3   OH231731   6.711   4.462  12.397  0.2647 -0.1615 -0.3290
 3439TIP3    H131732   6.636   4.518  12.415  0.7216  0.4000 -0.1432
 3439TIP3    H231733   6.753   4.450  12.482  1.6614  1.3971 -0.7362
 3440TIP3   OH231734   0.309   5.066  15.612 -0.3417  0.1429  0.8223
 3440TIP3    H131735   0.369   5.056  15.538  0.1198 -0.5915  1.2842
 3440TIP3    H231736   0.277   4.977  15.629 -1.5967  0.5226  0.5638
 3441TIP3   OH231737   1.096   4.214  14.984  0.1797  0.2848 -0.4817
 3441TIP3    H131738   1.086   4.247  14.894  1.2750  0.7230 -0.4625
 3441TIP3    H231739   1.009   4.222  15.022 -0.1417  0.7743 -1.2885
 3442TIP3   OH231740   5.996   5.801  16.344 -0.5386  0.4547 -0.1553
 3442TIP3    H131741   5.989   5.896  16.342  0.4168  0.5392 -1.8980
 3442TIP3    H231742   6.026   5.778  16.256  0.8752 -1.3119  0.7210
 3443TIP3   OH231743   2.242   2.176   4.682 -0.3179 -0.1196 -0.4822
 3443TIP3    H131744   2.267   2.168   4.590 -0.6351  0.3375 -0.6133
 3443TIP3    H231745   2.154   2.139   4.685 -0.2588 -0.2454 -0.3401
 3444TIP3   OH231746   0.609   2.450  12.427 -0.4029  0.3806  0.4770
 3444TIP3    H131747   0.616   2.452  12.522 -0.2664 -0.0161  0.4747
 3444TIP3    H231748   0.527   2.496  12.409 -1.3827 -1.1004  0.9021
 3445TIP3   OH231749   0.942   4.581  11.984 -0.4377 -0.2350 -0.4193
 3445TIP3    H131750   1.000   4.562  11.911 -0.2392 -0.1132 -0.2932
 3445TIP3    H231751   0.974   4.524  12.055 -0.6071 -0.3274 -0.4168
 3446TIP3   OH231752   6.318   1.000  15.757 -0.0054 -0.6314 -0.4408
 3446TIP3    H131753   6.228   0.976  15.735 -0.0777 -0.5595 -0.2277
 3446TIP3    H231754   6.349   1.048  15.681  0.4752 -2.2245 -1.2950
 3447TIP3   OH231755   1.975   1.078   3.932 -0.2040  0.1144  0.1570
 3447TIP3    H131756   1.986   1.045   3.843  0.6859  1.3119 -0.2055
 3447TIP3    H231757   1.965   1.173   3.922 -0.4692  0.2211  1.3033
 3448TIP3   OH231758   5.120   6.209   5.572 -0.2482  0.2769  0.5473
 3448TIP3    H131759   5.194   6.149   5.576 -0.6385 -0.2849 -0.3336
 3448TIP3    H231760   5.127   6.249   5.486 -1.5361 -0.5543  0.0233
 3449TIP3   OH231761   0.692   1.813   0.947 -0.1668 -0.1902 -0.5863
 3449TIP3    H131762   0.702   1.885   1.009 -0.1584  0.1667 -1.0005
 3449TIP3    H231763   0.599   1.813   0.926 -0.2079 -0.4516 -0.4065
 3450TIP3   OH231764   4.986   4.175  11.825  0.0150 -0.4937 -0.2737
 3450TIP3    H131765   5.054   4.242  11.820  0.7850 -1.3192 -1.4231
 3450TIP3    H231766   4.905   4.224  11.838  0.9566  0.4455  3.2015
 3451TIP3   OH231767   4.804   2.873  17.336 -0.5095  0.0598  0.2077
 3451TIP3    H131768   4.878   2.818  17.308 -0.5265  0.7231 -1.2671
 3451TIP3    H231769   4.728   2.815  17.330 -0.2731 -0.2918  0.5582
 3452TIP3   OH231770   4.171   6.707   5.781 -0.0483 -0.5700  0.1673
 3452TIP3    H131771   4.223   6.687   5.703  0.5422  1.0437  0.1215
 3452TIP3    H231772   4.082   6.721   5.749  0.4251  1.2847 -0.4087
 3453TIP3   OH231773   3.295   4.389   5.902  0.7642  0.0455  0.1833
 3453TIP3    H131774   3.319   4.470   5.946  0.0791 -0.7768  2.1600
 3453TIP3    H231775   3.353   4.323   5.940 -0.5228 -0.8666  0.6048
 3454TIP3   OH231776   2.664   6.266  14.449 -0.2972 -0.5178 -0.2682
 3454TIP3    H131777   2.715   6.233  14.523 -0.8097 -1.6429 -0.3979
 3454TIP3    H231778   2.655   6.360  14.466  1.4493 -0.3504 -0.0393
 3455TIP3   OH231779   6.336   3.049  14.401 -0.1047 -0.1478  0.3364
 3455TIP3    H131780   6.355   3.038  14.308  0.5428 -0.8343  0.5377
 3455TIP3    H231781   6.390   2.983  14.444 -1.3936 -0.7244  1.1047
 3456TIP3   OH231782   1.014   5.232  16.790 -0.3632  0.3480  0.1400
 3456TIP3    H131783   1.069   5.169  16.836  1.6109  2.1019  0.3714
 3456TIP3    H231784   0.975   5.285  16.860  0.3853  1.2383 -0.0964
 3457TIP3   OH231785   0.667   2.174   0.742 -0.2214 -0.5811  0.0782
 3457TIP3    H131786   0.710   2.089   0.741  0.0297 -0.4522 -0.1392
 3457TIP3    H231787   0.736   2.237   0.719 -0.7095 -0.4667 -1.1700
 3458TIP3   OH231788   1.131   1.988   2.433  0.3260 -0.2080 -0.1277
 3458TIP3    H131789   1.087   2.064   2.471 -0.4534 -1.3292  1.3086
 3458TIP3    H231790   1.224   2.003   2.450  0.3817  1.2608 -1.4708
 3459TIP3   OH231791   0.626   5.907   1.676  0.1942 -0.5491 -0.1596
 3459TIP3    H131792   0.653   5.895   1.585 -1.2132 -1.8507 -0.4539
 3459TIP3    H231793   0.550   5.849   1.686  1.2852 -1.6822  2.3134
 3460TIP3   OH231794   5.256   5.243   4.487 -0.6031  0.2207  0.2595
 3460TIP3    H131795   5.257   5.185   4.564  1.0835  0.1071  0.1847
 3460TIP3    H231796   5.342   5.232   4.448 -1.7875 -0.6168 -2.3705
 3461TIP3   OH231797   4.306   2.801  17.269 -0.3672 -0.7362  0.1404
 3461TIP3    H131798   4.265   2.753  17.340 -0.1407  1.0670  1.5698
 3461TIP3    H231799   4.383   2.842  17.309  0.8262 -1.1405 -1.6067
 3462TIP3   OH231800   4.530   0.601  17.424  0.2546 -0.1633 -0.2935
 3462TIP3    H131801   4.503   0.519  17.465  1.9947 -0.5286  0.2094
 3462TIP3    H231802   4.520   0.667  17.492 -1.3827  0.1253 -0.7730
 3463TIP3   OH231803   4.869   6.653  11.062  0.0319 -0.0387  0.1862
 3463TIP3    H131804   4.843   6.738  11.027  0.1173  0.6036  1.6131
 3463TIP3    H231805   4.788   6.601  11.061  0.6250 -1.2682 -4.0171
 3464TIP3   OH231806   4.201   2.648  11.232 -0.1206  0.8824  0.3678
 3464TIP3    H131807   4.206   2.561  11.271  0.7554  1.9733  2.9319
 3464TIP3    H231808   4.292   2.677  11.225 -0.4372  1.9352  0.4017
 3465TIP3   OH231809   1.389   4.909   5.333  0.2855  0.0755  0.2960
 3465TIP3    H131810   1.405   4.843   5.400 -0.5110 -0.5897 -0.1527
 3465TIP3    H231811   1.296   4.930   5.341 -0.1341 -0.9097 -1.3460
 3466TIP3   OH231812   5.171   1.523  16.896 -0.0964  0.0972  0.2465
 3466TIP3    H131813   5.254   1.562  16.926 -1.1172  1.4447  1.4329
 3466TIP3    H231814   5.160   1.557  16.807 -0.4976  1.7929  0.9225
 3467TIP3   OH231815   6.204   4.563   5.506 -0.4927 -0.5967 -0.3007
 3467TIP3    H131816   6.167   4.496   5.563 -1.3174 -0.1192 -0.2530
 3467TIP3    H231817   6.290   4.529   5.481 -1.3931 -2.2593 -1.3239
 3468TIP3   OH231818   0.330   3.458   4.432  0.0577 -0.7853 -0.5301
 3468TIP3    H131819   0.411   3.502   4.460 -0.6429 -0.0578  0.4436
 3468TIP3    H231820   0.273   3.530   4.403 -0.7520 -1.1305  0.1659
 3469TIP3   OH231821   2.497   4.550  12.971  0.1047 -0.5518  0.0414
 3469TIP3    H131822   2.478   4.552  12.877 -1.9147 -3.2662  0.2501
 3469TIP3    H231823   2.580   4.503  12.978  1.1231  1.0937 -0.3827
 3470TIP3   OH231824   6.015   1.318  11.897 -0.8483 -0.3742  0.5564
 3470TIP3    H131825   5.950   1.313  11.967  1.6256 -0.3722  3.0283
 3470TIP3    H231826   6.047   1.408  11.900  1.1649 -1.0625  1.3357
 3471TIP3   OH231827   5.659   1.818   6.473  0.1046  0.1356 -0.7344
 3471TIP3    H131828   5.659   1.848   6.564 -0.6476 -1.3421 -0.2130
 3471TIP3    H231829   5.639   1.724   6.479 -1.5596  0.3257 -2.5133
 3472TIP3   OH231830   3.947   5.672   1.724 -0.2123  0.6659  0.0886
 3472TIP3    H131831   3.860   5.632   1.732 -0.6038  1.6418  0.8720
 3472TIP3    H231832   4.006   5.597   1.711 -1.1342 -0.0251 -0.2763
 3473TIP3   OH231833   1.846   2.876   3.580 -0.0516  0.6524 -0.0063
 3473TIP3    H131834   1.922   2.934   3.590 -0.1604  0.5904  1.4282
 3473TIP3    H231835   1.837   2.865   3.485  3.0539 -1.0475 -0.2488
 3474TIP3   OH231836   6.645   0.528   2.368 -0.3384 -0.1175 -0.2032
 3474TIP3    H131837   6.691   0.524   2.285 -0.1343 -1.1878 -0.0456
 3474TIP3    H231838   6.707   0.570   2.428  1.9902 -4.5861  0.9363
 3475TIP3   OH231839   1.502   6.355   0.823 -0.0499 -0.1038 -0.0192
 3475TIP3    H131840   1.563   6.341   0.750 -1.2994 -1.6865 -0.8330
 3475TIP3    H231841   1.420   6.316   0.793 -0.9635  0.3539  1.7524
 3476TIP3   OH231842   1.395   0.856   5.044  0.0123 -0.0776 -0.2253
 3476TIP3    H131843   1.368   0.937   5.001 -0.8699  1.1503  2.4737
 3476TIP3    H231844   1.315   0.804   5.049  0.1931 -0.3687 -0.3475
 3477TIP3   OH231845   5.482   5.254  13.091  0.0021 -0.5518 -0.0612
 3477TIP3    H131846   5.523   5.340  13.096  1.1058 -0.7333 -3.4231
 3477TIP3    H231847   5.390   5.271  13.072 -0.1511 -0.1649  0.9508
 3478TIP3   OH231848   1.902   4.385  17.425 -0.0548 -0.1063 -0.0370
 3478TIP3    H131849   1.820   4.379  17.376  1.0752 -2.2318 -1.8733
 3478TIP3    H231850   1.932   4.475  17.410 -2.0887  0.7819  0.8675
 3479TIP3   OH231851   6.549   1.724   4.816  0.5094 -0.7575 -0.7697
 3479TIP3    H131852   6.538   1.819   4.818 -1.2091 -0.9176 -0.9367
 3479TIP3    H231853   6.460   1.689   4.822  1.1214 -2.3711 -0.4498
 3480TIP3   OH231854   2.606   3.912   6.265  0.3971 -0.1090 -0.7132
 3480TIP3    H131855   2.550   3.838   6.287 -0.9547  0.1697 -2.9600
 3480TIP3    H231856   2.571   3.985   6.315  0.8309 -0.6343  0.3920
 3481TIP3   OH231857   4.689   3.097  12.359  0.6683  0.4731  0.3628
 3481TIP3    H131858   4.646   3.133  12.436 -0.9848  0.6894 -0.6162
 3481TIP3    H231859   4.665   3.004  12.359 -1.6147  0.9672 -1.2525
 3482TIP3   OH231860   3.257   2.187  14.603 -0.4796 -0.3961 -0.3724
 3482TIP3    H131861   3.178   2.241  14.599 -1.1532 -1.3370 -0.0742
 3482TIP3    H231862   3.231   2.103  14.566  0.2889 -0.8282  0.0350
 3483TIP3   OH231863   5.908   0.530   4.890  0.4858  0.1804  0.0429
 3483TIP3    H131864   5.871   0.487   4.813 -1.2167  0.0613  0.8798
 3483TIP3    H231865   5.902   0.624   4.870 -0.3339  0.1627  0.1790
 3484TIP3   OH231866   1.809   3.771   2.880 -0.1849  0.3381  0.3438
 3484TIP3    H131867   1.739   3.714   2.911  0.0610 -0.3244 -0.2994
 3484TIP3    H231868   1.851   3.804   2.960 -1.4728  1.0695  0.7525
 3485TIP3   OH231869   5.319   3.126  14.841  0.4338 -0.4854  0.2727
 3485TIP3    H131870   5.400   3.141  14.792  0.6588 -0.4693  0.6432
 3485TIP3    H231871   5.259   3.087  14.777 -0.3925  2.4379 -0.8903
 3486TIP3   OH231872   4.830   0.457  16.551  0.4374  0.0195  0.1996
 3486TIP3    H131873   4.762   0.465  16.485  2.5374 -0.9074 -2.2312
 3486TIP3    H231874   4.862   0.547  16.564 -0.1234  0.2333  0.1084
 3487TIP3   OH231875   6.559   5.616   1.971  0.0522  0.1598  0.5925
 3487TIP3    H131876   6.639   5.668   1.964 -0.2326  0.5769  0.4357
 3487TIP3    H231877   6.543   5.584   1.882  1.6315 -2.3316  1.0941
 3488TIP3   OH231878   0.024   4.503  17.081  0.3503 -0.2950 -0.5661
 3488TIP3    H131879  -0.066   4.475  17.091  0.2714  0.3600  0.7498
 3488TIP3    H231880   0.061   4.501  17.170  1.3850  0.2179 -0.9569
 3489TIP3   OH231881   2.373   3.975  11.492  0.4258  0.3499  0.8545
 3489TIP3    H131882   2.308   3.908  11.514  0.4187  0.5483  1.4716
 3489TIP3    H231883   2.325   4.037  11.437 -0.3484  1.2412  2.4371
 3490TIP3   OH231884   2.221   3.737   4.487 -0.5361  0.5665 -0.4950
 3490TIP3    H131885   2.298   3.708   4.536  0.1928  2.0940 -0.6768
 3490TIP3    H231886   2.148   3.690   4.528  0.4979 -1.1526 -0.5152
 3491TIP3   OH231887   5.559   2.714  11.411  0.5518 -0.5673  0.1107
 3491TIP3    H131888   5.642   2.752  11.440  0.6466 -0.8019  0.1467
 3491TIP3    H231889   5.582   2.626  11.381  0.9144  0.5318 -3.1583
 3492TIP3   OH231890   2.111   5.402   2.383  0.4028  0.8961 -0.1464
 3492TIP3    H131891   2.035   5.426   2.329  0.3062  2.5462  0.6645
 3492TIP3    H231892   2.139   5.318   2.348 -2.2355 -0.1230 -0.0283
 3493TIP3   OH231893   4.034   1.213   1.028 -0.0825 -0.1682 -0.4432
 3493TIP3    H131894   4.058   1.245   0.941 -1.4721  0.1573 -0.7274
 3493TIP3    H231895   3.981   1.134   1.011 -1.6270  0.7283  0.0179
 3494TIP3   OH231896   5.271   4.342  15.382 -0.0371 -0.2308  0.3405
 3494TIP3    H131897   5.213   4.376  15.451 -0.4689  1.0944 -0.6118
 3494TIP3    H231898   5.327   4.279  15.426 -0.9913 -0.1928  1.6846
 3495TIP3   OH231899   1.951   0.355   3.167 -0.4668 -0.0094 -0.1401
 3495TIP3    H131900   2.004   0.285   3.130 -0.6004 -0.0095 -0.3312
 3495TIP3    H231901   1.865   0.316   3.181 -0.6363  0.2126 -0.5651
 3496TIP3   OH231902   3.936   3.979  17.604 -0.3715 -0.5805 -0.4303
 3496TIP3    H131903   3.856   3.929  17.586 -1.3900  0.2898  1.4346
 3496TIP3    H231904   3.943   3.981  17.699  0.4529  1.5299 -0.4668
 3497TIP3   OH231905   6.074   6.339  10.657  0.1052 -0.1199  0.3660
 3497TIP3    H131906   6.129   6.417  10.648  0.5061 -0.4045  0.3265
 3497TIP3    H231907   5.986   6.374  10.673 -0.0002  0.3587 -1.1367
 3498TIP3   OH231908   2.805   0.042  16.392  0.0918  0.2441 -0.8711
 3498TIP3    H131909   2.833  -0.044  16.360  0.5631  0.5150 -1.1983
 3498TIP3    H231910   2.873   0.067  16.454 -0.5731 -0.0673  0.0086
 3499TIP3   OH231911   1.787   2.972  17.075  0.3105 -0.6557  0.0343
 3499TIP3    H131912   1.859   2.975  17.138 -0.5626  0.6715  1.0239
 3499TIP3    H231913   1.831   2.978  16.990  1.4202 -0.6382  0.5814
 3500TIP3   OH231914   2.571   1.927  16.053  0.0754 -0.4210  0.5461
 3500TIP3    H131915   2.660   1.904  16.027  0.6815 -0.2023  2.2845
 3500TIP3    H231916   2.541   1.988  15.986  1.6299  0.3128  0.4775
 3501TIP3   OH231917   5.360   3.205   3.530 -0.1158 -0.2047  0.2071
 3501TIP3    H131918   5.408   3.254   3.597 -0.7508  1.2779 -0.3799
 3501TIP3    H231919   5.324   3.272   3.472 -1.8819 -1.3070 -0.0591
 3502TIP3   OH231920   6.034   1.083   4.932 -0.0073  0.0844 -0.7077
 3502TIP3    H131921   6.071   1.015   4.876  0.0071 -0.3826 -0.1423
 3502TIP3    H231922   5.942   1.059   4.941  0.0404  0.0303 -0.3533
 3503TIP3   OH231923   2.980   5.797   2.352  0.4223 -0.1641 -0.8838
 3503TIP3    H131924   3.048   5.746   2.308  0.1803 -1.2313 -0.0724
 3503TIP3    H231925   3.019   5.884   2.365  1.9872 -0.9928  0.3460
 3504TIP3   OH231926   2.581   1.763   4.270 -0.4841 -0.3784 -0.1735
 3504TIP3    H131927   2.495   1.790   4.303  0.0205  1.5138 -0.2805
 3504TIP3    H231928   2.590   1.809   4.187  0.5689 -0.6774 -0.2412
 3505TIP3   OH231929   5.971   2.143  13.526  0.9030  0.0182  0.5358
 3505TIP3    H131930   5.939   2.159  13.615  0.9745  0.5358  0.4680
 3505TIP3    H231931   6.064   2.164  13.530  1.0960 -0.8033  0.5545
 3506TIP3   OH231932   2.291   4.427   4.477 -0.1232 -0.1796 -0.1997
 3506TIP3    H131933   2.308   4.510   4.521  0.9911 -0.2110 -0.5560
 3506TIP3    H231934   2.195   4.425   4.468 -0.3038  0.2978  1.2622
 3507TIP3   OH231935   0.205   2.739  15.500  0.4222 -0.4527  0.0106
 3507TIP3    H131936   0.198   2.802  15.572 -2.6941  0.6669 -1.0752
 3507TIP3    H231937   0.133   2.677  15.516  0.2932 -0.7508 -1.5893
 3508TIP3   OH231938   2.577   4.172   5.134  0.2736  0.1172 -0.4365
 3508TIP3    H131939   2.561   4.101   5.073 -2.2381  1.9071 -2.0750
 3508TIP3    H231940   2.647   4.224   5.094  1.5854 -0.9496  0.3927
 3509TIP3   OH231941   5.478   0.149   5.895 -0.2878 -0.0368 -0.4229
 3509TIP3    H131942   5.470   0.069   5.843 -1.5635 -0.2632  0.0705
 3509TIP3    H231943   5.518   0.121   5.977  3.2850  0.5970 -1.8020
 3510TIP3   OH231944   2.338   3.871   4.977  0.5180  0.3733 -0.1270
 3510TIP3    H131945   2.375   3.915   5.054 -0.5436  0.0405  0.6046
 3510TIP3    H231946   2.247   3.900   4.974  0.4449  0.0902 -1.0539
 3511TIP3   OH231947   5.894   2.998  13.471  0.1429  0.0482  0.2546
 3511TIP3    H131948   5.893   3.011  13.377  0.4129 -1.8138 -0.0467
 3511TIP3    H231949   5.829   2.929  13.487  0.9303 -0.5060  1.2594
 3512TIP3   OH231950   4.851   0.607  14.129  0.0750  0.7164  0.0589
 3512TIP3    H131951   4.811   0.616  14.216 -0.9532 -1.7676 -0.0708
 3512TIP3    H231952   4.942   0.584  14.147 -0.0548  0.5152  0.4812
 3513TIP3   OH231953   5.131   5.269  11.791  0.1445 -0.1432  0.1365
 3513TIP3    H131954   5.182   5.324  11.733  0.5509  0.7569  1.3087
 3513TIP3    H231955   5.106   5.326  11.863 -0.7569 -1.0985  0.6184
 3514TIP3   OH231956   4.853   3.182  12.149 -0.2128 -0.1106 -0.6150
 3514TIP3    H131957   4.893   3.096  12.140  1.0907  0.3953  0.0772
 3514TIP3    H231958   4.808   3.179  12.233 -0.2056 -0.1288 -0.6116
 3515TIP3   OH231959   0.702   5.263  11.776  0.0168  0.0640  0.4474
 3515TIP3    H131960   0.671   5.313  11.701  3.5783  0.5241 -0.8807
 3515TIP3    H231961   0.653   5.181  11.772 -0.3641  0.3471 -1.9602
 3516TIP3   OH231962   4.676   4.629  17.087  0.2858  0.1971  0.4404
 3516TIP3    H131963   4.726   4.645  17.168  1.3363  1.2607 -0.3749
 3516TIP3    H231964   4.681   4.534  17.075  2.3159  0.2573  0.3202
 3517TIP3   OH231965   2.101   6.600  11.380  0.4809 -0.5739  0.0884
 3517TIP3    H131966   2.103   6.515  11.425 -1.0107 -0.3270  0.6697
 3517TIP3    H231967   2.113   6.578  11.288  0.3747 -1.3928  0.2563
 3518TIP3   OH231968   6.146   0.250  12.040  0.0373 -0.4540  0.1272
 3518TIP3    H131969   6.073   0.266  11.980 -0.5289 -1.8508  0.4149
 3518TIP3    H231970   6.219   0.226  11.983 -0.5292 -1.8895 -0.0300
 3519TIP3   OH231971   2.203   4.172  14.442 -0.6485 -0.4777  0.6222
 3519TIP3    H131972   2.166   4.241  14.498 -1.2021 -0.4033  0.1718
 3519TIP3    H231973   2.160   4.092  14.471  0.6016 -0.7857  1.7073
 3520TIP3   OH231974   5.555   3.414   2.995  0.2305  0.2861 -0.0206
 3520TIP3    H131975   5.561   3.485   2.931  0.4876  0.0598 -0.2510
 3520TIP3    H231976   5.467   3.378   2.983  0.1794  0.4247 -0.0565
 3521TIP3   OH231977   2.376   3.414  12.208  0.0897 -0.8951  0.2605
 3521TIP3    H131978   2.468   3.412  12.181 -0.3122 -2.2919 -1.0989
 3521TIP3    H231979   2.328   3.379  12.133 -1.5140 -0.6662  1.1441
 3522TIP3   OH231980   5.696   2.687   1.957  0.1618 -0.2067  0.3947
 3522TIP3    H131981   5.697   2.727   2.045  0.8893 -0.7335  0.6363
 3522TIP3    H231982   5.744   2.750   1.903  1.4304 -0.7756  0.8047
 3523TIP3   OH231983   1.402   0.919   5.912  0.0671  0.1068  0.1093
 3523TIP3    H131984   1.401   0.876   5.826  0.2182 -0.5749  0.4364
 3523TIP3    H231985   1.321   0.969   5.915  1.5508  2.8628 -1.7474
 3524TIP3   OH231986   6.678   2.051  17.395  0.0318  0.2082 -0.5416
 3524TIP3    H131987   6.636   2.011  17.319  0.9864 -0.2702 -0.8241
 3524TIP3    H231988   6.761   2.086  17.361  0.2105  0.4767  0.1629
 3525TIP3   OH231989   3.698   6.445   1.853  0.5010  0.2794  0.1204
 3525TIP3    H131990   3.717   6.360   1.813  1.3278  1.7149 -2.8009
 3525TIP3    H231991   3.634   6.485   1.795  1.5009  2.3951  0.3821
 3526TIP3   OH231992   0.080   4.122   1.248  0.1238  0.2871  0.5926
 3526TIP3    H131993  -0.007   4.108   1.285  0.1711 -0.2598  0.5095
 3526TIP3    H231994   0.080   4.071   1.166  0.5116  0.2937  0.5839
 3527TIP3   OH231995   2.531   3.240  13.754 -0.1389 -0.1500  0.2472
 3527TIP3    H131996   2.554   3.332  13.764  0.5616 -0.4230  1.4552
 3527TIP3    H231997   2.606   3.193  13.789 -0.4863 -1.1876 -0.3596
 3528TIP3   OH231998   2.243   3.897   0.925  0.9398  0.2233 -0.0496
 3528TIP3    H131999   2.233   3.989   0.899 -0.0285 -0.1599 -1.1062
 3528TIP3    H232000   2.156   3.860   0.914  1.3362 -0.8440  0.3356
 3529TIP3   OH232001   4.354   4.613  11.180  0.3524 -0.0430 -0.3182
 3529TIP3    H132002   4.413   4.600  11.254  1.7597  0.7179 -1.2813
 3529TIP3    H232003   4.391   4.686  11.131 -0.3544 -0.7369 -1.9651
 3530TIP3   OH232004   1.912   2.775  17.601  0.1277  0.0744 -0.1337
 3530TIP3    H132005   1.878   2.715  17.667  0.1521 -1.0052 -1.0708
 3530TIP3    H232006   1.841   2.783  17.538  0.3508  0.5589 -0.3286
 3531TIP3   OH232007   5.513   2.129   5.156 -0.6441  0.2719 -0.1087
 3531TIP3    H132008   5.426   2.163   5.136 -0.4291  0.7483 -0.2489
 3531TIP3    H232009   5.553   2.114   5.070 -0.5381  0.1783 -0.0431
 3532TIP3   OH232010   4.493   5.712  15.407 -0.0211  0.5388 -0.3271
 3532TIP3    H132011   4.468   5.634  15.457  2.2797 -0.7982 -1.0812
 3532TIP3    H232012   4.529   5.772  15.472 -0.1765  0.2305  0.0453
 3533TIP3   OH232013   4.925   2.563   2.707  0.3969  1.1261  0.4550
 3533TIP3    H132014   4.917   2.548   2.802  1.1722 -0.8238  0.2602
 3533TIP3    H232015   4.851   2.516   2.669  0.5753  1.1855  0.0352
 3534TIP3   OH232016   2.316   1.089  13.144  0.2583 -0.0200  0.2566
 3534TIP3    H132017   2.411   1.098  13.146  0.3183  1.0930 -2.5838
 3534TIP3    H232018   2.301   1.007  13.096 -0.1763  0.2743 -0.1204
 3535TIP3   OH232019   3.059   0.035  11.325 -0.2222 -0.2550  0.1622
 3535TIP3    H132020   3.136   0.011  11.377  0.4566 -0.2482 -0.8061
 3535TIP3    H232021   3.078   0.001  11.238 -1.4231 -0.4295 -0.0481
 3536TIP3   OH232022   2.062   2.706   1.764  0.0935 -0.4717 -0.2743
 3536TIP3    H132023   2.138   2.673   1.716 -0.8628 -1.6118 -1.0380
 3536TIP3    H232024   2.002   2.632   1.768 -1.2807  0.6148 -0.2746
 3537TIP3   OH232025   0.294   1.830   1.455  0.5476 -0.0640  0.1813
 3537TIP3    H132026   0.246   1.902   1.414  0.8565 -0.2221 -0.4693
 3537TIP3    H232027   0.274   1.838   1.549 -1.8182 -0.8986 -0.1795
 3538TIP3   OH232028   4.825   0.611   5.350  0.3803  0.8988 -0.7690
 3538TIP3    H132029   4.833   0.650   5.437 -0.2899 -0.6104 -0.0116
 3538TIP3    H232030   4.910   0.628   5.309  1.7537 -0.7266  1.1934
 3539TIP3   OH232031   6.469   4.123   4.767 -0.3970  0.0960  0.4516
 3539TIP3    H132032   6.496   4.034   4.744  0.2400 -0.2475  2.2617
 3539TIP3    H232033   6.476   4.172   4.686  1.3876 -1.0285 -0.1441
 3540TIP3   OH232034   2.512   2.241   5.701  0.0153 -0.1000 -0.3232
 3540TIP3    H132035   2.442   2.296   5.663 -0.7040 -0.3482  0.6089
 3540TIP3    H232036   2.472   2.155   5.710 -0.0333  0.0635  1.4660
 3541TIP3   OH232037   4.900   4.690   6.417  0.2072 -0.0206 -0.0778
 3541TIP3    H132038   4.984   4.645   6.409 -0.2863 -0.9554 -0.0632
 3541TIP3    H232039   4.898   4.721   6.507 -0.9842 -3.1447  1.0971
 3542TIP3   OH232040   3.500   1.434  13.012  0.2913 -0.0610  0.1658
 3542TIP3    H132041   3.485   1.410  12.920  1.5087  0.0471 -0.0869
 3542TIP3    H232042   3.582   1.484  13.010  1.3335 -1.6073  1.5261
 3543TIP3   OH232043   1.780   4.306   2.997 -0.1511  0.6797  0.3507
 3543TIP3    H132044   1.699   4.321   3.046 -0.2807  3.2302 -0.4964
 3543TIP3    H232045   1.757   4.324   2.906  1.2456  0.9848  0.0404
 3544TIP3   OH232046   4.066   0.006  15.625 -0.7285  0.4322  0.4391
 3544TIP3    H132047   3.976   0.029  15.602 -0.9270 -2.6173 -2.7777
 3544TIP3    H232048   4.057  -0.067  15.686 -0.3359  1.3196  1.5939
 3545TIP3   OH232049   1.632   3.291  16.175 -0.0870 -0.3615 -0.4351
 3545TIP3    H132050   1.701   3.348  16.140 -0.9745  0.5285 -0.7868
 3545TIP3    H232051   1.560   3.351  16.194 -0.8893 -1.3255 -0.3933
 3546TIP3   OH232052   4.324   1.562  15.358 -0.0667 -0.3356  0.5405
 3546TIP3    H132053   4.327   1.490  15.420  0.3531 -0.4099  0.4386
 3546TIP3    H232054   4.346   1.522  15.273  1.8749  0.1843  0.7449
 3547TIP3   OH232055   0.127   4.442   3.065  0.7006 -0.4258 -0.1295
 3547TIP3    H132056   0.203   4.468   3.012  2.8672 -2.6852  1.6293
 3547TIP3    H232057   0.110   4.352   3.040  0.0663 -0.6782  1.1302
 3548TIP3   OH232058   0.910   5.171   5.447  0.1708 -0.0282 -0.5224
 3548TIP3    H132059   0.907   5.086   5.492  1.0664  0.2129  0.0087
 3548TIP3    H232060   0.950   5.230   5.510  0.4016  0.5835 -1.2269
 3549TIP3   OH232061   2.935   3.334  16.458  0.4421  0.1103 -0.1831
 3549TIP3    H132062   2.915   3.240  16.463  1.6310 -0.2620 -1.7019
 3549TIP3    H232063   2.943   3.361  16.550 -3.8544 -0.3003  0.5028
 3550TIP3   OH232064   3.397   3.148   1.963  0.1496  0.3071 -0.2352
 3550TIP3    H132065   3.353   3.233   1.961 -2.0293 -0.7272  0.2152
 3550TIP3    H232066   3.362   3.101   1.888 -0.3535 -0.9214  0.7215
 3551TIP3   OH232067   0.084   3.376   1.051  0.1092  0.2119  0.2586
 3551TIP3    H132068   0.180   3.373   1.048  0.1824  1.9323 -1.2495
 3551TIP3    H232069   0.060   3.441   0.984 -2.1301 -0.4041  0.3733
 3552TIP3   OH232070   2.382   4.683   5.373 -0.0527 -0.5289  0.4946
 3552TIP3    H132071   2.475   4.669   5.391  0.2048  0.1519 -0.2647
 3552TIP3    H232072   2.377   4.770   5.334 -1.1551 -0.0887  1.5450
 3553TIP3   OH232073   4.031   4.390  10.772 -0.1305  0.0603  0.5763
 3553TIP3    H132074   3.948   4.354  10.805 -0.5647 -0.3370 -0.8830
 3553TIP3    H232075   4.071   4.318  10.724  0.7354  0.4674  0.6741
 3554TIP3   OH232076   0.465   3.057  11.643  0.0089  0.1104  0.5731
 3554TIP3    H132077   0.507   3.089  11.564  0.2473 -0.9113  0.2717
 3554TIP3    H232078   0.379   3.098  11.644 -0.5207 -0.8955 -0.9303
 3555TIP3   OH232079   2.824   4.398  17.412 -0.2202  0.3982  0.1240
 3555TIP3    H132080   2.742   4.427  17.371  0.3600 -0.4054 -1.7335
 3555TIP3    H232081   2.891   4.454  17.373  0.8765 -2.7875 -3.2427
 3556TIP3   OH232082   6.654   2.816  14.957 -0.2050  0.1556 -0.0509
 3556TIP3    H132083   6.737   2.858  14.978 -0.0294  0.9910 -2.1868
 3556TIP3    H232084   6.661   2.792  14.865 -1.5938 -1.5894  0.2302
 3557TIP3   OH232085   6.228   2.252   0.607  0.1180 -0.5077  0.2417
 3557TIP3    H132086   6.217   2.343   0.581 -0.5705 -0.7733 -0.4196
 3557TIP3    H232087   6.267   2.257   0.695  0.5746  0.4081  0.0016
 3558TIP3   OH232088   2.915   6.543   2.148  0.5953  0.0651 -0.2147
 3558TIP3    H132089   2.884   6.494   2.072 -1.0165 -0.0078  0.4513
 3558TIP3    H232090   2.998   6.501   2.172 -0.0061 -1.3760 -0.5634
 3559TIP3   OH232091   6.259   5.512   3.948 -0.1668  0.2229 -0.3369
 3559TIP3    H132092   6.343   5.465   3.945  0.1683  0.6090  1.5391
 3559TIP3    H232093   6.193   5.444   3.939  0.3297 -0.5573  1.3977
 3560TIP3   OH232094   2.801   0.674   6.035  0.0150 -0.3531 -0.6890
 3560TIP3    H132095   2.844   0.594   6.002 -1.0892 -0.7298 -1.2549
 3560TIP3    H232096   2.760   0.646   6.117 -2.0721 -0.9372 -1.8669
 3561TIP3   OH232097   1.044   1.290  15.009  0.1740  0.6579  0.4799
 3561TIP3    H132098   1.128   1.247  14.993  0.5367  1.5845 -0.1381
 3561TIP3    H232099   1.036   1.356  14.940 -0.6045  1.2609  1.1188
 3562TIP3   OH232100   6.429   5.295  15.316 -0.2652 -0.2186  0.1191
 3562TIP3    H132101   6.466   5.209  15.293  0.7629  0.6000 -1.5090
 3562TIP3    H232102   6.506   5.348  15.338 -0.5263  1.1449 -2.0008
 3563TIP3   OH232103   6.408   4.425   5.400 -0.0856  0.2621  0.2005
 3563TIP3    H132104   6.401   4.428   5.304  0.4255  1.5255  0.1711
 3563TIP3    H232105   6.388   4.335   5.423 -0.1955 -0.0725 -1.1062
 3564TIP3   OH232106   0.778   4.152  14.745  0.5749 -0.4528 -0.0464
 3564TIP3    H132107   0.694   4.107  14.747  0.0120  0.5252  2.9328
 3564TIP3    H232108   0.766   4.221  14.679 -1.5707  0.6711  1.3998
 3565TIP3   OH232109   0.675   0.216   6.799 -0.4112 -0.3358 -0.5927
 3565TIP3    H132110   0.621   0.253   6.729 -2.4404  0.2708  1.1842
 3565TIP3    H232111   0.635   0.131   6.817 -0.3392 -0.1864  0.2770
 3566TIP3   OH232112   1.471   4.209  14.826 -0.0842 -0.0344 -0.2749
 3566TIP3    H132113   1.525   4.149  14.878 -0.3787 -0.4011 -0.3898
 3566TIP3    H232114   1.438   4.272  14.889  0.7819  0.4221 -0.2588
 3567TIP3   OH232115   0.796   6.533  14.377 -0.0038  0.0638  0.3638
 3567TIP3    H132116   0.777   6.467  14.310 -1.0615 -0.1823  0.8745
 3567TIP3    H232117   0.890   6.527  14.391  0.2626  0.2189 -1.1906
 3568TIP3   OH232118   1.727   1.415   0.702  0.1996  0.0916 -0.7042
 3568TIP3    H132119   1.810   1.423   0.749  0.1995 -1.8744 -0.2755
 3568TIP3    H232120   1.727   1.487   0.639  2.2242  0.1220 -0.7206
 3569TIP3   OH232121   6.047   3.565   4.458  0.5512 -0.4017 -0.1282
 3569TIP3    H132122   6.030   3.583   4.551 -0.2121 -1.5727 -0.0289
 3569TIP3    H232123   5.990   3.626   4.411 -0.0705 -0.7332  0.1850
 3570TIP3   OH232124   2.994   4.357  16.826 -0.0712 -0.4786 -0.3068
 3570TIP3    H132125   2.968   4.371  16.917 -2.9021 -0.1592 -1.0669
 3570TIP3    H232126   2.991   4.445  16.787 -0.2679 -0.8038 -1.0379
 3571TIP3   OH232127   6.010   5.369   4.800  0.2237  0.4639 -0.0571
 3571TIP3    H132128   6.064   5.326   4.734 -0.6441  0.3425 -0.7091
 3571TIP3    H232129   5.967   5.297   4.847 -0.2529  0.5750 -0.3130
 3572TIP3   OH232130   4.013   2.822   2.073  0.0554  0.0736 -0.2581
 3572TIP3    H132131   4.100   2.862   2.078 -0.4879  1.2038  1.1201
 3572TIP3    H232132   4.005   2.772   2.154 -0.5609 -0.0290 -0.3758
 3573TIP3   OH232133   3.012   3.710   4.537 -0.0578 -0.3835 -0.4255
 3573TIP3    H132134   3.069   3.634   4.548 -0.6383 -0.7135  0.4690
 3573TIP3    H232135   2.962   3.692   4.458 -0.9044 -1.4285  0.3246
 3574TIP3   OH232136   5.344   1.071  11.880  0.0893  0.4592  0.0534
 3574TIP3    H132137   5.321   1.012  11.953  0.6995  1.5068  1.1312
 3574TIP3    H232138   5.336   1.159  11.917  1.5474  0.9849 -0.7940
 3575TIP3   OH232139   4.638   4.657   2.278 -0.1192  0.4233 -0.0572
 3575TIP3    H132140   4.728   4.664   2.311 -0.4231 -0.9225  1.1792
 3575TIP3    H232141   4.648   4.645   2.184  1.2547 -3.1228  0.3925
 3576TIP3   OH232142   2.072   2.069   0.381 -0.2859  0.3633 -0.2975
 3576TIP3    H132143   2.021   2.070   0.300 -0.8900 -0.1475  0.0690
 3576TIP3    H232144   2.081   2.161   0.405  0.8408  0.6087 -1.5151
 3577TIP3   OH232145   1.843   3.635   6.180 -1.3248  0.1832 -0.0736
 3577TIP3    H132146   1.817   3.691   6.253  0.5848  0.8453  0.1615
 3577TIP3    H232147   1.866   3.551   6.221  0.5103  0.8038  0.2268
 3578TIP3   OH232148   3.810   5.281  15.648 -0.1632  0.0574 -0.1757
 3578TIP3    H132149   3.809   5.247  15.558 -0.8940 -0.1879 -0.0845
 3578TIP3    H232150   3.736   5.341  15.651 -0.5459 -0.4329  0.4437
 3579TIP3   OH232151   1.867   2.879  15.936  0.1295 -0.3294  0.5660
 3579TIP3    H132152   1.826   2.965  15.924 -0.7810 -0.7685  0.4176
 3579TIP3    H232153   1.809   2.818  15.890  0.0232 -1.2054  1.8118
 3580TIP3   OH232154   5.881   2.151  13.785 -0.1442 -0.3941 -0.4763
 3580TIP3    H132155   5.830   2.076  13.816  0.6046 -0.3584  0.9242
 3580TIP3    H232156   5.932   2.178  13.861  1.8783 -0.3618 -1.7641
 3581TIP3   OH232157   4.488   3.021  15.805 -0.2729  0.2704  0.2301
 3581TIP3    H132158   4.493   3.097  15.862  2.1498  0.6487 -0.3831
 3581TIP3    H232159   4.472   3.057  15.718 -0.2583 -0.0271  0.1019
 3582TIP3   OH232160   5.105   5.018   1.294  0.4363 -0.1166 -0.5653
 3582TIP3    H132161   5.045   4.997   1.365  2.3642  0.1414  1.2126
 3582TIP3    H232162   5.120   5.112   1.301 -0.3988  0.1923 -2.2362
 3583TIP3   OH232163   6.443   1.496  12.893 -0.3689  0.2701 -0.6716
 3583TIP3    H132164   6.530   1.461  12.876 -0.5291 -0.7140  0.3684
 3583TIP3    H232165   6.449   1.588  12.870  1.4499  0.6310  0.9601
 3584TIP3   OH232166   5.388   2.699   2.181 -0.0684 -0.7270  0.5707
 3584TIP3    H132167   5.342   2.682   2.263 -0.9750  1.1514  0.5057
 3584TIP3    H232168   5.352   2.635   2.120 -2.5807  0.5565  0.5667
 3585TIP3   OH232169   1.816   3.185  12.439 -0.1630 -1.3488  0.1451
 3585TIP3    H132170   1.806   3.219  12.350 -0.7914 -1.4886  0.1598
 3585TIP3    H232171   1.757   3.238  12.492 -1.2123 -2.4895  0.1575
 3586TIP3   OH232172   3.460   3.818  13.964 -0.2521 -1.2318  0.0173
 3586TIP3    H132173   3.402   3.879  14.010 -0.1129  0.8371 -2.3412
 3586TIP3    H232174   3.406   3.741  13.946 -1.3793 -0.5359  0.3459
 3587TIP3   OH232175   0.459   6.510   2.541  0.1884 -0.4071  0.1222
 3587TIP3    H132176   0.459   6.451   2.616 -1.4018 -1.0221 -0.3206
 3587TIP3    H232177   0.423   6.592   2.575  0.6651 -0.2718  0.3109
 3588TIP3   OH232178   4.272   2.022  13.707  0.5651 -0.6786 -0.2194
 3588TIP3    H132179   4.342   2.084  13.689 -1.3338  0.8724 -2.9100
 3588TIP3    H232180   4.244   2.043  13.796  0.5358  1.8519 -0.7519
 3589TIP3   OH232181   5.827   2.745  11.453  0.1490  0.6337 -0.2128
 3589TIP3    H132182   5.899   2.725  11.512  1.0764 -0.1883 -1.5439
 3589TIP3    H232183   5.867   2.741  11.365 -1.3988  0.7060 -0.9512
 3590TIP3   OH232184   0.386   3.606  12.793  0.1338  0.0453  0.1141
 3590TIP3    H132185   0.376   3.512  12.778  1.9799 -0.3406  1.0264
 3590TIP3    H232186   0.389   3.644  12.705 -2.7126 -0.4156 -0.2964
 3591TIP3   OH232187   2.442   3.966   3.526 -0.0687  0.0534  0.5237
 3591TIP3    H132188   2.460   3.935   3.614  0.2512  0.9776  0.7897
 3591TIP3    H232189   2.349   3.992   3.528  0.3805  1.7313  1.1103
 3592TIP3   OH232190   4.048   2.949   2.396  0.2111 -0.0970  0.0438
 3592TIP3    H132191   4.051   2.998   2.313 -0.1839  1.8868  1.1422
 3592TIP3    H232192   4.023   3.014   2.461  1.4443 -1.4034  1.9021
 3593TIP3   OH232193   5.702   1.109   5.269  0.9923  0.1687  0.3364
 3593TIP3    H132194   5.654   1.028   5.253 -0.4808  1.1379 -0.3600
 3593TIP3    H232195   5.794   1.085   5.257  0.5013 -1.0540 -1.4772
 3594TIP3   OH232196   2.964   5.286  14.085  0.3141  0.1729  0.2755
 3594TIP3    H132197   3.024   5.352  14.050  1.7225 -1.1877  0.0102
 3594TIP3    H232198   2.915   5.254  14.009  0.9294 -0.3522  0.0912
 3595TIP3   OH232199   6.042   1.980   0.513  0.3129 -0.0112 -0.0037
 3595TIP3    H132200   6.004   1.959   0.427  0.2479  1.1751 -0.2816
 3595TIP3    H232201   6.004   2.065   0.536 -1.7218 -1.4545  2.4416
 3596TIP3   OH232202   4.652   5.059   4.190 -0.0235  0.1600 -0.1292
 3596TIP3    H132203   4.576   5.080   4.136 -0.1780 -1.5583 -0.6426
 3596TIP3    H232204   4.727   5.065   4.130  0.0340  0.0902 -0.0648
 3597TIP3   OH232205   0.798   1.186   0.616  0.1261 -0.1461  0.3607
 3597TIP3    H132206   0.708   1.194   0.647 -0.3864  0.6766 -1.2328
 3597TIP3    H232207   0.822   1.095   0.637 -0.9489 -0.2941  1.0762
 3598TIP3   OH232208   6.263   3.021  16.252 -0.4946  0.6523  0.3566
 3598TIP3    H132209   6.327   2.970  16.203  0.2173  1.3488  0.5557
 3598TIP3    H232210   6.209   2.955  16.296 -1.0380  0.0232 -1.1952
 3599TIP3   OH232211   2.828   2.345   1.855  0.0906  0.7734  0.4591
 3599TIP3    H132212   2.765   2.361   1.925  0.6623  1.1277  0.8939
 3599TIP3    H232213   2.908   2.318   1.900  0.3053  0.4932 -0.0830
 3600TIP3   OH232214   3.070   0.443  13.025 -0.4477  0.7099 -0.1294
 3600TIP3    H132215   3.071   0.402  13.112  2.3729  1.1109  0.1008
 3600TIP3    H232216   3.058   0.536  13.043  0.9286  0.8889 -0.0939
 3601TIP3   OH232217   5.404   4.617   6.362 -0.3842 -0.4618 -0.5361
 3601TIP3    H132218   5.458   4.659   6.295  0.3092  1.5492  1.1857
 3601TIP3    H232219   5.427   4.524   6.356  2.3523  0.1409 -0.7258
 3602TIP3   OH232220   3.146   4.452  14.140  0.1461 -0.0928  0.2070
 3602TIP3    H132221   3.116   4.449  14.230 -0.3908 -0.9071  0.0156
 3602TIP3    H232222   3.133   4.363  14.107 -0.3625  0.3674 -0.8905
 3603TIP3   OH232223   3.068   2.534  11.373 -0.0762 -0.2266  0.4886
 3603TIP3    H132224   3.140   2.597  11.381 -0.4261  0.0019  2.1147
 3603TIP3    H232225   3.033   2.550  11.285  0.3957  1.2346  0.5304
 3604TIP3   OH232226   0.698   6.122   2.733 -0.1737 -0.1135  0.0140
 3604TIP3    H132227   0.610   6.159   2.735 -0.5042 -0.8548  2.1731
 3604TIP3    H232228   0.710   6.092   2.643 -2.5817 -1.0196 -0.0761
 3605TIP3   OH232229   0.634   4.048   3.585  0.6142  0.1760 -0.2429
 3605TIP3    H132230   0.673   4.135   3.584  0.1897  0.3730 -0.1595
 3605TIP3    H232231   0.540   4.064   3.576  0.4564 -0.2287  0.5704
 3606TIP3   OH232232   3.909   3.462  14.487 -0.2352 -0.2509  0.9836
 3606TIP3    H132233   3.842   3.527  14.466  2.6370  2.3640 -0.8463
 3606TIP3    H232234   3.899   3.447  14.581 -2.1830  1.4230  1.1167
 3607TIP3   OH232235   3.181   6.212  14.496  0.8536 -0.2606  0.4882
 3607TIP3    H132236   3.242   6.207  14.570  0.6995 -1.6085  0.5516
 3607TIP3    H232237   3.105   6.160  14.524  0.7662 -0.7288 -0.5673
 3608TIP3   OH232238   2.736   2.160   6.547  1.0130 -0.0038 -0.1596
 3608TIP3    H132239   2.689   2.187   6.625  2.5933  0.4935  0.6637
 3608TIP3    H232240   2.758   2.068   6.562 -1.2066 -0.8112 -1.3625
 3609TIP3   OH232241   4.820   5.256  15.321 -0.6115  0.5145  0.1872
 3609TIP3    H132242   4.890   5.192  15.305 -1.0445 -0.4386  1.9443
 3609TIP3    H232243   4.852   5.336  15.279 -0.1376 -0.8349 -2.2628
 3610TIP3   OH232244   0.270   4.381  15.116 -0.6553 -0.6205  0.1879
 3610TIP3    H132245   0.225   4.351  15.037 -0.2299 -0.1043 -0.2500
 3610TIP3    H232246   0.240   4.471  15.129  1.0942  0.1629 -0.7763
 3611TIP3   OH232247   2.596   4.729  16.041  0.2961 -0.1834 -0.1029
 3611TIP3    H132248   2.555   4.672  16.106  1.5003  0.5541  1.3598
 3611TIP3    H232249   2.635   4.669  15.977 -0.1957 -0.9472  0.2972
 3612TIP3   OH232250   4.295   5.290  10.957 -0.0377 -0.1874 -0.2600
 3612TIP3    H132251   4.365   5.345  10.993 -0.9164 -0.0546  1.3100
 3612TIP3    H232252   4.249   5.256  11.033 -1.0616 -1.1090 -1.2546
 3613TIP3   OH232253   6.237   2.839  12.333  0.4839  0.6868  0.3010
 3613TIP3    H132254   6.250   2.910  12.396 -0.3740  0.1880  1.0571
 3613TIP3    H232255   6.196   2.769  12.384  2.6907 -0.9578 -0.0344
 3614TIP3   OH232256   2.314   4.847   2.054  0.5220  0.0308  0.3462
 3614TIP3    H132257   2.242   4.827   2.113  0.8819 -2.4625  0.0508
 3614TIP3    H232258   2.386   4.874   2.112 -0.3313  1.6977  0.6915
 3615TIP3   OH232259   6.540   4.178  12.409 -0.1997  0.6243  0.1843
 3615TIP3    H132260   6.594   4.237  12.462 -1.0782  1.5379  0.1049
 3615TIP3    H232261   6.603   4.126  12.359  0.7310 -1.2437  3.0731
 3616TIP3   OH232262   6.175   4.867   0.325 -0.1604  0.1469  0.1077
 3616TIP3    H132263   6.105   4.876   0.390 -0.4912 -0.4453 -0.1642
 3616TIP3    H232264   6.224   4.790   0.354 -0.9813 -0.7966 -0.9693
 3617TIP3   OH232265   1.292   2.165  14.035  0.0194  0.2074 -0.3252
 3617TIP3    H132266   1.244   2.086  14.063  0.6135 -0.2098 -0.4599
 3617TIP3    H232267   1.248   2.237  14.080 -1.1682 -0.0863 -0.9736
 3618TIP3   OH232268   6.177   2.646   2.148 -0.5573  0.3555  0.1852
 3618TIP3    H132269   6.228   2.606   2.219  0.6098  0.3477 -0.6189
 3618TIP3    H232270   6.162   2.735   2.178 -0.3724  0.2567  0.5958
 3619TIP3   OH232271   2.807   5.683  17.324 -0.3564  0.3776 -0.8733
 3619TIP3    H132272   2.733   5.623  17.333 -0.5601  0.8289  0.7959
 3619TIP3    H232273   2.770   5.770  17.340  0.7872  0.4551  1.8931
 3620TIP3   OH232274   2.460   0.860  16.932 -0.4081  0.0392  0.1508
 3620TIP3    H132275   2.444   0.952  16.954 -0.0463  0.2596 -0.4627
 3620TIP3    H232276   2.538   0.862  16.877 -0.4463 -0.6303  0.0647
 3621TIP3   OH232277   2.841   4.045   5.267 -0.8469 -0.0179  0.0394
 3621TIP3    H132278   2.917   3.987   5.256  0.0982  1.2662 -0.4735
 3621TIP3    H232279   2.833   4.090   5.183 -1.5976  0.5656  0.4121
 3622TIP3   OH232280   1.351   6.252  13.253  0.2319  0.0577 -0.5936
 3622TIP3    H132281   1.379   6.169  13.292  1.4154  0.5151 -0.4351
 3622TIP3    H232282   1.403   6.260  13.173 -0.2303  0.4205 -0.8618
 3623TIP3   OH232283   3.680   5.598   5.647  0.8314 -0.4444 -0.8335
 3623TIP3    H132284   3.689   5.536   5.719 -0.6144  0.0639 -0.1740
 3623TIP3    H232285   3.667   5.543   5.569  1.7029 -0.9839 -0.6034
 3624TIP3   OH232286   0.798   1.408   3.556  0.4269  0.0809 -0.1053
 3624TIP3    H132287   0.777   1.328   3.604  0.8113  1.2891  2.2512
 3624TIP3    H232288   0.876   1.442   3.600  0.8242  1.2687 -1.6515
 3625TIP3   OH232289   6.640   2.212  16.654 -0.3048  0.3321  0.2750
 3625TIP3    H132290   6.679   2.166  16.580 -0.5491 -1.1947  1.0493
 3625TIP3    H232291   6.635   2.304  16.626  3.2586  0.5524 -0.0821
 3626TIP3   OH232292   3.971   3.953  16.184 -0.1331 -0.1376  0.3058
 3626TIP3    H132293   4.016   3.942  16.268  0.5432  1.6923  0.2504
 3626TIP3    H232294   3.897   4.010  16.204 -0.7541 -0.7946 -0.1079
 3627TIP3   OH232295   0.181   1.050   4.055 -0.0029 -0.3692  0.5178
 3627TIP3    H132296   0.143   0.963   4.073 -1.5719  0.3977  1.0867
 3627TIP3    H232297   0.218   1.041   3.967  0.7935 -1.9090  0.9648
 3628TIP3   OH232298   5.911   5.451  12.844 -0.0012 -0.6082  0.2129
 3628TIP3    H132299   5.970   5.465  12.919  0.4963 -0.9639 -0.1043
 3628TIP3    H232300   5.910   5.356  12.833  1.1374 -0.4890 -1.1675
 3629TIP3   OH232301   4.291   2.734  16.482 -0.1917  0.4056 -0.2457
 3629TIP3    H132302   4.309   2.814  16.532 -0.3052  0.4657 -0.2983
 3629TIP3    H232303   4.248   2.675  16.544  1.9192 -0.4935  0.4362
 3630TIP3   OH232304   5.431   3.412  12.490  0.3699 -0.4731  0.4238
 3630TIP3    H132305   5.341   3.390  12.512 -0.5864  1.2681 -1.3860
 3630TIP3    H232306   5.438   3.506  12.507  1.6193 -0.4515 -0.0909
 3631TIP3   OH232307   2.004   4.602  14.209 -0.2581  0.3890  0.1795
 3631TIP3    H132308   1.951   4.623  14.132  0.6527 -1.4694 -1.0393
 3631TIP3    H232309   1.957   4.642  14.282 -2.0761  0.7717 -1.1142
 3632TIP3   OH232310   5.515   4.250  16.832 -0.3726  0.0275 -0.5737
 3632TIP3    H132311   5.499   4.165  16.873  0.1274  1.3323  2.6905
 3632TIP3    H232312   5.571   4.296  16.894  0.6870  2.2113 -2.9662
 3633TIP3   OH232313   2.128   5.117   0.170  0.4110 -0.3926 -0.0491
 3633TIP3    H132314   2.067   5.043   0.160  0.7258 -0.5981 -0.4808
 3633TIP3    H232315   2.198   5.082   0.225  0.4908 -0.3740 -0.1386
 3634TIP3   OH232316   4.766   1.879   3.156 -0.4065 -0.1815  0.3761
 3634TIP3    H132317   4.794   1.963   3.192 -2.1201  0.6047 -0.0145
 3634TIP3    H232318   4.827   1.815   3.193  0.5010  1.1376  1.2353
 3635TIP3   OH232319   2.765   4.892  16.549  1.0738 -0.0375 -0.5628
 3635TIP3    H132320   2.828   4.894  16.477  3.0213 -0.3839  1.0218
 3635TIP3    H232321   2.707   4.966  16.533  1.5720 -0.0098 -2.3782
 3636TIP3   OH232322   3.666   0.887  11.887 -0.2761  0.4566 -0.4003
 3636TIP3    H132323   3.620   0.818  11.838  0.1355  0.3989 -0.7090
 3636TIP3    H232324   3.743   0.843  11.925  0.7258  1.0269 -1.7031
 3637TIP3   OH232325   4.987   1.725   0.610  0.0633 -0.7928 -0.6730
 3637TIP3    H132326   5.002   1.711   0.516 -0.5255 -0.5426 -0.8039
 3637TIP3    H232327   4.996   1.820   0.621 -2.9579 -0.3644 -1.0538
 3638TIP3   OH232328   4.237   3.276   6.302 -0.2035 -0.1173  0.0182
 3638TIP3    H132329   4.143   3.289   6.299 -0.1712 -0.0035 -0.6637
 3638TIP3    H232330   4.250   3.213   6.374 -1.0884 -2.3885 -1.6726
 3639TIP3   OH232331   1.618   1.466  15.097  0.1733 -0.6321 -0.0538
 3639TIP3    H132332   1.598   1.553  15.133  1.8373  0.0867 -0.7396
 3639TIP3    H232333   1.600   1.406  15.169 -1.1684  0.2446  0.3866
 3640TIP3   OH232334   1.574   3.739  14.149  0.2418 -0.0069  0.6718
 3640TIP3    H132335   1.513   3.665  14.140  1.6826 -1.3386  1.2690
 3640TIP3    H232336   1.524   3.815  14.119 -0.9327 -1.3986 -1.2086
 3641TIP3   OH232337   1.154   3.355   3.890  0.0483 -0.2398 -0.2097
 3641TIP3    H132338   1.219   3.310   3.837  2.5752 -0.1649  2.5612
 3641TIP3    H232339   1.142   3.299   3.967  1.5159  2.4517  2.2092
 3642TIP3   OH232340   2.338   6.426  11.499  0.3251 -0.1846  0.2218
 3642TIP3    H132341   2.252   6.426  11.541  0.0099  0.8573 -0.3863
 3642TIP3    H232342   2.400   6.425  11.572 -0.1951 -0.7606  0.6678
 3643TIP3   OH232343   1.138   3.796  14.636 -0.5744 -0.1817  0.8399
 3643TIP3    H132344   1.068   3.839  14.684 -0.0139  0.2395  1.2904
 3643TIP3    H232345   1.102   3.710  14.612 -1.1595 -0.0539  1.2527
 3644TIP3   OH232346   3.153   2.064   4.307 -0.3950  0.1388 -0.1131
 3644TIP3    H132347   3.181   2.124   4.377  0.1133 -0.2718  0.0385
 3644TIP3    H232348   3.060   2.049   4.326 -0.6399  1.2017 -0.3959
 3645TIP3   OH232349   0.228   2.984  14.459 -0.2100  0.1914  0.6646
 3645TIP3    H132350   0.181   3.028  14.529 -1.7287 -0.3827  0.0421
 3645TIP3    H232351   0.307   3.037  14.446  0.1278  0.3086  2.7853
 3646TIP3   OH232352   1.372   4.990   0.346 -0.1081  0.1924  0.0301
 3646TIP3    H132353   1.347   5.026   0.431  0.4191 -1.5302  0.9495
 3646TIP3    H232354   1.460   5.023   0.331  0.9648 -1.7631  1.5659
 3647TIP3   OH232355   1.755   4.934   4.516 -0.0109 -0.0308 -0.0595
 3647TIP3    H132356   1.820   4.904   4.581 -0.9679  1.6378  1.7552
 3647TIP3    H232357   1.670   4.915   4.557 -0.6669 -0.0223 -1.3769
 3648TIP3   OH232358   0.654   2.135  12.588  0.1705 -0.1683  0.0583
 3648TIP3    H132359   0.724   2.074  12.609 -0.8685 -0.9257  1.5725
 3648TIP3    H232360   0.647   2.133  12.493  1.3288 -1.0577 -0.0277
 3649TIP3   OH232361   4.502   1.145  15.660 -0.1598  0.6788 -0.0568
 3649TIP3    H132362   4.490   1.145  15.755 -1.8364  2.6378 -0.1899
 3649TIP3    H232363   4.421   1.108  15.625  0.7865 -0.8234 -0.7482
 3650TIP3   OH232364   1.712   5.534  16.254 -0.2016  0.0843 -0.4305
 3650TIP3    H132365   1.770   5.533  16.178 -0.0047 -1.6381 -0.3057
 3650TIP3    H232366   1.739   5.457  16.305 -1.7765 -0.0363  0.2684
 3651TIP3   OH232367   1.845   5.542  14.803  0.1541  0.3883  0.4882
 3651TIP3    H132368   1.807   5.575  14.722  0.6356  0.7590  0.4082
 3651TIP3    H232369   1.773   5.544  14.866 -1.0159 -2.4642 -0.5770
 3652TIP3   OH232370   0.574   0.467  12.327  0.1714 -0.0066  0.5984
 3652TIP3    H132371   0.622   0.433  12.403  0.4375  0.6466  0.7355
 3652TIP3    H232372   0.544   0.390  12.280  2.4322 -0.4893 -0.1699
 3653TIP3   OH232373   2.977   4.483  16.540 -0.4376 -1.1851 -0.9298
 3653TIP3    H132374   2.971   4.413  16.476 -0.7555 -1.8803 -0.1607
 3653TIP3    H232375   3.070   4.489  16.561 -0.2463 -0.5290 -1.8946
 3654TIP3   OH232376   6.669   2.406   2.889 -0.7049 -0.4300  0.2795
 3654TIP3    H132377   6.750   2.357   2.903  0.6798  1.1836 -1.5710
 3654TIP3    H232378   6.663   2.465   2.964  0.9562  0.8228 -0.5133
 3655TIP3   OH232379   0.350   5.147  15.282 -0.3165  0.1191  0.3040
 3655TIP3    H132380   0.419   5.114  15.225 -0.1859  0.9174 -0.0009
 3655TIP3    H232381   0.269   5.110  15.246 -0.2921  1.0271 -0.7228
 3656TIP3   OH232382   1.830   1.214   2.394  1.0721  0.1669 -0.0905
 3656TIP3    H132383   1.746   1.259   2.406  0.4017 -0.5309 -1.7657
 3656TIP3    H232384   1.824   1.178   2.305  2.3250 -1.6491  0.5218
 3657TIP3   OH232385   3.210   4.142  14.699 -0.2407  0.0433  0.4138
 3657TIP3    H132386   3.291   4.172  14.657  0.7307  0.1921  2.2794
 3657TIP3    H232387   3.209   4.048  14.686  1.3325 -0.2640  2.0450
 3658TIP3   OH232388   3.511   4.278  16.446  0.5093  0.7489  0.6055
 3658TIP3    H132389   3.442   4.223  16.483  0.3617  0.2923 -0.3202
 3658TIP3    H232390   3.578   4.282  16.514 -0.1260  0.6462  1.2563
 3659TIP3   OH232391   1.310   1.654  16.745  0.4694  0.1495 -0.5827
 3659TIP3    H132392   1.233   1.600  16.726  0.2849  0.6637 -1.3395
 3659TIP3    H232393   1.303   1.728  16.685  1.8961 -0.1332 -1.1411
 3660TIP3   OH232394   3.496   6.075   2.597 -0.3243 -0.0403  0.1269
 3660TIP3    H132395   3.506   6.168   2.576  0.5598  0.0484  0.8960
 3660TIP3    H232396   3.546   6.030   2.528 -0.9266  0.0297 -0.3685
 3661TIP3   OH232397   1.470   2.162  11.008 -0.4974 -0.0656 -0.1492
 3661TIP3    H132398   1.485   2.238  11.064  2.0473 -1.2307  0.9097
 3661TIP3    H232399   1.385   2.179  10.968 -0.2699  3.0927  0.3910
 3662TIP3   OH232400   6.269   2.067   4.261  0.2006  0.1830 -0.2367
 3662TIP3    H132401   6.297   1.979   4.287 -1.1379 -0.3175 -0.3837
 3662TIP3    H232402   6.226   2.102   4.339 -0.2793  0.2425 -0.5215
 3663TIP3   OH232403   2.124   5.446   5.979 -0.1953 -0.6465 -0.1985
 3663TIP3    H132404   2.152   5.455   6.070 -0.9903  0.8335 -0.0695
 3663TIP3    H232405   2.053   5.382   5.982 -1.2865  0.5568  0.4904
 3664TIP3   OH232406   0.069   6.609   4.174  0.1811 -0.3334 -0.1560
 3664TIP3    H132407   0.031   6.550   4.108  0.8009  0.3221 -1.1284
 3664TIP3    H232408   0.075   6.693   4.129  0.3272  0.2000  0.8549
 3665TIP3   OH232409   3.542   5.434  12.626 -0.0603  0.0163  1.2357
 3665TIP3    H132410   3.573   5.524  12.640  1.3975 -0.4116  0.9732
 3665TIP3    H232411   3.565   5.415  12.535 -3.6890  0.5867  0.0217
 3666TIP3   OH232412   6.496   3.063  14.921  0.6203  0.2236 -0.5304
 3666TIP3    H132413   6.541   2.985  14.954  0.3920  0.4873  0.4366
 3666TIP3    H232414   6.505   3.127  14.992 -1.1523  0.3200 -0.3544
 3667TIP3   OH232415   4.147   3.688   3.091 -0.3202 -0.1443 -0.5584
 3667TIP3    H132416   4.181   3.746   3.160 -1.4813 -0.2094  0.1062
 3667TIP3    H232417   4.185   3.722   3.010  1.6683 -0.5046  0.1665
 3668TIP3   OH232418   4.547   3.434  15.229  0.5637  0.5053  0.0891
 3668TIP3    H132419   4.537   3.422  15.135 -0.0481  1.4898  0.0170
 3668TIP3    H232420   4.461   3.413  15.265  0.8323 -0.0044  0.4536
 3669TIP3   OH232421   6.011   0.526  13.939 -0.4068 -0.1018 -0.0235
 3669TIP3    H132422   5.934   0.557  13.987 -0.2622  0.2928 -0.0492
 3669TIP3    H232423   5.975   0.488  13.858 -0.6257 -0.5110  0.2609
 3670TIP3   OH232424   0.653   6.668  11.979 -0.4790  0.0928 -0.3864
 3670TIP3    H132425   0.672   6.584  11.937  1.5890  0.3261 -0.0341
 3670TIP3    H232426   0.583   6.706  11.927 -0.7169 -1.3806 -1.1934
 3671TIP3   OH232427   0.210   1.805   2.842  0.0683 -0.0061 -0.5041
 3671TIP3    H132428   0.212   1.866   2.916 -1.3667  0.3420 -0.7369
 3671TIP3    H232429   0.124   1.816   2.803  0.3639 -1.0537 -1.5217
 3672TIP3   OH232430   4.962   2.664   4.432 -0.2474 -0.3850 -0.6062
 3672TIP3    H132431   4.967   2.568   4.432  3.3928 -0.3785  2.0209
 3672TIP3    H232432   5.015   2.691   4.356  0.6054 -0.5033 -0.0687
 3673TIP3   OH232433   0.744   4.292   2.734 -0.0151  0.0058 -0.1447
 3673TIP3    H132434   0.734   4.197   2.740 -0.2207 -0.0421 -1.0888
 3673TIP3    H232435   0.801   4.306   2.659 -0.1387  0.6323 -0.1328
 3674TIP3   OH232436   2.046   3.647  13.652  0.4088  0.0724 -0.2913
 3674TIP3    H132437   2.130   3.641  13.697 -0.7721  0.6048  2.2247
 3674TIP3    H232438   2.046   3.733  13.611  1.0793  0.0602 -0.3275
 3675TIP3   OH232439   1.834   5.969   2.784 -0.2846 -0.2251  0.0325
 3675TIP3    H132440   1.829   5.886   2.736 -1.0716 -0.3683  0.3575
 3675TIP3    H232441   1.874   5.946   2.868 -1.8900 -0.5759  0.7428
 3676TIP3   OH232442   6.240   4.335  17.166 -0.2843 -0.0270 -0.0852
 3676TIP3    H132443   6.206   4.405  17.110  0.2018  0.3550  0.0960
 3676TIP3    H232444   6.329   4.319  17.133  0.4678  1.0532  1.3565
 3677TIP3   OH232445   5.818   5.627   6.342  0.1454 -0.1611  0.4081
 3677TIP3    H132446   5.785   5.670   6.420 -0.0397 -1.2689  0.9508
 3677TIP3    H232447   5.880   5.562   6.374  1.4773  0.5931 -0.4828
 3678TIP3   OH232448   1.303   1.756  15.889  0.0734  0.5760 -0.2698
 3678TIP3    H132449   1.238   1.769  15.958  0.1013  0.0269 -0.1347
 3678TIP3    H232450   1.300   1.662  15.870  0.9847  0.4979 -0.0871
 3679TIP3   OH232451   4.914   3.118   6.509 -0.3842 -0.0004 -0.6164
 3679TIP3    H132452   4.912   3.170   6.429 -0.2153  0.6383 -0.2139
 3679TIP3    H232453   4.843   3.055   6.499  0.6652 -1.0145 -1.9771
 3680TIP3   OH232454   3.440   3.803  15.964  0.5290  0.0310 -0.6955
 3680TIP3    H132455   3.501   3.747  16.011 -1.6964 -1.0586  1.0983
 3680TIP3    H232456   3.494   3.875  15.931  2.6749 -0.6123  1.1751
 3681TIP3   OH232457   0.349   6.471   4.697  0.8145  0.0404  0.5349
 3681TIP3    H132458   0.299   6.397   4.732 -0.4244  0.3260 -0.5820
 3681TIP3    H232459   0.341   6.464   4.602  1.6690  0.9535  0.3746
 3682TIP3   OH232460   5.139   1.480  11.890 -0.0181  0.0744  0.2161
 3682TIP3    H132461   5.066   1.419  11.885  0.1666 -0.0626 -1.6938
 3682TIP3    H232462   5.099   1.566  11.900 -0.3205 -0.2155  1.6919
 3683TIP3   OH232463   4.933   0.603  17.612  0.0304  0.0601 -0.0593
 3683TIP3    H132464   4.996   0.670  17.640 -0.2242  0.0941  0.4459
 3683TIP3    H232465   4.973   0.564  17.535  1.2100 -0.6772  0.8771
 3684TIP3   OH232466   3.645   6.660   3.516  0.0476 -0.2506  0.1946
 3684TIP3    H132467   3.733   6.627   3.498 -0.0768 -1.0813  1.0249
 3684TIP3    H232468   3.603   6.664   3.430  0.8604  0.0598 -0.1970
 3685TIP3   OH232469   0.662   4.239   4.240 -0.0220 -0.1289  0.0720
 3685TIP3    H132470   0.721   4.180   4.288  1.8695  0.3920 -1.4939
 3685TIP3    H232471   0.587   4.250   4.298  1.4053 -0.8449  2.1686
 3686TIP3   OH232472   4.116   5.402   5.709  0.2030  0.3102  0.1474
 3686TIP3    H132473   4.111   5.329   5.648 -0.2316  0.4539  0.0080
 3686TIP3    H232474   4.161   5.366   5.786  0.8842  0.1741 -0.3099
 3687TIP3   OH232475   5.614   0.953   3.930  0.1479 -0.1736 -0.5421
 3687TIP3    H132476   5.663   0.992   3.859  1.5984 -0.7139  0.1165
 3687TIP3    H232477   5.537   0.914   3.888 -1.3035  3.1425 -1.2412
 3688TIP3   OH232478   1.986   2.458  13.069  0.5241 -0.7540 -0.5538
 3688TIP3    H132479   2.000   2.448  12.974  0.1181  0.8080 -0.8090
 3688TIP3    H232480   2.075   2.462  13.105  0.7147 -0.0892 -1.0512
 3689TIP3   OH232481   5.370   2.797  16.467 -0.2972 -0.4622  0.3809
 3689TIP3    H132482   5.290   2.744  16.473 -1.2534  0.9183  0.2441
 3689TIP3    H232483   5.348   2.879  16.511  1.4841 -0.5095  1.4686
 3690TIP3   OH232484   0.877   5.663   0.324 -0.4825 -0.4358 -0.1513
 3690TIP3    H132485   0.886   5.683   0.418 -0.2501  0.1980 -0.2981
 3690TIP3    H232486   0.860   5.748   0.284  0.4480 -0.5408 -0.8044
 3691TIP3   OH232487   1.226   2.123  12.010  0.0761 -0.0989 -0.2929
 3691TIP3    H132488   1.315   2.118  11.976  0.3695  0.3814  0.3788
 3691TIP3    H232489   1.231   2.189  12.079 -0.0365 -2.3270  2.0179
 3692TIP3   OH232490   3.636   6.486   2.596 -1.1220 -0.1509 -0.2679
 3692TIP3    H132491   3.660   6.576   2.577 -0.1165 -0.4099 -0.2840
 3692TIP3    H232492   3.690   6.462   2.671 -1.3786 -0.7386 -0.2618
 3693TIP3   OH232493   0.708   0.964   0.300 -0.2094  0.1036 -0.2263
 3693TIP3    H132494   0.652   1.023   0.350  0.9287  1.3767 -0.4079
 3693TIP3    H232495   0.709   0.883   0.351 -2.6732 -0.2021 -0.5244
 3694TIP3   OH232496   4.579   1.467   2.906 -0.8034  0.0936  0.4214
 3694TIP3    H132497   4.538   1.385   2.935 -0.1424  0.9532  4.2246
 3694TIP3    H232498   4.506   1.521   2.877 -1.5967 -0.7103  0.8575
 3695TIP3   OH232499   5.186   5.531   4.471 -0.1276 -0.4568  0.6375
 3695TIP3    H132500   5.109   5.491   4.431  0.6628 -1.3152 -0.0737
 3695TIP3    H232501   5.213   5.468   4.538  0.7659 -0.8502 -0.0736
 3696TIP3   OH232502   5.489   3.702  15.132  0.5693 -0.4353 -0.0549
 3696TIP3    H132503   5.529   3.787  15.151  1.5389 -0.7747 -0.5149
 3696TIP3    H232504   5.556   3.654  15.083  0.2490 -1.6712  0.6736
 3697TIP3   OH232505   4.014   4.909  14.773 -0.0918  0.3611  0.3191
 3697TIP3    H132506   4.043   4.917  14.864  1.3028 -0.5105 -0.0228
 3697TIP3    H232507   4.067   4.972  14.725 -0.8423  0.8384  0.0999
 3698TIP3   OH232508   1.277   3.765  17.359  0.1485  0.1297  0.2426
 3698TIP3    H132509   1.352   3.746  17.416 -1.5425 -2.0068  1.9061
 3698TIP3    H232510   1.202   3.767  17.417 -1.3786  0.2455 -1.6228
 3699TIP3   OH232511   5.485   6.533   4.976  0.2628  0.2799 -0.0984
 3699TIP3    H132512   5.520   6.495   4.896 -0.7696  1.7808 -1.3268
 3699TIP3    H232513   5.537   6.493   5.046  3.4870  1.2994 -1.6752
 3700TIP3   OH232514   0.136   0.421   1.222  0.1097 -0.4815 -0.0338
 3700TIP3    H132515   0.147   0.358   1.151  0.5826 -0.1465 -0.2694
 3700TIP3    H232516   0.125   0.368   1.301 -0.7213 -0.8583 -0.3980
 3701TIP3   OH232517   3.929   4.704  13.917 -0.2897 -0.3735 -0.5957
 3701TIP3    H132518   3.960   4.651  13.990  0.3265  1.0203  0.2109
 3701TIP3    H232519   3.997   4.696  13.850  0.5647  0.5671  0.1257
 3702TIP3   OH232520   3.299   1.115   6.978  0.4609  1.0414  0.2538
 3702TIP3    H132521   3.212   1.105   7.017 -1.0556  3.7563 -1.9441
 3702TIP3    H232522   3.329   1.026   6.962 -2.0006 -0.0053  0.9682
 3703TIP3   OH232523   5.621   5.384   1.646 -0.1142  0.4877  0.7201
 3703TIP3    H132524   5.542   5.433   1.621 -0.6096 -1.6847 -2.5573
 3703TIP3    H232525   5.588   5.312   1.700 -0.4510 -0.3080 -0.4881
 3704TIP3   OH232526   6.367   0.489   5.815 -0.2282  0.0135 -0.0723
 3704TIP3    H132527   6.453   0.486   5.773 -0.2912 -1.5347 -0.1346
 3704TIP3    H232528   6.358   0.405   5.858 -1.3496  0.5008  0.6974
 3705TIP3   OH232529   0.219   5.704  17.186 -0.2412 -0.1982  0.2371
 3705TIP3    H132530   0.245   5.773  17.125  0.2572  0.8049  1.5303
 3705TIP3    H232531   0.131   5.680  17.159  0.4159 -0.6676 -1.6280
 3706TIP3   OH232532   4.609   5.364  16.261  0.1812  0.0071 -0.5233
 3706TIP3    H132533   4.685   5.377  16.317 -1.2222  3.6669  0.8441
 3706TIP3    H232534   4.636   5.399  16.176  0.1494  1.0173 -0.1270
 3707TIP3   OH232535   0.630   3.847   4.640 -0.0766  0.5382 -0.1359
 3707TIP3    H132536   0.568   3.814   4.576 -0.0647  1.3831 -0.6073
 3707TIP3    H232537   0.704   3.786   4.636 -0.3267  0.2582 -0.5134
 3708TIP3   OH232538   0.570   5.939  11.944 -0.1351  0.0486  0.0131
 3708TIP3    H132539   0.618   5.962  11.864 -2.2111  0.3600 -1.2188
 3708TIP3    H232540   0.570   5.843  11.945  1.0372  0.0288  0.4138
 3709TIP3   OH232541   4.113   6.197   1.377 -0.0626  0.3467  0.0414
 3709TIP3    H132542   4.180   6.210   1.444  0.5482 -2.3575  0.0691
 3709TIP3    H232543   4.100   6.284   1.339  3.8205  0.9545 -0.3240
 3710TIP3   OH232544   5.196   4.404   0.144 -0.1125 -0.2793  0.3140
 3710TIP3    H132545   5.271   4.356   0.109  0.9464  0.0287  2.0424
 3710TIP3    H232546   5.195   4.486   0.094  1.2414  0.0734  0.8014
 3711TIP3   OH232547   3.471   3.672   1.856 -0.4150 -0.3672 -0.2966
 3711TIP3    H132548   3.554   3.682   1.902 -0.9588  4.4232  0.1492
 3711TIP3    H232549   3.491   3.690   1.764 -0.7562 -0.3078 -0.3630
 3712TIP3   OH232550   3.244   5.657  10.841  0.4189  0.3770 -0.0794
 3712TIP3    H132551   3.328   5.688  10.876  1.2682 -1.0774 -0.7147
 3712TIP3    H232552   3.261   5.566  10.815 -1.6460 -0.2739  0.6731
 3713TIP3   OH232553   6.587   2.366   0.742 -0.2245  0.6418  0.0306
 3713TIP3    H132554   6.534   2.300   0.697 -0.0186 -0.2740  1.0661
 3713TIP3    H232555   6.627   2.417   0.672 -1.3432  0.4347 -0.7847
 3714TIP3   OH232556   6.166   3.134  13.011 -0.3449  0.1129 -0.5056
 3714TIP3    H132557   6.249   3.091  13.029 -1.0547 -1.9343 -1.6599
 3714TIP3    H232558   6.169   3.155  12.918 -1.8082 -1.8701 -1.0907
 3715TIP3   OH232559   1.903   1.553   7.436 -0.1844 -0.2066  0.3712
 3715TIP3    H132560   1.953   1.530   7.358 -1.8526  0.3018 -0.9215
 3715TIP3    H232561   1.828   1.494   7.435 -0.3234 -0.0720  1.4991
 3716TIP3   OH232562   0.133   2.733  11.684  0.3208  0.0298 -0.0341
 3716TIP3    H132563   0.078   2.665  11.645 -0.3753  0.3395  0.3994
 3716TIP3    H232564   0.208   2.740  11.625 -0.3907  0.0204 -0.9565
 3717TIP3   OH232565   3.929   0.042   5.625  0.4653 -0.1040  0.5374
 3717TIP3    H132566   3.875   0.085   5.558  0.1897 -0.1140  0.7473
 3717TIP3    H232567   3.865   0.001   5.684  0.6665  0.7514  1.3721
 3718TIP3   OH232568   2.040   1.447  17.412  0.1340  0.2539 -0.4853
 3718TIP3    H132569   2.055   1.369  17.465 -2.1792 -1.0912 -1.6277
 3718TIP3    H232570   2.077   1.425  17.326  2.0968  1.6457 -0.0823
 3719TIP3   OH232571   5.505   2.774   3.567 -0.9123 -0.1878 -0.2311
 3719TIP3    H132572   5.458   2.857   3.556  0.1958  0.8069  1.9640
 3719TIP3    H232573   5.456   2.728   3.636  0.1317 -0.0360  0.6298
 3720TIP3   OH232574   2.256   3.739  14.644 -0.1322 -0.1765  0.0160
 3720TIP3    H132575   2.261   3.658  14.593 -1.0365 -1.5305  1.9511
 3720TIP3    H232576   2.174   3.779  14.616 -0.0365 -0.2882 -0.4361
 3721TIP3   OH232577   3.636   5.907  12.517 -0.7857 -0.0678 -0.6615
 3721TIP3    H132578   3.615   5.975  12.582 -0.9762 -1.0858  0.3703
 3721TIP3    H232579   3.555   5.895  12.468 -0.8530  0.2086 -0.6203
 3722TIP3   OH232580   6.559   2.663  12.449 -0.5087  0.0225  0.3306
 3722TIP3    H132581   6.643   2.627  12.479 -0.7495 -1.4278 -0.6377
 3722TIP3    H232582   6.560   2.754  12.479  0.8514 -0.3205  1.4460
 3723TIP3   OH232583   2.562   3.431  15.626  1.2380 -0.4240  0.6230
 3723TIP3    H132584   2.624   3.483  15.573 -0.8673  1.1255 -0.4733
 3723TIP3    H232585   2.524   3.495  15.686 -1.2307 -0.6976 -0.5612
 3724TIP3   OH232586   1.374   4.608   1.349  0.0639 -0.1300 -0.2129
 3724TIP3    H132587   1.469   4.608   1.352  0.1048  1.0860 -0.7921
 3724TIP3    H232588   1.348   4.523   1.384  1.2842  0.2629  1.7875
 3725TIP3   OH232589   5.790   5.045  14.701 -0.4979  0.4835 -0.4101
 3725TIP3    H132590   5.757   5.084  14.782  0.3234  0.1618  0.0937
 3725TIP3    H232591   5.861   4.987  14.730  0.6884  1.3514 -1.4565
 3726TIP3   OH232592   2.050   3.046   6.039 -0.5763 -0.5397  0.3811
 3726TIP3    H132593   2.006   3.061   5.955 -2.1755 -0.3906  1.2243
 3726TIP3    H232594   1.986   3.072   6.105  1.1428  0.6416  1.6500
 3727TIP3   OH232595   3.401   2.145   1.944  0.4205  0.1423  0.3460
 3727TIP3    H132596   3.358   2.162   2.028  0.0788  2.3999 -0.2121
 3727TIP3    H232597   3.486   2.189   1.951  1.9439 -2.5779  0.6955
 3728TIP3   OH232598   0.736   0.023  12.249  0.3716 -0.0898  0.1719
 3728TIP3    H132599   0.811  -0.030  12.276 -1.6523 -3.1386  0.3754
 3728TIP3    H232600   0.734   0.015  12.154  0.5789  0.4762  0.1115
 3729TIP3   OH232601   0.772   2.990  13.029 -0.2873 -0.5144  0.0252
 3729TIP3    H132602   0.800   3.079  13.007  2.5057 -1.3638 -0.2540
 3729TIP3    H232603   0.677   2.992  13.020 -0.7476  3.2311  3.0777
 3730TIP3   OH232604   1.792   1.742   2.199  0.2561  0.2227  0.0247
 3730TIP3    H132605   1.703   1.729   2.166 -0.1618 -1.6739  1.7043
 3730TIP3    H232606   1.843   1.763   2.121 -1.5917  1.0577 -1.0288
 3731TIP3   OH232607   0.847   5.399  16.033 -0.4167 -0.0673  0.3110
 3731TIP3    H132608   0.830   5.310  16.002 -2.3403 -0.0099  1.0545
 3731TIP3    H232609   0.899   5.440  15.963 -0.0168 -1.5755 -0.3023
 3732TIP3   OH232610   2.265   3.607   4.881  0.5067 -0.1010  0.2367
 3732TIP3    H132611   2.320   3.574   4.810 -0.1097  1.4196 -1.0138
 3732TIP3    H232612   2.289   3.700   4.888  0.1930 -0.1007  1.6895
 3733TIP3   OH232613   3.461   5.600   6.366 -0.6070  0.6225  0.5893
 3733TIP3    H132614   3.507   5.520   6.341 -0.0013  1.6995 -2.0428
 3733TIP3    H232615   3.378   5.569   6.402 -1.0590 -1.2164 -1.7750
 3734TIP3   OH232616   3.812   1.949   6.793  0.1067  0.2619  0.3787
 3734TIP3    H132617   3.725   1.972   6.760  0.4583  0.5304 -0.3934
 3734TIP3    H232618   3.853   1.901   6.721  0.5226 -0.0514  0.8150
 3735TIP3   OH232619   5.721   2.445  10.606 -0.2683 -0.7173 -0.6311
 3735TIP3    H132620   5.784   2.482  10.668  3.0956 -1.2471 -3.4474
 3735TIP3    H232621   5.699   2.359  10.642  0.5619 -0.4861  0.4639
 3736TIP3   OH232622   1.428   0.577  12.910 -0.2738 -0.1381 -0.1111
 3736TIP3    H132623   1.402   0.607  12.997  1.3900  0.6532  0.1592
 3736TIP3    H232624   1.421   0.482  12.915  0.8359 -0.1928  1.2934
 3737TIP3   OH232625   0.861   6.090   5.401 -0.2267 -0.5253  0.0660
 3737TIP3    H132626   0.909   6.031   5.459 -1.8731 -1.4853  0.5130
 3737TIP3    H232627   0.810   6.146   5.459 -1.6038 -1.2426 -0.3935
 3738TIP3   OH232628   0.630   3.704  12.186  0.1745 -0.5418  0.0864
 3738TIP3    H132629   0.593   3.617  12.174 -1.4057  0.4695 -3.6040
 3738TIP3    H232630   0.718   3.699  12.148  0.5581 -0.7490  0.9578
 3739TIP3   OH232631   4.945   2.738   3.084  0.1337 -0.2341  0.3919
 3739TIP3    H132632   4.892   2.775   3.013 -0.1499 -2.0869 -0.4341
 3739TIP3    H232633   4.891   2.746   3.162 -1.1134 -1.4516 -0.3102
 3740TIP3   OH232634   3.781   0.959  12.124 -0.3385  0.8948 -0.5909
 3740TIP3    H132635   3.759   1.042  12.165  1.2754  1.4464 -0.7583
 3740TIP3    H232636   3.749   0.967  12.034 -0.8125  1.0561 -0.4075
 3741TIP3   OH232637   1.066   3.476  11.581  0.1812 -0.5387  0.2893
 3741TIP3    H132638   1.150   3.432  11.593  0.3472  0.0856  1.6074
 3741TIP3    H232639   1.001   3.409  11.604  0.2491 -1.2721 -1.5036
 3742TIP3   OH232640   2.122   3.585   0.974 -0.2941  0.0826 -0.3257
 3742TIP3    H132641   2.174   3.594   0.894  1.0863 -0.7749  0.4367
 3742TIP3    H232642   2.120   3.491   0.991 -0.8522  0.2293  0.4755
 3743TIP3   OH232643   3.980   1.137  12.806 -0.0009 -0.0120  0.1326
 3743TIP3    H132644   4.048   1.134  12.740 -0.5460 -1.3701 -0.4099
 3743TIP3    H232645   3.936   1.221  12.793  0.4050  0.0701 -0.7085
 3744TIP3   OH232646   5.427   3.298  13.834  0.4598  0.2824 -0.2218
 3744TIP3    H132647   5.415   3.216  13.786 -0.7927 -0.1930  0.8568
 3744TIP3    H232648   5.447   3.271  13.924 -0.4293  1.1453  0.2512
 3745TIP3   OH232649   4.810   0.216  12.431 -0.0447 -0.2329 -0.5169
 3745TIP3    H132650   4.896   0.221  12.389  0.8747  1.5355  1.3904
 3745TIP3    H232651   4.811   0.132  12.477  2.1530  1.1354  2.2539
 3746TIP3   OH232652   1.545   2.096  15.451  0.3991  0.2991 -0.1338
 3746TIP3    H132653   1.641   2.091  15.462  0.3569  0.1820  0.2101
 3746TIP3    H232654   1.530   2.182  15.414  0.8323 -0.5400 -2.4081
 3747TIP3   OH232655   0.158   4.182  17.432 -0.2097  0.0953 -0.1893
 3747TIP3    H132656   0.102   4.160  17.507  1.0616 -0.9765  0.4781
 3747TIP3    H232657   0.209   4.258  17.461 -0.7100  0.5582 -0.4987
 3748TIP3   OH232658   2.761   6.333   3.018 -0.0468 -0.1632  0.4770
 3748TIP3    H132659   2.853   6.307   3.025  0.4909  1.5255  0.0739
 3748TIP3    H232660   2.740   6.369   3.104  1.4786  4.7493 -0.8633
 3749TIP3   OH232661   5.776   1.893  14.866  0.0345  0.1962 -0.3625
 3749TIP3    H132662   5.719   1.961  14.829 -1.2165 -0.8350 -0.3845
 3749TIP3    H232663   5.752   1.814  14.818  0.4110 -0.5811  0.7172
 3750TIP3   OH232664   6.038   3.543  17.101  0.5733 -0.0618 -0.1104
 3750TIP3    H132665   6.021   3.465  17.049 -0.2698  1.4323 -2.2256
 3750TIP3    H232666   6.133   3.554  17.098  0.6711 -0.8220 -0.0390
 3751TIP3   OH232667   4.034   0.834   5.254 -0.3317 -0.3312  0.4082
 3751TIP3    H132668   4.043   0.750   5.210 -0.1792  0.1475 -0.5020
 3751TIP3    H232669   3.941   0.857   5.245 -0.3272 -0.2936  0.4532
 3752TIP3   OH232670   4.161   1.977   4.636  0.0866  0.4062 -0.1790
 3752TIP3    H132671   4.185   1.963   4.545 -0.1185 -1.3199 -0.0034
 3752TIP3    H232672   4.231   1.935   4.686 -0.5741  0.0064  0.4260
 3753TIP3   OH232673   5.425   1.313  13.294  0.5162  1.1483  0.5265
 3753TIP3    H132674   5.443   1.313  13.388  1.1921 -1.9937  0.5019
 3753TIP3    H232675   5.493   1.368  13.257  2.1478 -0.0116  1.6595
 3754TIP3   OH232676   4.077   5.316  16.292  0.4273 -0.0869 -0.4764
 3754TIP3    H132677   4.098   5.366  16.213  1.5535 -1.0940 -0.8484
 3754TIP3    H232678   4.159   5.272  16.315  0.0318 -0.0426  1.0948
 3755TIP3   OH232679   4.496   3.926   6.309  0.0560 -0.3769 -0.0450
 3755TIP3    H132680   4.435   3.880   6.252 -0.1397 -0.2155  0.0333
 3755TIP3    H232681   4.441   3.962   6.379  0.3824 -1.2079  0.6532
 3756TIP3   OH232682   0.626   6.385   1.028 -0.7545  0.3980 -0.4801
 3756TIP3    H132683   0.576   6.443   0.970  0.7477 -1.9451 -4.5514
 3756TIP3    H232684   0.594   6.297   1.007 -0.2052 -0.6494  2.5529
 3757TIP3   OH232685   5.756   5.549  13.579 -0.2239  0.7188 -0.2527
 3757TIP3    H132686   5.714   5.609  13.517  1.4555 -0.5260 -2.7712
 3757TIP3    H232687   5.770   5.469  13.529  3.5734  0.4784  0.8849
 3758TIP3   OH232688   6.662   2.566   0.891 -0.2107 -0.0616  0.4848
 3758TIP3    H132689   6.632   2.487   0.846 -1.7438 -0.6707  2.3877
 3758TIP3    H232690   6.584   2.622   0.897  0.0413  0.1946  1.8767
 3759TIP3   OH232691   1.451   3.333  17.486 -0.6405  0.0601  0.2356
 3759TIP3    H132692   1.521   3.356  17.425  0.8279  0.7782  2.0773
 3759TIP3    H232693   1.371   3.336  17.434  0.7269 -1.4221 -2.1141
 3760TIP3   OH232694   5.151   5.958  12.159  0.0215 -0.4609  0.4643
 3760TIP3    H132695   5.209   5.886  12.184  0.2579 -0.7327 -0.7994
 3760TIP3    H232696   5.092   5.969  12.234 -0.7012 -2.6723  0.2878
 3761TIP3   OH232697   6.400   5.815   5.027  0.1745 -0.1720 -0.1491
 3761TIP3    H132698   6.359   5.829   5.112  0.7359  2.7188 -0.2530
 3761TIP3    H232699   6.331   5.774   4.974 -1.2362  0.8061  0.8467
 3762TIP3   OH232700   3.172   6.396  14.037 -0.2012  0.3516 -0.1462
 3762TIP3    H132701   3.144   6.485  14.014 -1.9472 -0.3254 -0.7911
 3762TIP3    H232702   3.251   6.382  13.985 -0.6108  1.0976 -1.0034
 3763TIP3   OH232703   1.607   5.695   5.164 -0.2852  0.6256  0.2243
 3763TIP3    H132704   1.533   5.684   5.104  0.6973 -2.4226 -0.6043
 3763TIP3    H232705   1.576   5.657   5.247 -0.1490  0.6757  0.2973
 3764TIP3   OH232706   6.339   1.166   1.239 -0.0491 -0.1756 -0.6984
 3764TIP3    H132707   6.317   1.076   1.264 -0.4200  0.2030  0.4002
 3764TIP3    H232708   6.273   1.191   1.176 -1.6397  0.2418  1.0402
 3765TIP3   OH232709   6.425   0.665   2.122  0.8094 -0.0002  0.5667
 3765TIP3    H132710   6.422   0.692   2.214  0.8812  1.6104  0.1345
 3765TIP3    H232711   6.375   0.733   2.076 -1.0641 -1.9184 -0.3584
 3766TIP3   OH232712   5.924   6.146   3.488 -0.3537  0.1877 -0.2015
 3766TIP3    H132713   5.857   6.199   3.532 -0.7849  1.0335 -1.8228
 3766TIP3    H232714   6.006   6.189   3.511 -0.5403  0.4033  0.0754
 3767TIP3   OH232715   1.916   0.876   0.617 -0.0465 -0.2522  0.5065
 3767TIP3    H132716   1.911   0.864   0.522  0.1672  0.5796  0.3799
 3767TIP3    H232717   1.901   0.969   0.630  3.3560  0.3740  0.9829
 3768TIP3   OH232718   5.960   1.227   1.014 -0.3000  0.0685  0.2877
 3768TIP3    H132719   5.943   1.140   1.050  1.0286  1.0360  3.6604
 3768TIP3    H232720   6.055   1.234   1.012 -0.1295 -0.1759 -4.7262
 3769TIP3   OH232721   6.316   4.150  16.414  0.7617  0.2731 -0.5544
 3769TIP3    H132722   6.326   4.217  16.346  0.8713 -0.3157 -1.1322
 3769TIP3    H232723   6.347   4.069  16.373  0.9944 -0.0621  0.2604
 3770TIP3   OH232724   2.531   0.862  11.930  0.5236  0.2244 -0.5820
 3770TIP3    H132725   2.548   0.957  11.930  0.2708  0.2688 -0.9742
 3770TIP3    H232726   2.546   0.835  11.839 -2.5415  0.4452 -1.2425
 3771TIP3   OH232727   5.671   5.023  14.952  0.9709  0.4978 -0.8396
 3771TIP3    H132728   5.613   5.090  14.989 -0.2737  1.0163 -3.4593
 3771TIP3    H232729   5.648   4.943  14.997  0.7973  1.3788  0.6972
 3772TIP3   OH232730   5.014   4.554  12.317 -0.2645  0.2496  0.1541
 3772TIP3    H132731   5.067   4.527  12.243 -0.4246  0.1624  0.0703
 3772TIP3    H232732   4.974   4.637  12.289 -2.5634 -1.1340 -0.9996
 3773TIP3   OH232733   6.189   6.451  12.873  0.4232 -0.3162 -0.3443
 3773TIP3    H132734   6.168   6.365  12.909 -0.7030 -0.3957 -1.1327
 3773TIP3    H232735   6.279   6.468  12.900  0.1096 -1.0185  1.2163
 3774TIP3   OH232736   2.931   3.467  11.520  0.4338  0.4236  0.0312
 3774TIP3    H132737   2.901   3.415  11.445  0.2839 -1.8307  1.5517
 3774TIP3    H232738   2.999   3.524  11.484  1.6952 -1.8874 -1.5329
 3775TIP3   OH232739   6.286   5.251  11.609 -0.0041 -0.4141 -0.6745
 3775TIP3    H132740   6.333   5.209  11.681 -1.0276 -1.0881 -0.3932
 3775TIP3    H232741   6.272   5.341  11.639 -0.6516 -0.7597  0.0901
 3776TIP3   OH232742   2.597   4.027   3.970  0.3750  0.1912 -0.1938
 3776TIP3    H132743   2.535   4.044   4.040 -0.0559 -2.2279  0.1016
 3776TIP3    H232744   2.635   4.113   3.950 -0.1702  1.1060  2.3274
 3777TIP3   OH232745   1.699   0.249  16.971  0.2994 -0.1405 -0.2121
 3777TIP3    H132746   1.645   0.235  17.049 -0.2591  0.4620 -0.4793
 3777TIP3    H232747   1.789   0.239  17.002  0.2722  2.7867  1.1832
 3778TIP3   OH232748   1.500   4.175  13.138  0.2381 -0.3362  0.3794
 3778TIP3    H132749   1.433   4.182  13.206 -0.0844 -1.1304  0.1456
 3778TIP3    H232750   1.451   4.177  13.056  0.4287 -1.6224  0.2204
 3779TIP3   OH232751   1.704   5.229  16.181 -0.3884 -0.3206  0.4657
 3779TIP3    H132752   1.647   5.247  16.256  0.2676  2.6071  0.3747
 3779TIP3    H232753   1.646   5.195  16.113 -1.2020 -1.7897  1.8271
 3780TIP3   OH232754   2.636   0.114  14.776  0.2810 -0.0427 -0.5285
 3780TIP3    H132755   2.599   0.026  14.788  1.2635 -0.3908  0.1847
 3780TIP3    H232756   2.721   0.098  14.735  0.9264  0.4668  0.5591
 3781TIP3   OH232757   5.978   0.404  12.403 -0.5905  0.0816  0.1203
 3781TIP3    H132758   6.011   0.333  12.348  0.0355 -0.5936  1.3141
 3781TIP3    H232759   6.056   0.452  12.430 -0.6389 -0.7580  1.9394
 3782TIP3   OH232760   2.110   4.231  16.310 -0.1612  0.1165 -0.0196
 3782TIP3    H132761   2.021   4.219  16.345  0.1493 -0.0401  0.7287
 3782TIP3    H232762   2.100   4.301  16.245 -0.9859 -0.4928 -0.5655
 3783TIP3   OH232763   4.166   4.161   2.294 -0.2996 -0.1297  0.1191
 3783TIP3    H132764   4.095   4.161   2.358 -0.0924  1.1373  0.3715
 3783TIP3    H232765   4.177   4.253   2.269 -0.5931 -0.6078 -1.9883
 3784TIP3   OH232766   2.596   4.146  17.407 -0.6007  0.4131  0.6839
 3784TIP3    H132767   2.578   4.149  17.501 -0.4365 -0.1796  0.7388
 3784TIP3    H232768   2.625   4.056  17.391 -1.1142  0.3705 -0.0274
 3785TIP3   OH232769   2.042   1.300  16.141  0.6147 -0.0008 -0.1585
 3785TIP3    H132770   2.066   1.272  16.230  0.8945  0.0834 -0.2049
 3785TIP3    H232771   2.119   1.349  16.110  0.7380 -0.4909 -0.6492
 3786TIP3   OH232772   1.612   0.843   2.554  0.4642 -0.5562  0.1295
 3786TIP3    H132773   1.694   0.892   2.553  1.0729 -1.5306  0.5438
 3786TIP3    H232774   1.639   0.752   2.543 -0.3407 -1.1891  2.6794
 3787TIP3   OH232775   6.121   1.368   4.282  0.2250 -0.4556 -0.1194
 3787TIP3    H132776   6.177   1.299   4.317  1.9932  0.6788 -0.5954
 3787TIP3    H232777   6.080   1.407   4.359  0.6619 -0.8444  0.3138
 3788TIP3   OH232778   3.675   5.479   1.193 -0.3714 -0.5935 -0.6848
 3788TIP3    H132779   3.766   5.475   1.165  0.1771 -0.5021  0.9526
 3788TIP3    H232780   3.637   5.397   1.163  0.9513 -1.8187  0.7760
 3789TIP3   OH232781   5.902   6.354   2.276  0.2637 -0.5701 -0.6649
 3789TIP3    H132782   5.869   6.437   2.310  1.7142  1.7817 -4.3442
 3789TIP3    H232783   5.823   6.305   2.252 -0.6410  0.5203 -0.0105
 3790TIP3   OH232784   5.662   5.886  14.968  0.3514  0.1785  0.5578
 3790TIP3    H132785   5.626   5.970  14.941 -1.6211 -0.5437  0.8279
 3790TIP3    H232786   5.634   5.824  14.900  1.6286 -0.3230  0.4478
 3791TIP3   OH232787   2.930   1.433   5.330  0.3851  0.3118 -0.4962
 3791TIP3    H132788   2.911   1.441   5.237 -0.8853 -0.3033 -0.3209
 3791TIP3    H232789   2.965   1.344   5.340 -1.7984 -0.5660 -0.0857
 3792TIP3   OH232790   6.676   4.972   0.149 -0.1492 -0.2928 -0.5332
 3792TIP3    H132791   6.608   4.911   0.120 -0.8188  0.5011 -0.6675
 3792TIP3    H232792   6.735   4.980   0.074  0.5498 -1.5911 -0.1458
 3793TIP3   OH232793   6.435   1.315   1.937  0.0205 -0.3252 -0.2526
 3793TIP3    H132794   6.519   1.351   1.909  0.2841  0.8313  1.8395
 3793TIP3    H232795   6.457   1.247   2.000 -0.5829  0.9310  1.3686
 3794TIP3   OH232796   5.641   2.953  10.775 -0.7990 -0.5566  0.3829
 3794TIP3    H132797   5.725   2.914  10.750 -0.6767 -0.4853  0.6762
 3794TIP3    H232798   5.647   3.044  10.748 -0.8487 -0.5915  0.2525
 3795TIP3   OH232799   4.224   4.538  12.672  0.0664 -0.1738 -0.7460
 3795TIP3    H132800   4.239   4.495  12.588  0.4280 -0.0633 -0.7407
 3795TIP3    H232801   4.304   4.522  12.722  0.0068  0.0856 -0.5635
 3796TIP3   OH232802   6.064   2.310   4.779  0.2040 -0.4776 -0.2161
 3796TIP3    H132803   6.069   2.368   4.856 -0.9304  2.4188 -2.1758
 3796TIP3    H232804   5.972   2.284   4.774  0.4285 -1.3274 -0.2151
 3797TIP3   OH232805   3.393   3.353  15.406  0.1957  0.0191  0.2285
 3797TIP3    H132806   3.398   3.303  15.488 -0.4655  0.7362  0.7190
 3797TIP3    H232807   3.398   3.444  15.434  0.0771  0.2672 -0.5466
 3798TIP3   OH232808   6.666   6.430   5.262 -0.3546 -0.0958 -0.3284
 3798TIP3    H132809   6.621   6.391   5.188 -0.7376 -0.5081  0.1179
 3798TIP3    H232810   6.749   6.462   5.226 -0.5143 -0.3416 -0.9172
 3799TIP3   OH232811   1.237   4.879  11.571 -0.2006  0.0165  0.1803
 3799TIP3    H132812   1.235   4.790  11.537 -0.6207  0.1020 -0.0207
 3799TIP3    H232813   1.261   4.869  11.663 -0.6930 -0.3388  0.2756
 3800TIP3   OH232814   2.878   5.130   3.432  0.3782  0.5173  0.3000
 3800TIP3    H132815   2.942   5.196   3.457  2.9228 -1.7246  0.1310
 3800TIP3    H232816   2.886   5.062   3.498 -2.0243  0.1968  0.3519
 3801TIP3   OH232817   3.875   0.801   5.882  0.7884  0.5434 -0.6607
 3801TIP3    H132818   3.902   0.879   5.931 -0.2995  2.2076 -2.5113
 3801TIP3    H232819   3.795   0.772   5.926  1.3655  0.2653  0.2282
 3802TIP3   OH232820   0.979   3.642  13.420 -0.2241  0.2944  0.0642
 3802TIP3    H132821   0.971   3.659  13.514 -0.7842 -0.0878  0.0929
 3802TIP3    H232822   0.956   3.725  13.378  0.9358  0.7465  0.2712
 3803TIP3   OH232823   5.755   3.868   6.265 -0.1781 -0.1550  0.5722
 3803TIP3    H132824   5.709   3.840   6.186 -2.2407 -0.4616  1.7991
 3803TIP3    H232825   5.766   3.962   6.255 -2.2543  0.1491  0.7524
 3804TIP3   OH232826   5.836   5.696  11.609 -0.3813 -0.4420 -0.1759
 3804TIP3    H132827   5.847   5.726  11.519 -0.8041  0.3134  0.0132
 3804TIP3    H232828   5.923   5.666  11.635 -0.3900 -1.2623 -1.0348
 3805TIP3   OH232829   1.764   4.397  15.184  0.4883 -0.2713 -0.5313
 3805TIP3    H132830   1.740   4.354  15.266  0.8297  0.1265 -0.2229
 3805TIP3    H232831   1.692   4.376  15.124 -0.1575  0.1099  0.0964
 3806TIP3   OH232832   5.131   0.913  14.713  0.3339 -0.4582 -0.5681
 3806TIP3    H132833   5.067   0.973  14.754  1.0778  0.9852 -1.4267
 3806TIP3    H232834   5.204   0.970  14.689  2.8042 -2.2974  1.9445
 3807TIP3   OH232835   4.485   6.146  16.283  0.3483 -0.6514  0.0540
 3807TIP3    H132836   4.421   6.086  16.243  0.6232 -0.7030 -0.3144
 3807TIP3    H232837   4.552   6.088  16.318  0.3538 -0.5802  0.1608
 3808TIP3   OH232838   6.159   2.454   4.542 -0.3435  0.2469  0.6531
 3808TIP3    H132839   6.122   2.415   4.621 -1.5893  0.0470 -0.0042
 3808TIP3    H232840   6.116   2.539   4.534  1.5249  1.3417  1.4584
 3809TIP3   OH232841   3.610   4.740   5.620 -0.5998  0.0516 -0.5350
 3809TIP3    H132842   3.615   4.835   5.608  0.0425 -0.1067 -1.5798
 3809TIP3    H232843   3.649   4.703   5.541  1.2288 -1.0652  0.8048
 3810TIP3   OH232844   0.543   5.667  11.865  0.2254  0.5849  0.0012
 3810TIP3    H132845   0.492   5.586  11.865 -1.6914  1.7089 -1.0603
 3810TIP3    H232846   0.574   5.676  11.775 -0.4308  1.4973 -0.1496
 3811TIP3   OH232847   5.408   6.377   1.999 -0.0966  0.3386  0.2128
 3811TIP3    H132848   5.451   6.461   1.987 -0.4422  0.1523 -3.5032
 3811TIP3    H232849   5.480   6.314   2.008  0.2578  0.6783 -0.2418
 3812TIP3   OH232850   0.897   0.197  11.817  0.7207  0.0055  0.1968
 3812TIP3    H132851   0.925   0.278  11.773  0.5848 -0.0687 -0.0285
 3812TIP3    H232852   0.865   0.141  11.746  0.2370 -0.0066  0.4206
 3813TIP3   OH232853   4.771   0.508  13.873 -0.7557 -0.1860 -0.5561
 3813TIP3    H132854   4.767   0.535  13.965 -0.6336  0.4985 -0.7441
 3813TIP3    H232855   4.863   0.486  13.858 -1.1649 -2.5927  0.1011
 3814TIP3   OH232856   4.124   3.160  15.303  0.2462 -0.1394 -0.1959
 3814TIP3    H132857   4.130   3.065  15.289  1.9291  0.1768 -2.3178
 3814TIP3    H232858   4.040   3.184  15.263 -1.0716 -0.8976  1.9656
 3815TIP3   OH232859   1.317   3.238   4.863 -0.4962 -0.4689  0.1398
 3815TIP3    H132860   1.229   3.217   4.895 -0.3399  0.7620  1.4291
 3815TIP3    H232861   1.342   3.317   4.909  1.7463 -1.3749  0.6138
 3816TIP3   OH232862   4.681   2.246  11.498  0.0715 -0.2182  0.1202
 3816TIP3    H132863   4.617   2.177  11.519 -0.2667 -0.2569 -0.9713
 3816TIP3    H232864   4.628   2.323  11.476  0.4407  0.2837  0.9517
 3817TIP3   OH232865   3.606   0.964   5.753 -0.0988  0.0732 -0.2312
 3817TIP3    H132866   3.653   0.914   5.819 -0.4328  0.2698  0.1627
 3817TIP3    H232867   3.515   0.936   5.762 -0.0334 -0.5040 -1.1633
 3818TIP3   OH232868   0.867   5.541   4.446  0.2021 -0.1208 -0.6034
 3818TIP3    H132869   0.958   5.556   4.420  0.2733 -0.2802 -0.4527
 3818TIP3    H232870   0.871   5.463   4.502 -0.2865 -1.2999 -2.1435
 3819TIP3   OH232871   0.443   1.638   6.176  0.0775 -0.4586 -0.3397
 3819TIP3    H132872   0.496   1.636   6.096  2.0542  2.3107  0.7613
 3819TIP3    H232873   0.372   1.576   6.159  0.8761 -0.6099 -3.8896
 3820TIP3   OH232874   4.105   2.339  11.808 -0.2799 -0.6567 -0.1740
 3820TIP3    H132875   4.182   2.301  11.765 -0.5381 -0.9201 -0.4142
 3820TIP3    H232876   4.066   2.265  11.855 -1.4089 -0.9854 -1.5372
 3821TIP3   OH232877   6.090   0.588   2.442 -0.3492  0.5597 -0.2845
 3821TIP3    H132878   6.183   0.590   2.464 -0.1608 -3.1724 -0.0935
 3821TIP3    H232879   6.047   0.633   2.515  1.1562  0.2492  0.8418
 3822TIP3   OH232880   5.227   4.350   1.672 -0.1999 -0.2088 -0.2543
 3822TIP3    H132881   5.249   4.273   1.620  1.9794  0.6372 -0.7267
 3822TIP3    H232882   5.260   4.330   1.759 -3.1501 -1.3076  0.7265
 3823TIP3   OH232883   6.121   1.288  14.742  0.0036  0.3537 -0.0239
 3823TIP3    H132884   6.211   1.321  14.743  0.0708  0.1942  1.3860
 3823TIP3    H232885   6.099   1.277  14.835 -1.7842  1.2218 -0.3219
 3824TIP3   OH232886   1.218   5.564   5.367  0.1814 -0.8733 -0.2224
 3824TIP3    H132887   1.183   5.552   5.279 -1.1384 -1.4879  0.3647
 3824TIP3    H232888   1.228   5.475   5.402 -0.3694 -0.6160  0.6389
 3825TIP3   OH232889   0.748   5.549   1.555  0.1992 -0.4008 -0.0041
 3825TIP3    H132890   0.797   5.616   1.507 -0.5337  0.3008  0.1986
 3825TIP3    H232891   0.742   5.584   1.644 -0.1182 -0.7870  0.1271
 3826TIP3   OH232892   6.442   1.739   0.913  0.6197  0.7382  0.3972
 3826TIP3    H132893   6.433   1.659   0.862 -1.2074  0.8915  0.4151
 3826TIP3    H232894   6.482   1.801   0.852  3.0848 -0.4359  0.7154
 3827TIP3   OH232895   5.944   1.768   5.655 -0.6134 -0.1490  0.2478
 3827TIP3    H132896   6.006   1.815   5.710 -0.9120 -0.8296  1.2049
 3827TIP3    H232897   5.858   1.793   5.689 -0.7767 -1.3901  0.8283
 3828TIP3   OH232898   2.784   3.577   4.060 -0.2889 -0.4709  0.2768
 3828TIP3    H132899   2.690   3.569   4.045 -0.7726  1.8677  1.5780
 3828TIP3    H232900   2.793   3.650   4.121  2.3821 -0.7301  0.3368
 3829TIP3   OH232901   1.282   4.679  15.725  0.2047 -0.9653  0.6275
 3829TIP3    H132902   1.376   4.669  15.715 -0.0212 -1.6074 -1.3194
 3829TIP3    H232903   1.261   4.763  15.686 -0.0027 -0.6762  1.3422
 3830TIP3   OH232904   0.326   2.398  11.043 -0.3432 -0.5539  0.6777
 3830TIP3    H132905   0.271   2.474  11.063 -0.4596 -0.7904  1.2836
 3830TIP3    H232906   0.415   2.427  11.066 -0.5435 -1.0114  2.1608
 3831TIP3   OH232907   1.129   2.018   6.218  0.3396 -0.9708 -0.2729
 3831TIP3    H132908   1.039   2.037   6.193  0.3181  0.1379  0.5725
 3831TIP3    H232909   1.124   1.986   6.308  0.7685 -1.1043 -0.2925
 3832TIP3   OH232910   3.790   1.642   5.890 -0.1808  0.2289 -0.0259
 3832TIP3    H132911   3.710   1.594   5.912 -0.2981  0.5783  0.3220
 3832TIP3    H232912   3.795   1.711   5.956  0.6983 -0.1192  0.2914
 3833TIP3   OH232913   3.416   1.237   1.186 -0.1265  0.3523 -0.5986
 3833TIP3    H132914   3.430   1.325   1.222 -0.4323  0.3810 -0.5481
 3833TIP3    H232915   3.427   1.178   1.260  0.3194  0.3268 -0.6811
 3834TIP3   OH232916   0.581   0.599   4.915  0.1894 -0.1044 -0.5669
 3834TIP3    H132917   0.673   0.617   4.935 -0.1883  0.6838  0.5751
 3834TIP3    H232918   0.539   0.685   4.912 -0.1621 -0.2926 -3.1391
 3835TIP3   OH232919   2.171   4.497   0.845  0.1716  0.1633 -0.4205
 3835TIP3    H132920   2.118   4.543   0.780  0.4321 -1.4661 -1.8446
 3835TIP3    H232921   2.110   4.435   0.885  0.5973 -0.5883 -0.9182
 3836TIP3   OH232922   3.055   6.193  14.170  0.2897 -0.2330  0.1979
 3836TIP3    H132923   2.985   6.169  14.109 -1.0258  1.1738  1.0668
 3836TIP3    H232924   3.094   6.272  14.132 -2.3763  2.3940  2.2948
 3837TIP3   OH232925   3.218   1.840   3.013 -0.1686  0.6416  0.0110
 3837TIP3    H132926   3.226   1.746   3.025 -0.9144  0.7670  1.6511
 3837TIP3    H232927   3.275   1.860   2.938  1.4569 -0.8197  0.8198
 3838TIP3   OH232928   0.320   2.420   2.114  0.0189  0.1845 -0.0161
 3838TIP3    H132929   0.390   2.381   2.062  1.1797  0.9684  0.9190
 3838TIP3    H232930   0.290   2.494   2.061 -0.1002 -0.1296 -0.4000
 3839TIP3   OH232931   6.671   4.285  15.118  0.6883  0.3367  0.6378
 3839TIP3    H132932   6.659   4.210  15.060 -0.9356  0.2604  1.0478
 3839TIP3    H232933   6.730   4.253  15.187  0.9723 -0.1916  0.1549
 3840TIP3   OH232934   5.252   5.907   3.713 -0.1689 -0.7493  0.0172
 3840TIP3    H132935   5.290   5.834   3.761  1.2207 -0.0186  0.0981
 3840TIP3    H232936   5.199   5.867   3.645  3.6339 -2.0724 -2.5356
 3841TIP3   OH232937   6.314   5.663   3.638  0.0584  0.2381 -0.5018
 3841TIP3    H132938   6.283   5.613   3.562  0.2653  0.7808 -0.9450
 3841TIP3    H232939   6.334   5.596   3.704 -1.8314 -0.1453 -0.2722
 3842TIP3   OH232940   2.649   4.690   1.916 -0.0633  0.1896  0.3387
 3842TIP3    H132941   2.600   4.708   1.996  0.7787  1.8458  0.5194
 3842TIP3    H232942   2.582   4.685   1.847 -0.8256 -1.6105  1.1473
 3843TIP3   OH232943   4.149   0.754   5.544 -0.4056  0.4642 -0.0962
 3843TIP3    H132944   4.120   0.803   5.466  0.6591 -0.1093 -0.8728
 3843TIP3    H232945   4.239   0.783   5.559  0.4520 -1.5970 -0.8959
 3844TIP3   OH232946   2.293   2.762   6.136 -0.4799  0.1837  0.2778
 3844TIP3    H132947   2.198   2.768   6.141 -0.3693  1.2086  2.0371
 3844TIP3    H232948   2.316   2.808   6.056 -1.3871  1.1549  0.5565
 3845TIP3   OH232949   5.378   1.430  15.471  0.1424  0.6907  0.5471
 3845TIP3    H132950   5.339   1.392  15.550 -0.7114  2.3473  0.9913
 3845TIP3    H232951   5.428   1.505  15.504  0.8067  0.6695 -0.3795
 3846TIP3   OH232952   1.507   4.466   0.585  0.2926  0.1327  0.0545
 3846TIP3    H132953   1.596   4.478   0.618 -0.2404  0.0014  1.6015
 3846TIP3    H232954   1.450   4.485   0.660 -1.0350  1.3197 -1.1921
 3847TIP3   OH232955   0.674   1.825   5.465 -0.1666 -0.1656 -0.0028
 3847TIP3    H132956   0.632   1.740   5.452 -0.9696  0.0762  0.8800
 3847TIP3    H232957   0.762   1.814   5.429  0.1986 -1.7862  1.2190
 3848TIP3   OH232958   3.812   0.319  17.282  0.0779  0.0210  0.1340
 3848TIP3    H132959   3.768   0.403  17.294  0.2857  0.2064 -0.3495
 3848TIP3    H232960   3.831   0.316  17.188  0.5745 -0.3109  0.2406
 3849TIP3   OH232961   1.113   2.494  12.527 -0.0179  0.1505 -0.3276
 3849TIP3    H132962   1.028   2.527  12.555  0.7043  1.4174  0.4846
 3849TIP3    H232963   1.157   2.570  12.487  1.8148  0.3889  1.8880
 3850TIP3   OH232964   1.757   1.864   1.338  0.3587 -0.0087  0.4334
 3850TIP3    H132965   1.739   1.775   1.366 -2.8660  0.6111  0.7656
 3850TIP3    H232966   1.753   1.916   1.419 -1.2217  0.8131 -0.1303
 3851TIP3   OH232967   6.118   0.179  14.403  0.4026  0.3654  0.5476
 3851TIP3    H132968   6.024   0.163  14.419  0.1668  1.7591  0.6490
 3851TIP3    H232969   6.120   0.243  14.332  1.3315 -0.7159 -0.4384
 3852TIP3   OH232970   5.294   1.711  15.826  0.2246 -0.6342 -0.5949
 3852TIP3    H132971   5.370   1.656  15.846  0.2023 -0.8438 -1.0627
 3852TIP3    H232972   5.223   1.648  15.813  0.1721 -0.4874 -1.0225
 3853TIP3   OH232973   1.379   6.090  17.002  0.2190  0.5162  0.5044
 3853TIP3    H132974   1.449   6.141  17.042  0.5627  0.4439  0.0039
 3853TIP3    H232975   1.352   6.028  17.070  1.5769 -0.3737  0.2571
 3854TIP3   OH232976   6.670   2.020  11.815  0.2175 -0.2060  0.1434
 3854TIP3    H132977   6.648   1.950  11.753 -2.6596  0.3671  0.3757
 3854TIP3    H232978   6.673   1.977  11.900 -0.5375 -0.2136  0.1662
 3855TIP3   OH232979   0.221   0.339  16.351 -0.1630  0.0461 -0.0009
 3855TIP3    H132980   0.140   0.379  16.383 -1.2325  0.6737 -3.2018
 3855TIP3    H232981   0.219   0.250  16.387 -0.7839  0.8977  2.2650
 3856TIP3   OH232982   1.364   2.430  14.626  0.6167 -0.5233 -0.2108
 3856TIP3    H132983   1.399   2.342  14.618  0.3259 -0.7924  1.1797
 3856TIP3    H232984   1.287   2.420  14.682  0.0944  0.4959 -0.7151
 3857TIP3   OH232985   6.195   3.745   2.339  0.9355 -0.5600 -0.2711
 3857TIP3    H132986   6.221   3.795   2.417  0.8258 -1.1109  0.1221
 3857TIP3    H232987   6.232   3.658   2.353  1.2197 -0.5669 -1.0068
 3858TIP3   OH232988   0.048   5.795  13.070  0.0074  0.5455  0.1305
 3858TIP3    H132989   0.002   5.736  13.010  1.7965 -0.3103 -0.4652
 3858TIP3    H232990   0.119   5.742  13.106  2.0025  2.4221 -0.7935
 3859TIP3   OH232991   3.371   6.392   1.522  0.3324 -0.5335 -0.6885
 3859TIP3    H132992   3.465   6.381   1.539  0.1612  1.3231  2.1590
 3859TIP3    H232993   3.328   6.359   1.601 -1.4773 -1.4296 -1.9766
 3860TIP3   OH232994   6.267   4.571   0.761 -0.2793  0.5119 -0.0882
 3860TIP3    H132995   6.282   4.492   0.813 -0.3362  1.7679  1.9473
 3860TIP3    H232996   6.353   4.595   0.727 -0.1426 -0.0109 -0.1159
 3861TIP3   OH232997   2.057   5.131  13.191  0.3088 -0.1788  0.1128
 3861TIP3    H132998   2.034   5.040  13.212  0.6244 -0.2333  0.2298
 3861TIP3    H232999   2.147   5.126  13.158 -0.5142 -0.2239 -2.2675
 3862TIP3   OH233000   3.204   5.911   3.565 -0.1618  0.2939 -0.0333
 3862TIP3    H133001   3.204   5.816   3.574  1.6582  0.4121  2.0393
 3862TIP3    H233002   3.114   5.937   3.588 -0.0869 -0.8140  1.7493
 3863TIP3   OH233003   4.655   0.478   2.100 -0.2397 -0.0382  0.1249
 3863TIP3    H133004   4.719   0.524   2.045  0.2575 -0.7788  0.0831
 3863TIP3    H233005   4.572   0.523   2.081 -0.0539 -0.1727 -1.1136
 3864TIP3   OH233006   2.364   3.029  14.091 -0.3875 -0.1786  0.2442
 3864TIP3    H133007   2.428   3.028  14.163 -1.7045  1.1098  1.4952
 3864TIP3    H233008   2.282   3.003  14.131 -0.8776 -0.8730 -1.1459
 3865TIP3   OH233009   5.321   2.103   5.423  0.1784 -0.7924  0.3108
 3865TIP3    H133010   5.396   2.138   5.470  0.1661  0.3186 -0.4606
 3865TIP3    H233011   5.256   2.085   5.491 -0.3541  2.0486  0.6712
 3866TIP3   OH233012   3.552   3.649   5.926 -0.7943 -0.2460  0.8131
 3866TIP3    H133013   3.641   3.613   5.930 -0.4507  0.3968 -0.4778
 3866TIP3    H233014   3.512   3.607   5.851 -0.8349  1.0167  0.0927
 3867TIP3   OH233015   5.069   6.159  14.612 -0.0064  0.6175  0.4171
 3867TIP3    H133016   5.014   6.197  14.681 -1.0428  1.7253 -0.9467
 3867TIP3    H233017   5.038   6.069  14.605 -0.1155  0.5866  1.1649
 3868TIP3   OH233018   0.079   1.098   1.656 -0.1985  0.5467  0.1407
 3868TIP3    H133019   0.138   1.123   1.727  0.0304  1.5940 -0.3814
 3868TIP3    H233020   0.072   1.178   1.602 -0.4342 -0.1859 -0.9545
 3869TIP3   OH233021   0.031   2.536   0.027 -0.0226 -0.1952 -0.3565
 3869TIP3    H133022   0.034   2.441   0.023 -1.6918 -0.2827  0.0225
 3869TIP3    H233023   0.046   2.564  -0.064 -0.7096 -0.8705 -0.6906
 3870TIP3   OH233024   2.244   1.189   4.408  0.1960 -0.6700 -0.3472
 3870TIP3    H133025   2.158   1.221   4.382 -0.3739 -0.8540  1.1979
 3870TIP3    H233026   2.305   1.232   4.349 -1.1067 -2.5703 -3.2952
 3871TIP3   OH233027   2.200   5.685  14.981 -0.1572 -0.1427  0.5203
 3871TIP3    H133028   2.267   5.719  15.041 -0.6096  0.4800  0.6759
 3871TIP3    H233029   2.241   5.607  14.942  1.5754  1.5170 -1.1477
 3872TIP3   OH233030   1.708   2.055   0.662  0.2340 -0.1225 -0.0538
 3872TIP3    H133031   1.644   1.988   0.684  0.5161  0.5076  3.1677
 3872TIP3    H233032   1.780   2.007   0.621  0.0198 -1.6697  1.2996
 3873TIP3   OH233033   6.035   2.384   4.197 -0.0776 -0.1347  0.3920
 3873TIP3    H133034   6.031   2.480   4.197  0.3955 -0.1101  0.9460
 3873TIP3    H233035   6.091   2.363   4.122  0.0550  0.0288  0.4452
 3874TIP3   OH233036   0.231   5.461  14.207  0.1126 -0.3374  0.2219
 3874TIP3    H133037   0.253   5.534  14.264 -0.4083  0.4112 -0.5011
 3874TIP3    H233038   0.222   5.501  14.120 -1.6770 -0.9743  0.0771
 3875TIP3   OH233039   4.493   6.503   2.180 -0.1746  0.4484 -0.2180
 3875TIP3    H133040   4.404   6.469   2.186 -0.0306  0.2528  0.9610
 3875TIP3    H233041   4.493   6.581   2.236  0.7338 -0.3125  0.8757
 3876TIP3   OH233042   1.453   1.615   1.355  0.8218  0.4442 -0.1685
 3876TIP3    H133043   1.435   1.707   1.338  0.2204  0.7381  1.8707
 3876TIP3    H233044   1.377   1.568   1.320  0.0633  0.9397  0.7717
 3877TIP3   OH233045   5.120   6.677  15.601  0.0027 -0.2574 -0.3267
 3877TIP3    H133046   5.087   6.702  15.687  1.2278 -0.6002  0.2725
 3877TIP3    H233047   5.215   6.669  15.613  0.2084 -0.2419 -1.7306
 3878TIP3   OH233048   5.742   1.484   2.095 -0.1486 -0.0690  0.4633
 3878TIP3    H133049   5.698   1.495   2.180  0.7440 -0.6873  1.0186
 3878TIP3    H233050   5.811   1.419   2.112 -1.0294 -1.5130 -1.1251
 3879TIP3   OH233051   5.453   3.507  17.571  0.2184 -0.1778  0.0453
 3879TIP3    H133052   5.459   3.424  17.618 -1.9065  0.2873  1.3038
 3879TIP3    H233053   5.537   3.550  17.586  0.5723 -1.2048  1.1370
 3880TIP3   OH233054   2.521   2.315  17.153 -0.0688  0.0685 -0.9013
 3880TIP3    H133055   2.442   2.367  17.164 -0.2579  0.0571 -2.1387
 3880TIP3    H233056   2.592   2.379  17.155  0.4372 -0.1731  4.4368
 3881TIP3   OH233057   1.557   5.442  15.886  0.3228 -0.0419 -0.4861
 3881TIP3    H133058   1.586   5.532  15.902 -0.0842  0.3417 -1.7600
 3881TIP3    H233059   1.638   5.391  15.885  0.5992  0.3806 -0.2071
 3882TIP3   OH233060   1.643   1.973  14.642 -0.7292 -0.7746 -0.0712
 3882TIP3    H133061   1.726   2.007  14.607 -1.8031  1.6936 -0.4412
 3882TIP3    H233062   1.597   1.939  14.566 -1.3264  0.7739 -0.4420
 3883TIP3   OH233063   6.215   6.155   4.758  0.1566  0.0198  0.4111
 3883TIP3    H133064   6.279   6.181   4.691 -0.6084  1.7422  0.2941
 3883TIP3    H233065   6.152   6.101   4.710 -0.8894  1.9820 -0.5461
 3884TIP3   OH233066   1.830   0.921  11.163  0.2505  0.0486 -0.7166
 3884TIP3    H133067   1.870   0.837  11.185 -1.3873 -0.8731 -1.0940
 3884TIP3    H233068   1.900   0.971  11.120  1.9295 -0.1858  1.5530
 3885TIP3   OH233069   3.808   5.332  17.367  0.0972 -0.2970 -0.2657
 3885TIP3    H133070   3.868   5.284  17.311  0.2782 -0.9332  0.4496
 3885TIP3    H233071   3.747   5.375  17.307  0.5419 -0.6140 -0.9490
 3886TIP3   OH233072   0.586   5.021   3.760 -0.1214 -0.3663 -0.6103
 3886TIP3    H133073   0.569   5.105   3.717 -0.3276 -0.2406 -0.2850
 3886TIP3    H233074   0.500   4.983   3.773  0.0619 -1.4314 -2.3422
 3887TIP3   OH233075   1.222   4.562   5.985 -0.2296 -0.4303 -0.5043
 3887TIP3    H133076   1.284   4.517   6.042 -0.2781  0.0216 -0.0913
 3887TIP3    H233077   1.271   4.579   5.905  0.4746  0.7416  0.1601
 3888TIP3   OH233078   1.289   1.179  16.158 -0.2957  0.4394  0.2442
 3888TIP3    H133079   1.304   1.273  16.149  1.2855  0.2528  0.6641
 3888TIP3    H233080   1.353   1.151  16.223 -1.0801 -0.8549  0.4802
 3889TIP3   OH233081   3.936   6.674  14.028 -0.1760  0.3124  0.4301
 3889TIP3    H133082   3.865   6.634  14.078 -0.2630  0.9068  0.7809
 3889TIP3    H233083   4.002   6.604  14.022 -0.2704  0.1516  1.1525
 3890TIP3   OH233084   6.463   2.755   3.279  0.2961 -0.6158 -0.2605
 3890TIP3    H133085   6.450   2.847   3.254 -0.0189 -0.2598  1.1076
 3890TIP3    H233086   6.387   2.710   3.243 -0.6438  0.0475  0.8036
 3891TIP3   OH233087   3.078   6.070  13.767  0.7548  0.3821 -0.3288
 3891TIP3    H133088   3.039   5.998  13.816 -1.0889  1.2057 -0.4994
 3891TIP3    H233089   3.150   6.030  13.719  0.7341 -1.0275  0.7428
 3892TIP3   OH233090   0.688   0.981   0.754 -0.0223 -0.1010 -0.5637
 3892TIP3    H133091   0.688   0.960   0.848 -2.0956 -0.3059 -0.5694
 3892TIP3    H233092   0.711   0.898   0.711 -1.2002 -0.5828 -0.2988
 3893TIP3   OH233093   2.717   2.230  12.992  0.7892 -0.5994  0.2395
 3893TIP3    H133094   2.681   2.148  13.026  0.5130 -0.6298 -0.1288
 3893TIP3    H233095   2.812   2.214  12.987  0.7685 -0.7936  0.4463
 3894TIP3   OH233096   3.843   5.816   3.883 -0.7262 -0.2375 -0.1257
 3894TIP3    H133097   3.778   5.868   3.837 -2.1298  0.0024  1.9795
 3894TIP3    H233098   3.841   5.731   3.840 -1.3344  0.2161 -1.0259
 3895TIP3   OH233099   0.023   2.382   5.185  0.1493  0.0256 -0.1689
 3895TIP3    H133100  -0.055   2.329   5.169  1.7547 -2.4626 -0.3371
 3895TIP3    H233101   0.073   2.332   5.250  0.9808  2.2399  0.9937
 3896TIP3   OH233102   0.503   3.372   2.904  0.0799  0.3771  0.7415
 3896TIP3    H133103   0.416   3.333   2.912 -0.5917  1.5639 -0.2824
 3896TIP3    H233104   0.543   3.326   2.831  0.1086  0.1744  0.8859
 3897TIP3   OH233105   0.281   3.204  11.808  0.1405  0.0285  0.5365
 3897TIP3    H133106   0.188   3.222  11.824 -0.3403 -0.9179 -0.9998
 3897TIP3    H233107   0.322   3.291  11.803 -0.5875  0.4499  1.5257
 3898TIP3   OH233108   6.511   5.206  13.809 -0.4285  0.5532  0.1902
 3898TIP3    H133109   6.428   5.254  13.812 -1.1893 -0.6071 -1.0690
 3898TIP3    H233110   6.505   5.152  13.730  2.1522  1.5347 -0.7769
 3899TIP3   OH233111   1.693   5.262  11.670  0.2075  0.1063 -0.1248
 3899TIP3    H133112   1.638   5.303  11.737  0.3901 -0.3181  0.2859
 3899TIP3    H233113   1.633   5.204  11.623 -0.0536  0.8354 -0.7130
 3900TIP3   OH233114   0.907   0.762  16.765  0.0210 -0.3867 -0.5706
 3900TIP3    H133115   0.935   0.679  16.727  1.4707 -0.1020 -0.1797
 3900TIP3    H233116   0.987   0.799  16.804 -0.8515  0.6103  0.3360
 3901TIP3   OH233117   6.532   2.327  13.448 -0.1635 -0.1135 -0.0594
 3901TIP3    H133118   6.461   2.307  13.387  0.8839 -1.4631 -0.8928
 3901TIP3    H233119   6.487   2.349  13.530 -1.5529 -1.8082 -0.2926
 3902TIP3   OH233120   3.902   0.370  14.930  0.0584 -0.1840 -0.4019
 3902TIP3    H133121   3.809   0.345  14.938 -0.4314  0.9898 -1.8730
 3902TIP3    H233122   3.914   0.384  14.836  1.5878  0.2288 -0.1579
 3903TIP3   OH233123   3.170   5.500  13.839  0.0429 -0.2276  0.4268
 3903TIP3    H133124   3.078   5.514  13.816  0.4332 -0.5831 -1.4987
 3903TIP3    H233125   3.175   5.525  13.932 -1.5879  1.6074  0.0864
 3904TIP3   OH233126   2.283   4.888  14.983  0.3880  0.5267 -0.3057
 3904TIP3    H133127   2.376   4.908  14.968  0.3129  2.5039  1.4287
 3904TIP3    H233128   2.236   4.940  14.918  0.4448 -0.8400 -1.5031
 3905TIP3   OH233129   6.361   6.598   5.762 -0.1961  0.7957 -0.3675
 3905TIP3    H133130   6.356   6.503   5.758  0.0676  0.7457  0.3949
 3905TIP3    H233131   6.354   6.619   5.855  1.0640  1.4381 -0.3921
 3906TIP3   OH233132   4.980   0.039  15.836 -0.2977  0.3865 -0.0779
 3906TIP3    H133133   4.942   0.083  15.912  0.0215 -0.3984  0.5519
 3906TIP3    H233134   4.975  -0.054  15.857 -1.7050  0.0291 -1.7216
 3907TIP3   OH233135   6.032   1.156   5.634 -0.1578  0.5321 -0.4946
 3907TIP3    H133136   6.083   1.221   5.682 -0.3814  0.8029 -0.6262
 3907TIP3    H233137   5.952   1.146   5.684  0.3838 -0.5430  0.2018
 3908TIP3   OH233138   0.481   5.725  16.090  0.7420  0.2943 -0.5496
 3908TIP3    H133139   0.565   5.736  16.047  1.2351 -0.0703  0.3087
 3908TIP3    H233140   0.496   5.660  16.157 -0.9697 -2.1860 -2.3831
 3909TIP3   OH233141   3.536   5.385   0.265 -0.0969  0.3407 -0.3219
 3909TIP3    H133142   3.627   5.410   0.277 -0.5140  2.0990 -0.6256
 3909TIP3    H233143   3.530   5.297   0.304  1.7456  0.1155 -0.4717
 3910TIP3   OH233144   1.979   3.481   0.353 -0.5386 -0.4318 -0.3760
 3910TIP3    H133145   1.980   3.433   0.270  0.9880 -1.4743  0.1944
 3910TIP3    H233146   2.016   3.419   0.416  1.8303  1.5646  0.3459
 3911TIP3   OH233147   1.937   1.805   5.009 -0.2326 -0.0251  0.2624
 3911TIP3    H133148   1.920   1.716   5.040 -0.3628  0.0417  0.3801
 3911TIP3    H233149   1.863   1.825   4.951 -0.3578  0.1212  0.4749
 3912TIP3   OH233150   0.288   2.676  14.460  0.5165  0.0645 -0.3286
 3912TIP3    H133151   0.287   2.771  14.470  1.7692  0.0501  0.0263
 3912TIP3    H233152   0.306   2.661  14.367 -0.6199  0.1586 -0.5806
 3913TIP3   OH233153   4.463   6.510  17.605  0.3609 -0.1564 -0.4219
 3913TIP3    H133154   4.531   6.559  17.559 -0.0897 -0.3415 -1.2996
 3913TIP3    H233155   4.501   6.423  17.618  1.2366  0.4263  1.3099
 3914TIP3   OH233156   1.633   0.473  13.639 -0.3580  0.0522  0.7271
 3914TIP3    H133157   1.585   0.417  13.577 -0.3685 -0.1171  0.8859
 3914TIP3    H233158   1.724   0.446  13.629 -0.5248 -0.9930  1.8103
 3915TIP3   OH233159   0.394   4.907  16.367 -0.0127 -0.0944  0.1399
 3915TIP3    H133160   0.396   4.976  16.299  0.3202  1.6028  1.7878
 3915TIP3    H233161   0.431   4.830  16.324  1.5939  1.3394 -1.1941
 3916TIP3   OH233162   4.770   3.954   4.690  0.0391 -0.0884  0.5442
 3916TIP3    H133163   4.822   3.996   4.758 -1.1106 -1.0480  2.0846
 3916TIP3    H233164   4.683   3.993   4.699  0.2407  1.0110 -1.5473
 3917TIP3   OH233165   6.542   5.624   2.503  0.2354  0.0267  0.4585
 3917TIP3    H133166   6.549   5.718   2.517 -0.2925 -0.1000  1.6855
 3917TIP3    H233167   6.623   5.588   2.539 -0.2627 -0.1206  1.4636
 3918TIP3   OH233168   1.346   2.924  13.507 -0.3923 -0.6239  0.3626
 3918TIP3    H133169   1.433   2.959  13.522 -0.4733 -0.6930  0.9971
 3918TIP3    H233170   1.361   2.840  13.463 -0.0557 -1.5820  2.2472
 3919TIP3   OH233171   3.903   1.126  16.150 -0.4300  0.1386  0.2425
 3919TIP3    H133172   3.824   1.149  16.199  0.4794 -1.0110  2.3768
 3919TIP3    H233173   3.948   1.061  16.204  2.1251  0.9360 -0.7282
 3920TIP3   OH233174   3.752   4.924  15.212 -0.1585  0.7096  0.1956
 3920TIP3    H133175   3.754   4.972  15.129  1.4072  0.2101 -0.0895
 3920TIP3    H233176   3.840   4.934  15.247 -0.1159 -1.0400  0.6585
 3921TIP3   OH233177   6.152   3.826   0.651 -0.1101 -0.5691 -0.1038
 3921TIP3    H133178   6.108   3.834   0.566  1.1497 -0.3847 -0.7626
 3921TIP3    H233179   6.082   3.833   0.715 -0.9574  0.3252 -1.0964
 3922TIP3   OH233180   1.264   3.923  17.127  0.2073  0.3584  0.0119
 3922TIP3    H133181   1.265   3.865  17.051  2.9484  0.3585 -0.0346
 3922TIP3    H233182   1.258   3.864  17.202 -0.6437  0.2593 -0.1217
 3923TIP3   OH233183   4.017   0.452   2.991  0.2158  0.4647 -0.0710
 3923TIP3    H133184   3.949   0.404   3.038  0.1349 -0.0989 -0.7556
 3923TIP3    H233185   4.099   0.412   3.020  0.1400 -0.2019 -0.7618
 3924TIP3   OH233186   0.002   6.598  15.917  0.0929  0.4966  0.6384
 3924TIP3    H133187  -0.032   6.592  15.828  0.0706  0.2223  0.6625
 3924TIP3    H233188   0.017   6.507  15.943  0.3859  0.5892  0.8053
 3925TIP3   OH233189   6.403   1.946   0.164 -0.5170  0.2869  0.0095
 3925TIP3    H133190   6.414   1.916   0.074 -1.5773  1.2095 -0.4494
 3925TIP3    H233191   6.312   1.924   0.185  0.2039 -1.5202  1.4934
 3926TIP3   OH233192   2.310   5.292  16.619  0.2440  0.7120 -0.1847
 3926TIP3    H133193   2.404   5.307  16.608  0.8415 -0.4620  2.4736
 3926TIP3    H233194   2.304   5.227  16.689 -2.5613  0.1451 -0.8247
 3927TIP3   OH233195   1.081   6.098   0.927 -0.5424 -0.2009 -0.3683
 3927TIP3    H133196   1.077   6.043   1.006  1.6170 -0.7259 -0.5594
 3927TIP3    H233197   0.991   6.104   0.897 -0.9977 -2.8652  0.2162
 3928TIP3   OH233198   3.098   4.766  15.370 -0.3147  0.0527 -0.2268
 3928TIP3    H133199   3.109   4.687  15.423 -0.3076  0.4714  0.4079
 3928TIP3    H233200   3.161   4.756  15.299 -0.7151 -0.7780 -0.4716
 3929TIP3   OH233201   5.574   0.490  12.582 -0.2773 -0.2753 -0.1886
 3929TIP3    H133202   5.519   0.427  12.629  1.4332 -0.5443  1.5594
 3929TIP3    H233203   5.654   0.442  12.562  0.5978  0.9976  0.1549
 3930TIP3   OH233204   5.012   3.703  13.684 -0.0249 -0.1649 -0.0001
 3930TIP3    H133205   5.002   3.734  13.774  3.0431  0.5421  0.2086
 3930TIP3    H233206   4.970   3.618  13.683 -0.4869 -0.0044  1.9969
 3931TIP3   OH233207   4.428   1.569   3.727 -0.3105 -0.4572 -0.4959
 3931TIP3    H133208   4.438   1.583   3.632 -1.0193 -2.3514 -0.9000
 3931TIP3    H233209   4.363   1.634   3.753  1.5073  1.6078 -0.8157
 3932TIP3   OH233210   1.688   2.756  14.996  0.1293 -0.3165  0.2520
 3932TIP3    H133211   1.745   2.818  15.042  0.7790 -0.9612  0.3222
 3932TIP3    H233212   1.674   2.685  15.057 -0.9352 -0.0821  0.3103
 3933TIP3   OH233213   5.470   0.244  14.992  0.2443  0.5771 -0.1199
 3933TIP3    H133214   5.375   0.241  15.004  0.3527  0.0908  0.6815
 3933TIP3    H233215   5.483   0.218  14.901 -0.3335 -0.6275  0.1208
 3934TIP3   OH233216   2.013   4.318  14.582  0.1855 -0.4002 -0.2843
 3934TIP3    H133217   1.995   4.276  14.666  0.5610 -0.7112 -0.3518
 3934TIP3    H233218   1.971   4.403  14.587  0.9979 -0.0269  0.5883
 3935TIP3   OH233219   1.248   0.539  11.863 -0.2807  0.0565  0.0936
 3935TIP3    H133220   1.301   0.513  11.938 -2.1055  0.3234  1.5443
 3935TIP3    H233221   1.312   0.564  11.796  1.4095 -0.6727  1.3572
 3936TIP3   OH233222   6.073   1.368  13.985  0.4215  0.7556 -0.5575
 3936TIP3    H133223   6.082   1.278  13.952 -0.2613  1.1903 -2.0385
 3936TIP3    H233224   6.150   1.382  14.040  0.8932 -0.5058 -0.8686
 3937TIP3   OH233225   2.608   2.161  12.536 -0.0703 -1.0653  0.2401
 3937TIP3    H133226   2.616   2.244  12.582 -0.6540 -1.2116  0.6127
 3937TIP3    H233227   2.537   2.176  12.473  0.6692 -0.8887 -0.5699
 3938TIP3   OH233228   2.321   4.220  12.975 -0.4576  0.0368  0.3190
 3938TIP3    H133229   2.261   4.284  13.013 -1.6164 -0.0010 -1.3309
 3938TIP3    H233230   2.269   4.176  12.907  1.3988 -0.0972 -1.0875
 3939TIP3   OH233231   1.161   1.238   6.415 -0.2957 -0.0760  0.5214
 3939TIP3    H133232   1.108   1.168   6.455  0.7650 -0.7116  0.8466
 3939TIP3    H233233   1.248   1.227   6.453  0.0665  0.9993  0.0430
 3940TIP3   OH233234   0.771   0.886  16.565 -0.4605  0.0040  0.1686
 3940TIP3    H133235   0.705   0.935  16.614 -1.5173 -1.1366 -0.0468
 3940TIP3    H233236   0.820   0.839  16.633 -0.5900  0.0199  0.2750
 3941TIP3   OH233237   2.798   6.416  16.424  0.2117 -0.0384  0.4758
 3941TIP3    H133238   2.797   6.441  16.332 -0.2186  0.5199  0.6260
 3941TIP3    H233239   2.709   6.435  16.455 -0.5862 -2.9400  0.3001
 3942TIP3   OH233240   0.126   1.806   6.165 -0.6204 -0.0937  0.1164
 3942TIP3    H133241   0.086   1.849   6.240  2.6159  0.6582  1.5804
 3942TIP3    H233242   0.170   1.729   6.202  1.5847  0.6387 -0.8347
 3943TIP3   OH233243   6.011   1.614   3.227  0.2005  0.9853 -0.2135
 3943TIP3    H133244   6.095   1.577   3.254 -0.0361  1.1158  0.7358
 3943TIP3    H233245   6.014   1.614   3.132 -0.0711 -2.2462 -0.3582
 3944TIP3   OH233246   6.500   1.394  17.134  0.7469  0.3699 -0.2693
 3944TIP3    H133247   6.465   1.306  17.120  1.7912 -0.3289  1.2198
 3944TIP3    H233248   6.433   1.453  17.099 -2.6978 -0.8096  3.4754
 3945TIP3   OH233249   5.907   5.906  14.675 -0.3963  0.7952 -0.1740
 3945TIP3    H133250   5.978   5.913  14.610 -0.2193 -0.0798 -0.0867
 3945TIP3    H233251   5.834   5.868  14.627 -0.2671  0.1496  0.1313
 3946TIP3   OH233252   6.091   2.593   0.006 -0.1862 -0.6238 -0.7219
 3946TIP3    H133253   6.135   2.549  -0.066 -1.0574  0.8592 -2.2191
 3946TIP3    H233254   6.030   2.653  -0.036 -2.0991 -1.0565  1.2641
 3947TIP3   OH233255   1.276   5.312  11.390  0.1698  1.0679  0.1342
 3947TIP3    H133256   1.267   5.217  11.396 -1.2909  1.0852 -0.9703
 3947TIP3    H233257   1.283   5.342  11.480 -0.3037 -0.0252  0.5464
 3948TIP3   OH233258   3.625   4.048  13.767  0.3011  0.5837  0.4536
 3948TIP3    H133259   3.715   4.058  13.738 -0.0479 -0.0887 -0.9466
 3948TIP3    H233260   3.575   4.108  13.713 -0.2546 -0.0388  0.2589
 3949TIP3   OH233261   0.710   6.295   6.428  0.2329 -0.3241 -0.1997
 3949TIP3    H133262   0.626   6.283   6.384 -0.2180  0.8607  0.3209
 3949TIP3    H233263   0.772   6.244   6.375 -0.0003  2.0853 -3.0356
 3950TIP3   OH233264   5.802   2.792   5.250 -0.2715 -0.3903  0.1790
 3950TIP3    H133265   5.800   2.888   5.247  3.1033 -0.0722  2.5149
 3950TIP3    H233266   5.710   2.767   5.262 -1.4336  2.4042 -1.7385
 3951TIP3   OH233267   2.033   5.465  12.709  0.1922  0.0154  0.0468
 3951TIP3    H133268   1.994   5.386  12.749  1.3530 -1.4640 -1.5883
 3951TIP3    H233269   1.982   5.479  12.630  1.1459 -0.2161 -0.6224
 3952TIP3   OH233270   5.886   1.934  16.110  0.6763  0.0815  0.1919
 3952TIP3    H133271   5.830   1.927  16.033  0.2094  3.9462 -0.0519
 3952TIP3    H233272   5.840   1.996  16.168  2.5561 -0.1660  2.0910
 3953TIP3   OH233273   0.219   1.920   0.947  0.2752  0.1745  0.4873
 3953TIP3    H133274   0.302   1.874   0.960  0.0038 -0.6689 -0.6088
 3953TIP3    H233275   0.236   2.010   0.974  1.9773  0.3669 -1.0606
 3954TIP3   OH233276   3.403   5.683  12.653 -0.5063 -0.6858 -0.0432
 3954TIP3    H133277   3.370   5.655  12.567  0.8180 -0.0028 -0.8147
 3954TIP3    H233278   3.379   5.612  12.712  0.8001 -2.4400 -1.4929
 3955TIP3   OH233279   6.510   4.179  14.853 -0.0132 -0.1425 -0.3935
 3955TIP3    H133280   6.501   4.133  14.936 -0.4756  2.8379  1.3359
 3955TIP3    H233281   6.434   4.151  14.802 -2.1414  1.1568  1.9051
 3956TIP3   OH233282   5.239   0.865  14.973 -0.7203  0.2762 -0.4660
 3956TIP3    H133283   5.217   0.883  14.881 -0.6181 -0.7054 -0.6865
 3956TIP3    H233284   5.172   0.804  15.002  1.7893 -3.1344 -1.2694
 3957TIP3   OH233285   3.785   1.725   3.234  0.7645 -0.0812 -0.5583
 3957TIP3    H133286   3.791   1.794   3.168 -0.6761  2.2104  1.5516
 3957TIP3    H233287   3.876   1.711   3.262  1.1280  0.6713 -1.3294
 3958TIP3   OH233288   4.227   2.599   0.749 -0.3631  0.6131  0.2581
 3958TIP3    H133289   4.184   2.647   0.819  0.2883  0.8247  0.5166
 3958TIP3    H233290   4.314   2.578   0.783 -0.3305 -0.0060 -0.1719
 3959TIP3   OH233291   0.693   6.527   3.672 -0.0676 -0.5133  0.4159
 3959TIP3    H133292   0.693   6.618   3.701  1.6420 -0.1401 -0.5716
 3959TIP3    H233293   0.751   6.482   3.734  2.8700  0.1064 -1.6281
 3960TIP3   OH233294   2.726   3.105   1.075 -0.7752  0.3399  0.1230
 3960TIP3    H133295   2.777   3.111   1.155 -0.3813  1.9019 -0.1915
 3960TIP3    H233296   2.754   3.024   1.033  0.6274  0.5994  0.5208
 3961TIP3   OH233297   2.667   2.180   1.067  0.0157  0.1448  0.7538
 3961TIP3    H133298   2.619   2.110   1.024  1.3350 -1.1056  1.2241
 3961TIP3    H233299   2.760   2.157   1.055  0.4800  1.5937  1.2744
 3962TIP3   OH233300   1.548   2.072  17.045 -0.4758  0.3898  0.8142
 3962TIP3    H133301   1.481   2.125  17.089 -0.1890  0.9765  0.5538
 3962TIP3    H233302   1.562   2.115  16.961  0.4579  0.4546  0.9929
 3963TIP3   OH233303   2.305   2.046  17.479  0.2783 -0.7558  0.3721
 3963TIP3    H133304   2.233   2.082  17.428  1.1600  0.3852 -0.1124
 3963TIP3    H233305   2.365   2.011  17.414  0.2301 -1.6017  0.7664
 3964TIP3   OH233306   0.433   2.117   1.539 -0.4185  0.0516 -1.0664
 3964TIP3    H133307   0.353   2.071   1.564 -1.2487  1.8067 -0.3292
 3964TIP3    H233308   0.436   2.193   1.597  1.6322  0.1863 -1.2945
 3965TIP3   OH233309   0.652   3.364  14.666  0.4908  0.4831 -0.5148
 3965TIP3    H133310   0.654   3.399  14.755  0.2874  0.8042 -0.6354
 3965TIP3    H233311   0.633   3.271  14.676 -0.9774  0.7830 -0.2949
 3966TIP3   OH233312   0.127   5.596   2.499  0.0574 -0.7248 -0.3499
 3966TIP3    H133313   0.127   5.502   2.479  2.5982 -0.6695 -0.9482
 3966TIP3    H233314   0.206   5.609   2.550  1.0731  1.4555 -2.3226
 3967TIP3   OH233315   5.529   5.792   0.163  0.4708 -0.3149 -0.0946
 3967TIP3    H133316   5.446   5.839   0.171 -0.5707 -2.0944  0.2586
 3967TIP3    H233317   5.550   5.795   0.070  0.4412  0.8250 -0.0725
 3968TIP3   OH233318   4.729   6.478   3.592 -0.1654 -0.0790 -0.4204
 3968TIP3    H133319   4.790   6.469   3.665 -0.2768 -0.7267 -0.3941
 3968TIP3    H233320   4.699   6.568   3.596  0.2633  0.0504 -0.0137
 3969TIP3   OH233321   3.896   5.331   3.163  0.1685 -0.1061  0.2698
 3969TIP3    H133322   3.907   5.426   3.173 -0.0763  0.1977 -1.8452
 3969TIP3    H233323   3.983   5.295   3.180  0.0329  0.3571  2.1363
 3970TIP3   OH233324   6.056   2.695   3.661  0.1475 -0.5221 -0.1108
 3970TIP3    H133325   6.113   2.665   3.590 -0.5820 -0.3465 -0.7843
 3970TIP3    H233326   6.097   2.775   3.693 -0.8964  0.9378 -2.1619
 3971TIP3   OH233327   4.046   4.796   3.513  0.3893 -0.2216  0.2440
 3971TIP3    H133328   4.031   4.858   3.585 -1.3168 -0.8652  0.4938
 3971TIP3    H233329   4.108   4.840   3.455  1.1986  0.6374  1.7084
 3972TIP3   OH233330   0.346   1.520  12.531  0.1878 -0.1242  0.4600
 3972TIP3    H133331   0.257   1.537  12.563  0.1085 -1.0921  0.7816
 3972TIP3    H233332   0.335   1.455  12.462  0.7781 -1.5218  1.6341
 3973TIP3   OH233333   0.796   6.272  17.315  0.4730 -0.0756  0.0886
 3973TIP3    H133334   0.868   6.315  17.362  0.3785 -1.3583  1.4954
 3973TIP3    H233335   0.816   6.286  17.223  1.2162  1.6757  0.4728
 3974TIP3   OH233336   2.115   5.973   6.061 -0.4504  0.0217  0.5457
 3974TIP3    H133337   2.138   5.891   6.016 -1.4509 -0.3454  0.6925
 3974TIP3    H233338   2.069   5.945   6.140  0.3806  0.6992  1.2853
 3975TIP3   OH233339   1.689   5.561  12.010  0.0954  0.1856 -0.1687
 3975TIP3    H133340   1.772   5.607  12.001 -0.5288  1.6962  1.3480
 3975TIP3    H233341   1.623   5.630  12.016 -1.1646 -0.9568 -0.3164
 3976TIP3   OH233342   5.992   6.569   4.110  0.7980  0.1862 -0.2474
 3976TIP3    H133343   6.077   6.608   4.132  0.6573  0.3560  0.0010
 3976TIP3    H233344   5.940   6.579   4.189  0.0670  1.3854 -0.8497
 3977TIP3   OH233345   3.018   5.143  10.811 -0.0218 -0.2177  0.6982
 3977TIP3    H133346   3.029   5.068  10.754 -1.0343  1.4535 -1.8656
 3977TIP3    H233347   3.101   5.152  10.857  1.8752 -0.1279 -2.4952
 3978TIP3   OH233348   6.694   1.631  13.500 -0.1370  0.2789 -0.0010
 3978TIP3    H133349   6.643   1.651  13.422  1.5455 -0.1477 -1.2650
 3978TIP3    H233350   6.698   1.536  13.503 -0.3015  0.2837  0.7068
 3979TIP3   OH233351   1.749   6.244   4.906 -0.6499 -0.1813  0.6080
 3979TIP3    H133352   1.777   6.334   4.926 -1.9800  0.3722  0.0923
 3979TIP3    H233353   1.741   6.203   4.992 -1.5915  0.7032  0.9718
 3980TIP3   OH233354   5.937   6.017  16.065 -0.7958 -0.7656 -0.5177
 3980TIP3    H133355   5.954   5.924  16.046  1.8526  0.0379 -2.8654
 3980TIP3    H233356   6.000   6.038  16.135 -1.5471 -0.7454  0.1681
 3981TIP3   OH233357   4.384   0.161  14.350 -0.2688  1.0691  0.8425
 3981TIP3    H133358   4.347   0.079  14.382  1.0505  0.0978 -0.0109
 3981TIP3    H233359   4.436   0.194  14.424 -2.0322  1.9988  1.7382
 3982TIP3   OH233360   4.008   1.009  16.667  0.1441 -0.3029  0.1746
 3982TIP3    H133361   3.913   0.997  16.662  0.3008 -2.4259  1.0567
 3982TIP3    H233362   4.020   1.075  16.736 -0.6823  0.0069  0.0328
 3983TIP3   OH233363   0.665   3.301  15.896 -0.0169 -0.1075  0.0290
 3983TIP3    H133364   0.596   3.312  15.831 -0.3322 -0.5738  0.2849
 3983TIP3    H233365   0.728   3.242  15.854 -1.0865 -1.8734  0.7968
 3984TIP3   OH233366   6.012   0.490   5.830 -0.1323 -0.0249  0.0784
 3984TIP3    H133367   6.049   0.434   5.762  1.0411  0.2888  0.4303
 3984TIP3    H233368   5.977   0.565   5.783 -1.3727 -0.8607 -0.3614
 3985TIP3   OH233369   0.216   1.422  16.218  0.1573 -0.2617 -0.0974
 3985TIP3    H133370   0.227   1.327  16.212  0.4052 -0.2493  0.1353
 3985TIP3    H233371   0.158   1.435  16.293  2.4016 -0.1059  1.7107
 3986TIP3   OH233372   1.641   3.971   4.915  0.0535  0.6584 -0.0682
 3986TIP3    H133373   1.698   4.047   4.905 -0.0779  0.5298 -2.3438
 3986TIP3    H233374   1.694   3.907   4.963  0.1627  2.1157  1.8998
 3987TIP3   OH233375   2.994   6.686  15.172  1.0852  0.3854 -0.3334
 3987TIP3    H133376   2.946   6.610  15.206 -0.4509  1.4145 -0.0735
 3987TIP3    H233377   2.993   6.749  15.244  2.8511  0.4551 -0.3410
 3988TIP3   OH233378   3.612   6.051   5.700 -0.3917  0.4338  0.5849
 3988TIP3    H133379   3.641   6.140   5.721 -1.0014  0.5762  0.8274
 3988TIP3    H233380   3.692   6.007   5.670 -0.1138  1.1014  0.3237
 3989TIP3   OH233381   2.685   2.681  14.408 -0.2504 -0.4160  0.4510
 3989TIP3    H133382   2.706   2.618  14.339 -1.4196 -0.1436 -0.1834
 3989TIP3    H233383   2.594   2.660  14.432  0.5091 -1.3403  2.8314
 3990TIP3   OH233384   3.169   0.135   5.326  0.1794 -0.3231 -0.1473
 3990TIP3    H133385   3.211   0.183   5.397 -0.6430 -0.1535  0.2325
 3990TIP3    H233386   3.203   0.175   5.246  0.7962 -0.2445  0.1523
 3991TIP3   OH233387   2.663   6.675  15.759 -0.1040 -0.0805  0.0530
 3991TIP3    H133388   2.672   6.581  15.746 -0.6971 -0.0302 -0.8854
 3991TIP3    H233389   2.704   6.692  15.843 -0.2735 -1.2252  0.3877
 3992TIP3   OH233390   3.414   2.706   1.924 -0.4171  0.2447  0.1537
 3992TIP3    H133391   3.462   2.772   1.974 -1.4316  0.2454  1.1673
 3992TIP3    H233392   3.346   2.676   1.983 -1.0179 -0.5125 -0.8854
 3993TIP3   OH233393   0.102   0.701  12.646  0.2375  0.3547 -0.1117
 3993TIP3    H133394   0.083   0.663  12.732  1.9300 -1.4641 -0.4685
 3993TIP3    H233395   0.101   0.795  12.661 -0.8367  0.1246  1.5869
 3994TIP3   OH233396   0.027   6.252  13.882  0.3155  0.1189 -0.1656
 3994TIP3    H133397  -0.065   6.257  13.857  0.1836 -0.7738  0.1009
 3994TIP3    H233398   0.067   6.198  13.813  0.1800 -1.3710  0.8747
 3995TIP3   OH233399   4.006   1.547   1.036  0.3544 -0.4930 -0.3023
 3995TIP3    H133400   4.012   1.497   0.955  0.6308 -1.7024  0.4530
 3995TIP3    H233401   3.932   1.508   1.083  2.9606 -2.9895  2.1022
 3996TIP3   OH233402   0.407   4.995  12.688 -0.0334 -0.1799 -0.4634
 3996TIP3    H133403   0.320   5.020  12.659  0.0120  1.4334  0.6475
 3996TIP3    H233404   0.391   4.928  12.756 -0.5653  1.4879  1.1323
 3997TIP3   OH233405   0.192   6.034  13.032  0.3413  0.1913 -0.2849
 3997TIP3    H133406   0.235   6.012  12.949  2.1015 -0.9334  0.8703
 3997TIP3    H233407   0.121   5.970  13.039 -0.3524  0.8173 -1.2842
 3998TIP3   OH233408   1.652   6.473   5.627  0.3514 -0.2371  0.4098
 3998TIP3    H133409   1.606   6.550   5.593 -0.6318 -0.2762  1.5517
 3998TIP3    H233410   1.588   6.402   5.621  0.7059 -0.5965  0.8181
 3999TIP3   OH233411   2.253   2.395  13.565  0.7566  0.3276 -0.0420
 3999TIP3    H133412   2.169   2.360  13.593 -0.7367  0.9333 -3.2862
 3999TIP3    H233413   2.253   2.384  13.470  4.3655  0.3988 -0.1804
 4000TIP3   OH233414   5.517   2.728  10.641 -0.8788  0.1766 -0.2361
 4000TIP3    H133415   5.553   2.816  10.641 -0.4126 -0.0137 -0.6301
 4000TIP3    H233416   5.552   2.687  10.562 -0.1145 -0.7477  0.5550
 4001TIP3   OH233417   6.115   2.801  14.424 -0.3683  0.1379 -0.1074
 4001TIP3    H133418   6.021   2.807  14.438 -0.0684 -0.6042  3.2687
 4001TIP3    H233419   6.152   2.873  14.476  0.9752 -0.5431 -0.0596
 4002TIP3   OH233420   3.743   5.612   5.224 -0.5595  0.1963  0.5630
 4002TIP3    H133421   3.669   5.673   5.214  1.0420  2.0252 -0.7902
 4002TIP3    H233422   3.737   5.556   5.146 -1.4556 -0.8083  1.3152
 4003TIP3   OH233423   0.294   0.514   2.713  0.2637  0.7650 -0.0580
 4003TIP3    H133424   0.290   0.419   2.723 -0.0651  0.8966  1.2020
 4003TIP3    H233425   0.372   0.529   2.659 -0.0742 -0.2463 -0.8658
 4004TIP3   OH233426   3.734   1.158  13.352  0.4309 -0.0920 -0.0845
 4004TIP3    H133427   3.740   1.079  13.298  0.4081 -0.4320  0.4103
 4004TIP3    H233428   3.806   1.151  13.414  0.9426  0.6847 -0.5688
 4005TIP3   OH233429   4.804   3.502  13.826  0.0301  0.4760  0.1232
 4005TIP3    H133430   4.719   3.528  13.789  1.3041  0.7025 -2.9935
 4005TIP3    H233431   4.823   3.569  13.891 -1.9112  0.7364  0.4932
 4006TIP3   OH233432   6.031   2.325  11.319 -0.4627  0.2386  0.3128
 4006TIP3    H133433   6.011   2.232  11.312  2.2460 -0.3183 -1.5677
 4006TIP3    H233434   5.969   2.368  11.260  0.0583 -0.7224 -0.9623
 4007TIP3   OH233435   0.296   3.010   1.072  0.6185  0.0214  0.2529
 4007TIP3    H133436   0.302   2.924   1.115 -0.0498  0.3871  1.1197
 4007TIP3    H233437   0.284   3.071   1.144 -0.0436  0.7171 -0.4308
 4008TIP3   OH233438   0.927   1.429  16.030  0.2451 -0.0721 -0.6155
 4008TIP3    H133439   0.984   1.353  16.020 -1.4128 -1.3865 -0.6519
 4008TIP3    H233440   0.926   1.470  15.944  0.3932 -0.5932 -0.8709
 4009TIP3   OH233441   0.637   1.127  14.481 -0.3706 -0.6682 -0.2814
 4009TIP3    H133442   0.622   1.215  14.445 -0.4625  0.3990  2.1911
 4009TIP3    H233443   0.619   1.136  14.575  0.1449 -3.2194  0.1260
 4010TIP3   OH233444   1.696   1.778  13.253  0.2267  0.4684 -0.0920
 4010TIP3    H133445   1.638   1.787  13.329 -0.2319  1.8737 -0.5881
 4010TIP3    H233446   1.741   1.695  13.268  1.1586  1.3251  2.4251
 4011TIP3   OH233447   2.079   3.689  11.755  0.0723  0.3061  0.0681
 4011TIP3    H133448   2.030   3.722  11.831 -1.4367 -0.3215 -0.5931
 4011TIP3    H233449   2.156   3.647  11.793 -1.2843 -1.1130  1.3772
 4012TIP3   OH233450   1.067   6.529   2.227  0.0546 -0.2455 -0.6883
 4012TIP3    H133451   0.980   6.513   2.193 -0.3373  0.3034  0.0169
 4012TIP3    H233452   1.126   6.488   2.164 -0.6814 -0.1268 -1.4697
 4013TIP3   OH233453   4.017   1.629   6.400 -0.0658 -0.6983  0.0458
 4013TIP3    H133454   4.055   1.674   6.324  0.0953 -1.1719 -0.1574
 4013TIP3    H233455   4.002   1.539   6.369 -0.4321 -0.7689  0.4317
 4014TIP3   OH233456   1.185   4.894   5.860 -0.2153  0.0146 -0.3881
 4014TIP3    H133457   1.150   4.972   5.817 -0.3316  1.2695  1.8107
 4014TIP3    H233458   1.245   4.928   5.926 -0.8093 -1.6972  1.1206
 4015TIP3   OH233459   4.006   4.149   3.066  0.0459 -0.5743  0.5978
 4015TIP3    H133460   4.022   4.054   3.068 -1.4125 -0.9026 -0.7490
 4015TIP3    H233461   3.917   4.159   3.101 -0.5214  0.0698 -0.9498
 4016TIP3   OH233462   2.691   4.508   1.127  0.2525 -0.0863  0.1656
 4016TIP3    H133463   2.673   4.553   1.045  3.7971  0.2927 -0.5661
 4016TIP3    H233464   2.608   4.510   1.174 -1.0209  2.8061 -1.8960
 4017TIP3   OH233465   0.001   4.249  12.613 -0.2867  0.2087  0.2334
 4017TIP3    H133466  -0.041   4.302  12.680  0.8680  0.4160  0.8160
 4017TIP3    H233467   0.095   4.267  12.623  0.1252 -1.7613  0.2941
 4018TIP3   OH233468   0.114   2.804   5.757 -1.3089  0.1491  0.0042
 4018TIP3    H133469   0.130   2.791   5.663 -0.4016  0.5299  0.0970
 4018TIP3    H233470   0.068   2.724   5.784  2.3718 -2.1900  0.1474
 4019TIP3   OH233471   4.972   3.558   4.097  0.5746  0.0126 -0.0822
 4019TIP3    H133472   4.973   3.572   4.002  1.0394 -0.6629 -0.1831
 4019TIP3    H233473   4.966   3.646   4.134 -1.9991  0.2103 -0.7572
 4020TIP3   OH233474   6.304   4.239   4.071  0.3901  0.4647  0.3184
 4020TIP3    H133475   6.366   4.166   4.070 -1.5484 -1.3279 -2.7144
 4020TIP3    H233476   6.333   4.296   4.000 -1.0579 -0.1485 -0.8137
 4021TIP3   OH233477   4.728   4.859   6.011  0.0433  0.2120  0.2731
 4021TIP3    H133478   4.780   4.817   5.943 -1.0075 -0.2331 -0.2896
 4021TIP3    H233479   4.763   4.948   6.017 -1.6606  1.2617 -2.9550
 4022TIP3   OH233480   0.555   4.195   4.816  0.6368 -0.4804  0.5251
 4022TIP3    H133481   0.536   4.288   4.810  2.9969 -0.0543 -1.7370
 4022TIP3    H233482   0.507   4.155   4.743  1.5413 -0.6447  0.0052
 4023TIP3   OH233483   5.242   0.265  11.603  0.3910 -0.1220 -0.5681
 4023TIP3    H133484   5.268   0.193  11.545  2.0578  1.5079 -2.0417
 4023TIP3    H233485   5.187   0.321  11.548  0.4272  0.5125  0.0266
 4024TIP3   OH233486   4.698   6.689  13.756  0.8776  0.4538  0.2754
 4024TIP3    H133487   4.700   6.739  13.675  1.3608 -0.7225 -0.4517
 4024TIP3    H233488   4.685   6.755  13.824  1.1142  1.5200 -0.6881
 4025TIP3   OH233489   1.805   4.557   2.185  0.3152 -0.2583  0.0350
 4025TIP3    H133490   1.852   4.504   2.249  0.7581  0.0533 -0.0235
 4025TIP3    H233491   1.757   4.494   2.132  1.0165 -0.6247 -0.1811
 4026TIP3   OH233492   6.103   4.749  16.622  0.0943  0.4101  0.5559
 4026TIP3    H133493   6.064   4.750  16.709  1.3123 -2.4602  1.2443
 4026TIP3    H233494   6.032   4.723  16.564 -0.4527  1.2629  0.8238
 4027TIP3   OH233495   1.113   1.186  17.342 -0.0220 -0.0981 -0.3326
 4027TIP3    H133496   1.208   1.174  17.347  0.2131  1.5970 -0.1087
 4027TIP3    H233497   1.098   1.219  17.253 -0.4653 -0.8016 -0.5226
 4028TIP3   OH233498   0.954   4.277  15.967  0.0968  0.7583 -0.1928
 4028TIP3    H133499   1.015   4.220  15.921 -1.9460 -0.0822 -2.0463
 4028TIP3    H233500   0.948   4.240  16.055  2.0635  0.7623 -0.0236
 4029TIP3   OH233501   0.118   2.640   4.678 -0.4978  0.1162 -0.0956
 4029TIP3    H133502   0.059   2.587   4.624 -0.0441  1.4071 -1.9733
 4029TIP3    H233503   0.200   2.589   4.680 -0.4456  0.1523 -0.8562
 4030TIP3   OH233504   5.095   1.118  15.091  0.3710  0.1817 -0.2044
 4030TIP3    H133505   5.115   1.200  15.137  0.7917  1.0821 -1.9117
 4030TIP3    H233506   5.181   1.081  15.070  0.1797 -0.2881 -0.1645
 4031TIP3   OH233507   0.231   5.259   4.193  1.0732 -0.2757  0.9277
 4031TIP3    H133508   0.290   5.334   4.182  1.2590 -0.5217  0.2262
 4031TIP3    H233509   0.287   5.191   4.231  0.5012  0.4804  3.3438
 4032TIP3   OH233510   1.676   3.998  16.400 -0.0538  0.1374  0.1422
 4032TIP3    H133511   1.612   4.069  16.402  0.1431  0.3092  0.3749
 4032TIP3    H233512   1.659   3.948  16.480 -0.5681 -0.4143 -0.3016
 4033TIP3   OH233513   3.714   4.597   3.498  0.2065  0.4518 -0.8638
 4033TIP3    H133514   3.779   4.638   3.442  0.0105  0.8322 -0.8107
 4033TIP3    H233515   3.733   4.631   3.586 -0.3943  0.9678 -0.9319
 4034TIP3   OH233516   1.092   1.727  14.520 -0.1655  0.5829  0.5080
 4034TIP3    H133517   1.006   1.685  14.510 -0.4836  0.8357  1.9797
 4034TIP3    H233518   1.147   1.659  14.559 -0.1606  0.9253  1.1119
 4035TIP3   OH233519   4.579   5.415  12.812  0.4487  0.3125 -0.3488
 4035TIP3    H133520   4.554   5.323  12.800 -0.8628  0.2577  2.2112
 4035TIP3    H233521   4.670   5.411  12.841  0.2405 -0.2370  0.2541
 4036TIP3   OH233522   1.350   6.693  14.706  0.1070 -0.1200 -0.1448
 4036TIP3    H133523   1.411   6.667  14.637 -1.4822 -1.0310 -1.2816
 4036TIP3    H233524   1.395   6.763  14.752  1.6073 -0.0901 -1.5393
 4037TIP3   OH233525   0.860   4.450   0.096  0.0662 -0.1382  0.1072
 4037TIP3    H133526   0.842   4.469   0.004  2.0486 -0.2251 -0.3354
 4037TIP3    H233527   0.912   4.370   0.094 -1.4785 -1.2256  1.4534
 4038TIP3   OH233528   2.355   3.403   6.268  0.9723  0.1643 -0.3986
 4038TIP3    H133529   2.333   3.447   6.350  2.2411  0.2488 -0.0950
 4038TIP3    H233530   2.432   3.350   6.288  1.8724  0.8996 -1.7364
 4039TIP3   OH233531   4.854   5.442  15.693 -0.3312  0.1341 -0.2855
 4039TIP3    H133532   4.762   5.424  15.713  0.1462 -0.8708  1.1377
 4039TIP3    H233533   4.899   5.360  15.711  1.2150  1.2833  1.5281
 4040TIP3   OH233534   2.109   0.460  13.114  0.2140 -0.0679  0.2685
 4040TIP3    H133535   2.035   0.480  13.056  0.2501 -2.5166 -0.7538
 4040TIP3    H233536   2.178   0.520  13.087 -1.0625  1.5897  0.5768
 4041TIP3   OH233537   0.099   6.651  11.688  0.1057  0.4972 -0.3538
 4041TIP3    H133538   0.143   6.707  11.753 -1.0470  0.6024  0.3638
 4041TIP3    H233539   0.071   6.711  11.620  0.5815  0.5019 -0.5537
 4042TIP3   OH233540   4.139   2.997  11.424  0.3785 -0.0757  0.2937
 4042TIP3    H133541   4.179   3.018  11.339  0.4254  1.7849  0.7224
 4042TIP3    H233542   4.073   2.931  11.404 -0.3099  1.0526 -1.3947
 4043TIP3   OH233543   6.259   2.454   3.601  0.3163  0.4558  0.0513
 4043TIP3    H133544   6.200   2.382   3.622  1.7141 -0.7467  0.0535
 4043TIP3    H233545   6.289   2.435   3.512  1.0989  0.7354  0.2435
 4044TIP3   OH233546   3.365   1.968  15.501 -0.1791 -0.3416  0.1698
 4044TIP3    H133547   3.459   1.971  15.485 -0.1668  1.8991  0.3442
 4044TIP3    H233548   3.330   2.043  15.452 -1.5911  0.0992  1.7579
 4045TIP3   OH233549   0.806   4.338  11.415 -0.3088 -0.6334  0.0744
 4045TIP3    H133550   0.734   4.288  11.376 -0.8837  0.3780 -0.1888
 4045TIP3    H233551   0.872   4.343  11.347 -0.3598 -0.8042  0.0113
 4046TIP3   OH233552   4.245   1.655   0.984  0.1008  0.2278 -0.5109
 4046TIP3    H133553   4.170   1.624   1.034  0.0671  0.4860 -0.3982
 4046TIP3    H233554   4.240   1.608   0.901 -0.1117  0.1476 -0.4537
 4047TIP3   OH233555   2.768   1.626   0.681  0.1724  0.0688  0.3102
 4047TIP3    H133556   2.834   1.582   0.628  0.7641  2.8829 -1.5090
 4047TIP3    H233557   2.698   1.647   0.619 -0.6342  0.5917  1.3597
 4048TIP3   OH233558   0.627   4.299   2.002 -0.0277  0.8808 -0.0078
 4048TIP3    H133559   0.692   4.304   2.072  0.7581  1.4638 -0.7498
 4048TIP3    H233560   0.669   4.344   1.928 -0.5409 -0.3182 -1.0624
 4049TIP3   OH233561   3.112   0.113  14.711 -0.4894  0.4830 -0.3816
 4049TIP3    H133562   3.195   0.149  14.679 -1.2233  1.7753 -0.9237
 4049TIP3    H233563   3.133   0.024  14.738  0.9952  0.6667 -0.8439
 4050TIP3   OH233564   5.573   3.841   1.172  0.1286 -0.8223  0.1292
 4050TIP3    H133565   5.480   3.839   1.196  0.0363  2.4112  0.4521
 4050TIP3    H233566   5.617   3.789   1.240 -1.2383 -0.6677  1.1671
 4051TIP3   OH233567   5.327   3.699  14.911 -0.1458 -0.3826 -0.2835
 4051TIP3    H133568   5.391   3.733  14.848 -0.5044 -0.9315 -0.9580
 4051TIP3    H233569   5.370   3.708  14.996  0.2170  0.6659 -0.5701
 4052TIP3   OH233570   4.066   4.934   1.339 -0.2846  0.7354  0.3877
 4052TIP3    H133571   3.998   4.878   1.375 -0.2453 -0.1895 -0.8902
 4052TIP3    H233572   4.114   4.966   1.415  0.3918 -1.8457  1.1357
 4053TIP3   OH233573   6.042   3.247   4.030  0.0652 -0.3760  0.0569
 4053TIP3    H133574   6.120   3.283   3.987 -0.6915  0.9892 -0.2437
 4053TIP3    H233575   5.990   3.212   3.958  0.8852 -2.3370  0.3679
 4054TIP3   OH233576   3.191   5.159   3.975 -0.1584  1.6737 -0.2853
 4054TIP3    H133577   3.230   5.072   3.983 -2.3203  0.3456 -2.6255
 4054TIP3    H233578   3.135   5.168   4.052 -0.9030  0.3786 -0.6459
 4055TIP3   OH233579   3.477   4.538   5.131 -0.3784 -0.7657 -0.0302
 4055TIP3    H133580   3.537   4.610   5.111 -1.2874 -0.2378 -0.9310
 4055TIP3    H233581   3.391   4.579   5.135 -0.7839 -1.6457  0.4620
 4056TIP3   OH233582   6.221   6.569  11.819  0.5022 -0.1423  0.3314
 4056TIP3    H133583   6.259   6.589  11.905  0.8678 -0.4449  0.2418
 4056TIP3    H233584   6.142   6.623  11.815  1.6635  1.5904 -0.0584
 4057TIP3   OH233585   1.068   2.006   5.630  0.0673 -0.1237  0.1951
 4057TIP3    H133586   1.111   2.028   5.713 -0.3334  0.8974  0.1509
 4057TIP3    H233587   1.013   1.930   5.652  0.2755 -0.1172  0.7706
 4058TIP3   OH233588   2.367   3.792   4.257 -0.4220  0.2178  0.1226
 4058TIP3    H133589   2.324   3.780   4.341 -1.8999 -0.0136 -0.6288
 4058TIP3    H233590   2.335   3.878   4.227 -2.9938 -1.2908 -1.8630
 4059TIP3   OH233591   2.965   5.980   3.719  0.0735  0.1571 -0.4207
 4059TIP3    H133592   3.016   5.928   3.781 -0.1356  1.1297  0.5921
 4059TIP3    H233593   2.882   5.934   3.711 -0.6020  0.9511  1.4518
 4060TIP3   OH233594   6.509   6.199  14.860  0.5269 -0.5614 -0.0364
 4060TIP3    H133595   6.514   6.114  14.903  0.0510 -0.2489  0.6512
 4060TIP3    H233596   6.438   6.190  14.797  1.5697 -1.1872 -1.1678
 4061TIP3   OH233597   3.638   3.359   3.708  0.2129 -0.1534 -0.0150
 4061TIP3    H133598   3.640   3.269   3.676  1.5840 -0.2616  0.3230
 4061TIP3    H233599   3.576   3.358   3.781 -0.1590 -0.7025 -0.3332
 4062TIP3   OH233600   4.895   6.231   5.081  0.0156 -0.2734  0.1119
 4062TIP3    H133601   4.864   6.318   5.108 -0.6237 -0.8074  1.2048
 4062TIP3    H233602   4.870   6.224   4.989 -1.0438  0.2414  0.3387
 4063TIP3   OH233603   3.400   1.145   0.343  0.2292 -0.2445  0.5492
 4063TIP3    H133604   3.424   1.221   0.396 -0.4431 -0.6894  1.5201
 4063TIP3    H233605   3.305   1.148   0.337  0.1869 -1.0376  0.6629
 4064TIP3   OH233606   2.886   4.786   4.220 -0.0012  0.1068  0.7891
 4064TIP3    H133607   2.806   4.734   4.208 -0.3659  0.9658 -0.8984
 4064TIP3    H233608   2.957   4.722   4.218 -0.4196 -0.4030 -1.4665
 4065TIP3   OH233609   5.917   6.591  11.769  0.0062  0.4411 -0.6484
 4065TIP3    H133610   5.876   6.519  11.817 -0.2461  0.7167 -0.4398
 4065TIP3    H233611   5.847   6.626  11.714  0.6823 -0.8427 -2.3990
 4066TIP3   OH233612   4.546   0.878   2.243 -0.5230  0.4165 -0.2138
 4066TIP3    H133613   4.497   0.844   2.319 -0.2507  1.0063  0.2264
 4066TIP3    H233614   4.568   0.799   2.193  0.0922 -0.0801  0.7905
 4067TIP3   OH233615   4.403   3.494  12.205  0.1877  0.0316  0.1038
 4067TIP3    H133616   4.315   3.499  12.169  0.1468  1.0361  0.3277
 4067TIP3    H233617   4.459   3.533  12.138  0.5123 -0.8178 -0.1427
 4068TIP3   OH233618   4.286   5.909   2.846 -0.2448 -0.0097  0.0669
 4068TIP3    H133619   4.213   5.894   2.786 -1.0744  0.9021  0.8228
 4068TIP3    H233620   4.245   5.937   2.928  0.8977 -0.6918  0.9066
 4069TIP3   OH233621   6.401   4.034   0.328  0.0060 -0.7010 -0.3449
 4069TIP3    H133622   6.377   4.126   0.316  3.0749  0.2649  0.0440
 4069TIP3    H233623   6.332   3.985   0.284 -1.0016  1.8243 -1.7826
 4070TIP3   OH233624   3.818   6.265   0.933  0.0208 -0.1663  0.3612
 4070TIP3    H133625   3.808   6.359   0.946  1.1816 -0.1500  1.3053
 4070TIP3    H233626   3.913   6.250   0.933 -0.1269 -1.2804 -0.2615
 4071TIP3   OH233627   4.493   4.064  11.361 -0.0119 -0.0172 -0.1158
 4071TIP3    H133628   4.404   4.029  11.367 -0.7814  1.5488 -1.5368
 4071TIP3    H233629   4.531   4.019  11.285 -0.0161  0.1534 -0.2202
 4072TIP3   OH233630   5.773   3.350   2.182  0.2510 -0.1425 -0.1366
 4072TIP3    H133631   5.712   3.382   2.248 -0.5834 -0.7291 -0.6046
 4072TIP3    H233632   5.847   3.316   2.233  0.2580  0.7044  0.4285
 4073TIP3   OH233633   0.483   3.463   0.372  0.2193 -0.0637 -0.0396
 4073TIP3    H133634   0.419   3.462   0.300  0.2244 -0.4241 -0.0404
 4073TIP3    H233635   0.478   3.375   0.409 -0.0550  0.2330  0.6424
 4074TIP3   OH233636   0.431   1.514   3.662 -0.0124  0.0768 -0.7529
 4074TIP3    H133637   0.411   1.530   3.570 -1.0892  1.1284 -0.3551
 4074TIP3    H233638   0.346   1.519   3.707  0.6461  0.8265  0.4664
 4075TIP3   OH233639   6.084   2.549  13.138 -0.2228 -0.0286 -0.2873
 4075TIP3    H133640   6.121   2.543  13.226  2.2823  1.9070 -1.1060
 4075TIP3    H233641   6.004   2.600  13.149  0.0076  0.1111  0.8869
 4076TIP3   OH233642   4.824   6.335   3.369 -0.5393 -0.0827  0.1608
 4076TIP3    H133643   4.911   6.374   3.357  1.2273 -2.7975  2.9054
 4076TIP3    H233644   4.794   6.369   3.453 -0.2799 -2.1301  1.1395
 4077TIP3   OH233645   5.785   6.049   1.415 -0.0062  0.4341  0.0491
 4077TIP3    H133646   5.823   6.104   1.482  1.4097 -0.8424  0.3483
 4077TIP3    H233647   5.745   5.976   1.463 -1.4856  0.9419 -0.3556
 4078TIP3   OH233648   2.475   1.299   3.385  0.2431 -0.5119 -0.1966
 4078TIP3    H133649   2.473   1.388   3.350 -0.6522 -0.0946  0.8386
 4078TIP3    H233650   2.476   1.243   3.308 -0.8353  0.3820 -0.8996
 4079TIP3   OH233651   0.036   6.612  14.036 -0.1789 -0.1404 -0.2333
 4079TIP3    H133652  -0.010   6.616  13.952  0.7261 -1.5615 -0.8336
 4079TIP3    H233653  -0.025   6.651  14.098 -1.1280  0.3746 -1.4343
 4080TIP3   OH233654   1.500   5.364   4.733  0.5958  0.1019  0.0761
 4080TIP3    H133655   1.475   5.346   4.824  0.8926  1.9568  0.5794
 4080TIP3    H233656   1.419   5.389   4.691  0.9318  2.7558  0.8197
 4081TIP3   OH233657   2.295   0.135  12.020  0.5443  0.4935 -0.0648
 4081TIP3    H133658   2.375   0.185  12.033  0.5289  0.4943  0.0285
 4081TIP3    H233659   2.250   0.138  12.105  0.7416 -0.0207  0.0626
 4082TIP3   OH233660   5.857   0.778  13.412 -0.3317  0.2056 -0.5949
 4082TIP3    H133661   5.926   0.843  13.397  0.2427 -0.3358 -0.3412
 4082TIP3    H233662   5.799   0.786  13.336  0.1758  0.4574 -0.9620
 4083TIP3   OH233663   4.931   2.979   0.893  0.2148  0.0560 -0.8289
 4083TIP3    H133664   4.944   2.885   0.902  0.1920  0.0326 -1.0415
 4083TIP3    H233665   4.901   2.991   0.803 -0.6429  0.1738 -0.5310
 4084TIP3   OH233666   5.601   5.919   6.776  0.0700  0.1686  0.2081
 4084TIP3    H133667   5.545   5.914   6.699 -0.3847 -0.9354  0.5775
 4084TIP3    H233668   5.622   5.827   6.795 -1.9831  0.1349  2.9310
 4085TIP3   OH233669   0.803   1.443  13.798 -0.6001  0.3702  0.0828
 4085TIP3    H133670   0.864   1.497  13.848  0.2295  0.7629 -1.2933
 4085TIP3    H233671   0.717   1.478  13.818 -0.1057  1.9249 -0.4208
 4086TIP3   OH233672   3.991   0.635   2.246 -0.0947  1.0877 -0.4718
 4086TIP3    H133673   3.983   0.640   2.342  1.0409 -0.5305 -0.2493
 4086TIP3    H233674   3.910   0.592   2.218  1.4512 -2.8699  0.3604
 4087TIP3   OH233675   2.738   1.482   5.758 -0.0051  0.3798  0.2497
 4087TIP3    H133676   2.806   1.415   5.767 -0.9869 -0.5717  0.7517
 4087TIP3    H233677   2.751   1.516   5.669  0.0298 -1.0497 -0.3325
 4088TIP3   OH233678   3.443   1.200   3.305 -0.1862  0.1276 -0.0675
 4088TIP3    H133679   3.527   1.203   3.259  0.2244 -0.2693  0.6384
 4088TIP3    H233680   3.378   1.212   3.236  0.3863 -1.2104 -0.8771
 4089TIP3   OH233681   3.585   1.220  12.582  0.1689  0.0229  0.1811
 4089TIP3    H133682   3.530   1.295  12.560  1.3707  0.2380 -2.6033
 4089TIP3    H233683   3.560   1.153  12.518  2.5829 -0.0833 -0.7623
 4090TIP3   OH233684   1.925   5.821   1.260 -0.1847 -0.2484  0.3493
 4090TIP3    H133685   1.911   5.854   1.171 -0.1203 -0.5733  0.2194
 4090TIP3    H233686   1.962   5.734   1.249  0.1203 -0.1665  0.6974
 4091TIP3   OH233687   0.145   6.012   5.689  0.0021 -0.5788 -0.1829
 4091TIP3    H133688   0.211   6.072   5.723 -0.5814 -1.5218  2.8781
 4091TIP3    H233689   0.155   6.017   5.594  1.8080  2.2241  0.0509
 4092TIP3   OH233690   5.795   2.625   1.531 -0.7008 -0.3897 -0.2817
 4092TIP3    H133691   5.803   2.689   1.602 -2.4893  0.8967 -1.1519
 4092TIP3    H233692   5.819   2.674   1.452  1.1153 -1.7496 -0.6394
 4093TIP3   OH233693   3.781   3.288  17.527  0.5789 -0.5166 -0.4058
 4093TIP3    H133694   3.871   3.266  17.547  1.3697  2.0758 -0.6658
 4093TIP3    H233695   3.755   3.349  17.597 -0.7024 -0.6161 -0.7653
 4094TIP3   OH233696   6.437   3.386   3.325  0.8591 -0.1517  0.1143
 4094TIP3    H133697   6.347   3.365   3.353  0.9558 -0.7767 -0.0355
 4094TIP3    H233698   6.486   3.394   3.407  0.6613  0.2112  0.1973
 4095TIP3   OH233699   6.641   5.300   3.485  0.1834 -0.3344 -0.4592
 4095TIP3    H133700   6.685   5.325   3.404  0.9376  0.3981  0.1559
 4095TIP3    H233701   6.713   5.284   3.547 -0.2098 -3.7851 -0.6985
 4096TIP3   OH233702   0.582   4.627   3.241 -0.1086  0.4122 -0.1561
 4096TIP3    H133703   0.605   4.557   3.303  1.7969  0.1937 -1.0677
 4096TIP3    H233704   0.486   4.628   3.243 -0.1468 -0.7372  1.5068
 4097TIP3   OH233705   3.636   6.340   2.115 -0.0885  0.4870 -0.0739
 4097TIP3    H133706   3.685   6.384   2.185 -0.7609  0.0195  0.7005
 4097TIP3    H233707   3.651   6.394   2.038  0.0513  1.4318  0.6022
 4098TIP3   OH233708   3.138   5.615   5.156  0.2088 -0.2770  0.3737
 4098TIP3    H133709   3.173   5.571   5.234  0.0085 -0.8759  0.1356
 4098TIP3    H233710   3.043   5.610   5.166  0.1645 -1.2791 -0.3950
 4099TIP3   OH233711   1.676   3.422  16.706 -0.3107 -0.4146 -0.4188
 4099TIP3    H133712   1.635   3.365  16.772 -1.9107  1.3670  0.2126
 4099TIP3    H233713   1.738   3.475  16.756 -0.8574  0.2953 -0.4717
 4100TIP3   OH233714   1.641   1.135  15.131 -0.3423  0.5048  0.2265
 4100TIP3    H133715   1.679   1.170  15.211 -0.6613  2.4693 -0.4148
 4100TIP3    H233716   1.716   1.110  15.078 -0.0879  0.3470  0.6597
 4101TIP3   OH233717   5.097   0.475  15.997 -0.6196  0.4265  0.2598
 4101TIP3    H133718   5.099   0.570  15.987  1.7718  0.4333  0.3147
 4101TIP3    H233719   5.169   0.455  16.057 -0.9984 -1.4470  0.1770
 4102TIP3   OH233720   3.580   0.171   0.095 -0.0266 -0.5279  0.2563
 4102TIP3    H133721   3.547   0.253   0.057  0.8071 -0.9084 -1.3966
 4102TIP3    H233722   3.674   0.172   0.077  0.4694 -0.6744  2.5656
 4103TIP3   OH233723   0.967   3.189   2.264 -0.3879 -0.1320 -0.1524
 4103TIP3    H133724   0.935   3.279   2.262 -1.7886 -0.5573  0.9115
 4103TIP3    H233725   0.889   3.136   2.247  0.0336 -1.1861  0.9962
 4104TIP3   OH233726   6.503   4.627  16.497  0.2513  0.4802  0.3774
 4104TIP3    H133727   6.525   4.566  16.567  0.3589  1.5532  1.3049
 4104TIP3    H233728   6.470   4.704  16.542  0.7706  1.3776 -0.7328
 4105TIP3   OH233729   5.268   1.862  12.332 -0.4873  0.2668 -0.3365
 4105TIP3    H133730   5.243   1.807  12.258  0.5543 -0.6222 -0.0697
 4105TIP3    H233731   5.312   1.937  12.293 -1.5387  0.7009 -0.6922
 4106TIP3   OH233732   3.513   2.367   4.915  0.1469 -0.4186  0.0706
 4106TIP3    H133733   3.481   2.277   4.906 -1.8667  0.1715  0.8050
 4106TIP3    H233734   3.496   2.390   5.007  0.9585  0.5940 -0.0119
 4107TIP3   OH233735   1.844   0.084   5.586  0.3183 -0.0827  0.2362
 4107TIP3    H133736   1.868   0.041   5.668  0.8715  0.5875  0.4354
 4107TIP3    H233737   1.904   0.047   5.521  1.8430  1.4561  0.6975
 4108TIP3   OH233738   1.561   0.258   0.713  0.5378  0.2677  0.5483
 4108TIP3    H133739   1.546   0.275   0.620 -2.8291  0.4118  0.9626
 4108TIP3    H233740   1.601   0.338   0.746 -0.1225  1.0424 -0.4546
 4109TIP3   OH233741   3.882   6.476  17.329  0.9350  0.4578  0.2441
 4109TIP3    H133742   3.817   6.501  17.263  1.7903  0.3356 -0.6782
 4109TIP3    H233743   3.897   6.556  17.379  0.4493  0.6162  0.1447
 4110TIP3   OH233744   6.111   0.285   4.299  0.4220 -0.0556  0.1336
 4110TIP3    H133745   6.167   0.215   4.266 -0.7084 -1.9987  2.0418
 4110TIP3    H233746   6.023   0.264   4.266  0.0105  0.2558  0.9859
 4111TIP3   OH233747   0.460   5.525  14.593  0.2207 -0.1923  0.6662
 4111TIP3    H133748   0.404   5.587  14.546  0.9838 -0.8394 -1.1796
 4111TIP3    H233749   0.399   5.468  14.639 -0.6712 -0.8333 -1.2307
 4112TIP3   OH233750   0.578   4.675  17.124  0.2480  0.6453  0.2773
 4112TIP3    H133751   0.614   4.759  17.151 -0.9895  1.4518 -0.4917
 4112TIP3    H233752   0.640   4.642  17.059  0.4481  1.2378  0.1632
 4113TIP3   OH233753   1.604   0.610   4.766 -0.3032  0.4786  0.2961
 4113TIP3    H133754   1.528   0.584   4.713 -0.3983 -0.4071  0.8621
 4113TIP3    H233755   1.661   0.533   4.766  1.0914  1.4535 -0.9589
 4114TIP3   OH233756   4.765   6.004   4.197  0.1436 -0.9432  0.0669
 4114TIP3    H133757   4.790   6.012   4.289 -0.4689  0.0669  0.1624
 4114TIP3    H233758   4.846   5.984   4.151  0.8853  0.8047  0.5446
 4115TIP3   OH233759   1.284   5.322   0.533 -0.2614 -0.3687  0.4073
 4115TIP3    H133760   1.339   5.266   0.588 -0.0303 -0.2727  0.2763
 4115TIP3    H233761   1.238   5.261   0.475  0.5978 -0.3795 -0.2866
 4116TIP3   OH233762   6.582   0.058  14.185  0.3786  0.3119 -0.0477
 4116TIP3    H133763   6.622   0.088  14.267  1.7526  0.8721 -0.8803
 4116TIP3    H233764   6.489   0.050  14.205  0.3404  2.5794  0.9606
 4117TIP3   OH233765   0.177   6.380  15.634  0.6929  0.1042 -0.5345
 4117TIP3    H133766   0.092   6.421  15.650 -0.2263 -1.3102 -1.5668
 4117TIP3    H233767   0.232   6.451  15.600 -0.8620  0.5364 -2.3296
 4118TIP3   OH233768   1.192   0.341   4.608  0.0685 -0.5573  0.1976
 4118TIP3    H133769   1.144   0.263   4.636  1.3273 -1.6145 -0.4887
 4118TIP3    H233770   1.149   0.367   4.527  0.4925 -1.3708 -0.3030
 4119TIP3   OH233771   3.889   5.002   4.812 -0.5787 -0.2441 -0.0871
 4119TIP3    H133772   3.894   5.096   4.791  0.3055 -0.0182  1.0293
 4119TIP3    H233773   3.833   4.965   4.743 -0.8449  1.0778 -0.6153
 4120TIP3   OH233774   6.568   5.008  14.161  0.3490  0.2605 -0.6094
 4120TIP3    H133775   6.654   5.048  14.172  0.8437 -1.0423  0.5779
 4120TIP3    H233776   6.522   5.027  14.242  0.3367 -0.9105 -0.3235
 4121TIP3   OH233777   3.038   1.559   6.080  0.0325 -0.1248  0.3205
 4121TIP3    H133778   3.024   1.565   6.175  3.0592  1.6410  0.7666
 4121TIP3    H233779   2.999   1.639   6.045 -1.5386 -1.0096 -0.0999
 4122TIP3   OH233780   0.702   6.607   1.214 -0.3332 -0.0233  0.0994
 4122TIP3    H133781   0.791   6.643   1.211 -0.2091 -0.3555 -0.1980
 4122TIP3    H233782   0.693   6.558   1.132 -0.4785 -0.7290  0.5317
 4123TIP3   OH233783   5.280   3.841  12.574 -0.0964  0.7774  0.0618
 4123TIP3    H133784   5.275   3.898  12.498 -1.7360 -0.2507 -0.6559
 4123TIP3    H233785   5.190   3.813  12.589  0.5210 -0.8753  0.9552
 4124TIP3   OH233786   1.680   4.443   2.754 -0.0251 -0.0192 -0.5689
 4124TIP3    H133787   1.706   4.517   2.809 -1.9320  0.5771 -0.3895
 4124TIP3    H233788   1.699   4.473   2.665 -0.0772  0.3742 -0.4515
 4125TIP3   OH233789   4.695   4.598  12.000 -0.1102 -0.4036 -0.3670
 4125TIP3    H133790   4.692   4.676  12.056  0.8612 -0.8002  0.2623
 4125TIP3    H233791   4.612   4.553  12.017 -0.0180 -0.2845  0.4152
 4126TIP3   OH233792   2.314   1.840   2.693  0.2782 -0.0550  0.6776
 4126TIP3    H133793   2.336   1.872   2.781 -0.3362  1.1221  0.4354
 4126TIP3    H233794   2.220   1.859   2.684  0.1468 -0.9415  0.0739
 4127TIP3   OH233795   5.084   4.481   4.524  0.1199 -0.0998  0.0382
 4127TIP3    H133796   5.039   4.472   4.440  0.8399 -1.2688 -0.2369
 4127TIP3    H233797   5.067   4.399   4.569  1.0129 -0.0922  0.4017
 4128TIP3   OH233798   1.627   3.685   5.543  0.6980 -0.4542 -0.7984
 4128TIP3    H133799   1.690   3.650   5.479  0.7880 -0.7133 -0.5702
 4128TIP3    H233800   1.602   3.771   5.508  1.7055 -0.0371 -0.5486
 4129TIP3   OH233801   6.662   4.937   2.818 -0.1653 -0.0187 -0.2676
 4129TIP3    H133802   6.632   4.920   2.907  0.9589 -0.0045  0.1258
 4129TIP3    H233803   6.708   4.857   2.792  0.6154  0.4558 -0.3585
 4130TIP3   OH233804   3.341   5.809   0.683 -0.0220 -0.3155 -0.3824
 4130TIP3    H133805   3.415   5.773   0.732 -0.4439 -0.5086  0.1245
 4130TIP3    H233806   3.335   5.900   0.711 -1.4788 -0.9167  1.4668
 4131TIP3   OH233807   2.183   6.293  12.615  0.0396 -0.0555  0.0350
 4131TIP3    H133808   2.255   6.323  12.559  0.5905 -0.3210  0.5791
 4131TIP3    H233809   2.115   6.263  12.555  1.6975 -2.9834 -0.5653
 4132TIP3   OH233810   3.014   6.584  13.798 -0.0873 -0.0863 -0.4756
 4132TIP3    H133811   3.091   6.534  13.773  1.3767  0.2862  2.8161
 4132TIP3    H233812   2.942   6.521  13.793  1.1578 -1.6510  0.3808
 4133TIP3   OH233813   4.204   2.240  14.271  0.0042 -0.2921  0.3270
 4133TIP3    H133814   4.251   2.281  14.343  0.9543 -2.3807  0.9932
 4133TIP3    H233815   4.176   2.312  14.216  2.4206  1.1821  0.8728
 4134TIP3   OH233816   1.841   1.969   4.438 -0.0798 -0.4642  0.0761
 4134TIP3    H133817   1.870   2.037   4.378 -0.9170  0.2791  0.4852
 4134TIP3    H233818   1.758   2.001   4.473  0.2699 -0.9616  1.4646
 4135TIP3   OH233819   5.295   6.043  13.013 -0.1233  0.4760  0.2945
 4135TIP3    H133820   5.308   6.004  13.099  0.2507 -0.8591 -0.3404
 4135TIP3    H233821   5.247   6.124  13.030  1.3183  1.0518  1.8932
 4136TIP3   OH233822   0.859   6.265   6.911 -0.0992  0.4337  0.5823
 4136TIP3    H133823   0.805   6.198   6.870  2.3447 -0.6476 -1.0776
 4136TIP3    H233824   0.856   6.339   6.850 -0.2280  0.6490  0.8422
 4137TIP3   OH233825   2.818   4.068   0.564 -0.3873 -0.3810 -0.4903
 4137TIP3    H133826   2.802   3.975   0.545  0.1998 -0.5707 -0.0939
 4137TIP3    H233827   2.811   4.074   0.659  0.5640 -0.2239 -0.4234
 4138TIP3   OH233828   2.653   0.638   5.263 -0.8545  0.2039 -0.4501
 4138TIP3    H133829   2.603   0.677   5.335  2.0584 -0.6128  2.2382
 4138TIP3    H233830   2.628   0.545   5.264  0.3496 -0.1421  0.6926
 4139TIP3   OH233831   1.186   3.636   6.198  0.7616  0.3507  0.0735
 4139TIP3    H133832   1.246   3.708   6.217  1.4270 -0.1984  0.0790
 4139TIP3    H233833   1.125   3.671   6.133  1.6141  0.6539 -0.5758
 4140TIP3   OH233834   1.952   0.700   0.298  0.0170 -0.5265 -0.6125
 4140TIP3    H133835   2.030   0.645   0.303  1.2572  1.2466  2.2078
 4140TIP3    H233836   1.893   0.665   0.364 -0.2929 -0.0549 -0.6347
 4141TIP3   OH233837   5.046   2.056   2.563 -0.1215  0.0106 -0.1675
 4141TIP3    H133838   5.017   2.127   2.506  0.6669  0.9311  0.5478
 4141TIP3    H233839   4.966   2.007   2.583 -0.6997  0.7765 -0.5559
 4142TIP3   OH233840   3.095   0.067   3.310  0.1392 -0.0759 -0.7116
 4142TIP3    H133841   3.170   0.071   3.369  0.6157  0.2398 -1.3140
 4142TIP3    H233842   3.042   0.143   3.334  0.0921 -0.2103 -0.3867
 4143TIP3   OH233843   2.912   1.087  16.618 -0.0290  0.0364  0.0206
 4143TIP3    H133844   2.917   1.182  16.611  1.0079  0.0559  0.8403
 4143TIP3    H233845   2.821   1.066  16.596  0.2281  1.0102 -2.2914
 4144TIP3   OH233846   3.133   6.665   1.094 -0.4112 -0.3173  0.8052
 4144TIP3    H133847   3.140   6.602   1.166  0.5140  1.0039  1.9157
 4144TIP3    H233848   3.223   6.677   1.064 -0.6180  0.2199  0.3930
 4145TIP3   OH233849   4.315   1.662  14.113 -0.1033  0.0966  0.2529
 4145TIP3    H133850   4.287   1.575  14.145  0.1002  0.5854  1.8796
 4145TIP3    H233851   4.406   1.650  14.088 -0.3452 -0.3750 -0.4196
 4146TIP3   OH233852   4.259   2.112   3.598  0.3122 -0.1422 -0.3229
 4146TIP3    H133853   4.241   2.201   3.568  0.0874 -0.4392 -1.0835
 4146TIP3    H233854   4.284   2.064   3.519 -1.4247 -1.2292 -0.2618
 4147TIP3   OH233855   1.487   1.509  11.870  0.0238  0.2085 -0.0475
 4147TIP3    H133856   1.520   1.422  11.894 -0.7411 -0.4828 -1.3944
 4147TIP3    H233857   1.532   1.529  11.788  1.2130  1.7179  0.9091
 4148TIP3   OH233858   2.474   0.507   5.890 -0.5266 -0.3893 -0.1835
 4148TIP3    H133859   2.493   0.599   5.875 -1.1026 -0.1827  0.3161
 4148TIP3    H233860   2.456   0.471   5.803  0.4796 -0.2244 -0.4758
 4149TIP3   OH233861   6.643   0.870  12.458 -0.0993 -0.1819 -0.0826
 4149TIP3    H133862   6.654   0.964  12.473 -1.9635 -0.0520  0.7033
 4149TIP3    H233863   6.686   0.855  12.373 -0.9984  1.6687 -0.9326
 4150TIP3   OH233864   0.068   5.191  14.191 -0.0391 -0.8491  0.5724
 4150TIP3    H133865   0.049   5.243  14.112  2.0150 -1.6107 -0.4907
 4150TIP3    H233866   0.102   5.255  14.254 -1.4350 -0.2777  0.7913
 4151TIP3   OH233867   6.274   1.313  11.477 -0.0698 -0.3779  0.7599
 4151TIP3    H133868   6.262   1.375  11.405  0.3075 -0.6308  0.4810
 4151TIP3    H233869   6.369   1.311  11.492 -0.0004 -1.4651  0.2609
 4152TIP3   OH233870   2.251   0.566  16.148  0.6797 -0.1008  0.0719
 4152TIP3    H133871   2.219   0.594  16.062  1.2798  1.5913  0.3480
 4152TIP3    H233872   2.180   0.513  16.184 -1.7928  3.1267  0.5013
 4153TIP3   OH233873   1.854   5.891  13.708  0.2973 -0.2530  0.0111
 4153TIP3    H133874   1.892   5.914  13.793 -2.3028  0.4470  1.0651
 4153TIP3    H233875   1.870   5.797  13.700 -0.6789 -0.6318  2.0017
 4154TIP3   OH233876   3.852   2.762   2.362  0.1433  0.1413 -0.5019
 4154TIP3    H133877   3.765   2.801   2.363  0.9578  2.6883 -4.6029
 4154TIP3    H233878   3.909   2.830   2.399  0.6154 -0.9171  0.7884
 4155TIP3   OH233879   0.028   5.194  11.727 -0.4752  0.1149 -0.2230
 4155TIP3    H133880   0.112   5.241  11.729 -0.7687  0.6324  1.0189
 4155TIP3    H233881   0.030   5.145  11.645  0.8415  0.4874 -0.4418
 4156TIP3   OH233882   6.707   5.394   1.518  0.0484 -0.7814 -0.2969
 4156TIP3    H133883   6.624   5.376   1.473 -0.0872  0.8391 -0.7845
 4156TIP3    H233884   6.759   5.442   1.453  0.3931  0.3989  0.8120
 4157TIP3   OH233885   1.615   2.612   5.023  0.5552 -0.1178  0.1468
 4157TIP3    H133886   1.616   2.598   4.929 -0.0318  0.3165  0.0725
 4157TIP3    H233887   1.534   2.661   5.040  0.1359 -1.0585  0.9972
 4158TIP3   OH233888   0.777   3.075  13.284 -0.4717  0.1639  0.3966
 4158TIP3    H133889   0.799   3.018  13.210 -1.4139  1.0926 -0.6292
 4158TIP3    H233890   0.750   3.157  13.244  1.4718  1.6083  1.8508
 4159TIP3   OH233891   4.683   2.647  15.735 -0.3510  0.4433 -0.3453
 4159TIP3    H133892   4.627   2.714  15.696  2.0674  1.2793 -2.7063
 4159TIP3    H233893   4.740   2.695  15.794  0.0316  0.1266 -0.4570
 4160TIP3   OH233894   1.888   0.899   2.055 -0.1932 -0.4273 -0.2529
 4160TIP3    H133895   1.861   0.890   1.964  0.0555  1.5691 -0.5668
 4160TIP3    H233896   1.983   0.886   2.054 -0.3445 -1.7158 -0.0384
 4161TIP3   OH233897   1.541   1.328   1.951  0.4638 -0.6116 -0.5949
 4161TIP3    H133898   1.583   1.334   2.037 -0.9943  0.9691  0.0604
 4161TIP3    H233899   1.499   1.413   1.938  0.0357 -1.0623 -2.5701
 4162TIP3   OH233900   2.298   5.095  13.015  0.3559 -0.0980 -0.3865
 4162TIP3    H133901   2.265   5.181  12.991 -0.3450 -0.5326 -1.0355
 4162TIP3    H233902   2.376   5.083  12.962 -0.8131 -0.7765 -2.0468
 4163TIP3   OH233903   4.740   3.187  15.543 -0.2194  0.4373 -0.0800
 4163TIP3    H133904   4.724   3.142  15.460  0.6044  1.0407 -0.5869
 4163TIP3    H233905   4.759   3.117  15.605  1.0772  0.0667 -0.8633
 4164TIP3   OH233906   0.782   5.030  15.429 -0.5608  0.5658 -0.3119
 4164TIP3    H133907   0.740   5.087  15.494  1.0897  0.2516  1.1409
 4164TIP3    H233908   0.744   5.056  15.346 -1.0447  2.6879  0.4876
 4165TIP3   OH233909   3.345   2.796   3.033 -0.0247 -0.2209  0.0080
 4165TIP3    H133910   3.374   2.795   3.125 -0.6289  0.7789  0.2224
 4165TIP3    H233911   3.385   2.717   2.995 -1.3696 -1.7446  1.5989
 4166TIP3   OH233912   4.477   6.053   5.421  0.1190  0.3583  0.0131
 4166TIP3    H133913   4.545   6.007   5.371  0.5905  1.0588  0.0034
 4166TIP3    H233914   4.484   6.144   5.393 -1.3479  0.3177 -0.5775
 4167TIP3   OH233915   2.603   3.564  13.244 -0.0267  0.0574  0.2659
 4167TIP3    H133916   2.518   3.523  13.263 -0.5413  0.6156 -0.7602
 4167TIP3    H233917   2.582   3.656  13.228  1.0609  0.6896  2.1295
 4168TIP3   OH233918   3.802   5.207  12.678  0.1612 -0.4680  0.2789
 4168TIP3    H133919   3.707   5.219  12.674  0.2288 -0.0123  0.0175
 4168TIP3    H233920   3.833   5.276  12.736  0.5539  0.7092 -1.2650
 4169TIP3   OH233921   2.021   0.737  15.665  0.2211  0.3139 -0.1445
 4169TIP3    H133922   2.027   0.819  15.715 -0.0360  0.0143  0.3860
 4169TIP3    H233923   1.939   0.744  15.617  0.3832  0.5288 -0.3906
 4170TIP3   OH233924   2.062   4.860  12.118 -0.0250  0.5281 -0.0857
 4170TIP3    H133925   2.129   4.852  12.186 -0.3496  2.1423  0.4834
 4170TIP3    H233926   2.097   4.926  12.058 -1.4262  2.0419  0.6867
 4171TIP3   OH233927   0.904   2.869   1.548 -0.4128  0.4479  0.1048
 4171TIP3    H133928   0.921   2.806   1.478 -0.4657  1.2822 -0.6785
 4171TIP3    H233929   0.891   2.953   1.503  0.0753  1.1110  1.1463
 4172TIP3   OH233930   3.130   3.086   2.483 -0.2471  0.2573  0.3143
 4172TIP3    H133931   3.063   3.091   2.552  1.2015 -0.6258  1.8510
 4172TIP3    H233932   3.211   3.112   2.527  0.5300  0.7702 -1.3729
 4173TIP3   OH233933   4.105   5.972  14.947  0.3076 -0.1781 -0.1092
 4173TIP3    H133934   4.087   5.917  15.023  1.5818  1.0551  1.1558
 4173TIP3    H233935   4.134   5.911  14.879 -0.7027 -1.2827  0.4262
 4174TIP3   OH233936   4.752   2.061   2.519 -0.1527  0.1307  0.2665
 4174TIP3    H133937   4.772   2.008   2.442 -0.6343 -1.2049  1.0298
 4174TIP3    H233938   4.658   2.048   2.533 -0.2696  1.1466  0.5192
 4175TIP3   OH233939   0.168   5.948   0.177 -0.3972  0.1790 -0.1426
 4175TIP3    H133940   0.145   5.952   0.270 -0.2484 -1.0848 -0.0422
 4175TIP3    H233941   0.224   5.870   0.169 -2.0141 -0.8938 -1.6182
 4176TIP3   OH233942   5.258   2.372   4.823  0.1364  0.3979  0.6386
 4176TIP3    H133943   5.164   2.376   4.806  0.1755  1.2851  0.5335
 4176TIP3    H233944   5.298   2.398   4.739  0.4567  0.4551  0.8073
 4177TIP3   OH233945   2.498   0.544  13.545 -0.1058  0.0963  0.0480
 4177TIP3    H133946   2.562   0.562  13.614  2.0005 -1.0564 -1.4919
 4177TIP3    H233947   2.453   0.464  13.573  0.0873  0.1473  0.4993
 4178TIP3   OH233948   1.462   0.298   1.642 -0.2273  0.3403 -0.1271
 4178TIP3    H133949   1.492   0.389   1.638  0.3655  0.2275  1.2658
 4178TIP3    H233950   1.410   0.286   1.562  1.3174  1.3019 -1.3218
 4179TIP3   OH233951   3.717   0.174  16.768  0.0606 -0.1780  0.1662
 4179TIP3    H133952   3.740   0.219  16.687  0.3956  0.1728  0.4488
 4179TIP3    H233953   3.623   0.156  16.759  0.3399 -1.2472 -0.8132
 4180TIP3   OH233954   2.377   0.898   5.168  0.0681  0.0345 -0.1745
 4180TIP3    H133955   2.411   0.962   5.230 -0.8189  0.0762  0.2880
 4180TIP3    H233956   2.436   0.823   5.174 -1.0866 -0.7790  2.1838
 4181TIP3   OH233957   6.008   2.305   6.750  0.0527  0.3116  0.0483
 4181TIP3    H133958   5.973   2.334   6.834  1.8150  0.8189  0.6599
 4181TIP3    H233959   5.976   2.370   6.687  0.3194  1.0541  0.6663
 4182TIP3   OH233960   2.680   2.602  13.052 -0.2607  0.8259 -0.3559
 4182TIP3    H133961   2.727   2.519  13.044 -1.5087  0.1526 -1.0980
 4182TIP3    H233962   2.730   2.652  13.117  1.4429  0.1720 -1.0988
 4183TIP3   OH233963   5.069   6.339  12.350 -0.4989  0.0213 -0.1942
 4183TIP3    H133964   5.036   6.284  12.422 -0.6035 -0.3219 -0.5019
 4183TIP3    H233965   5.154   6.301  12.327 -1.2175 -0.9353 -1.3904
 4184TIP3   OH233966   0.744   4.104   0.861  0.7374 -0.2758 -0.2102
 4184TIP3    H133967   0.669   4.102   0.801  0.2753 -0.9923  0.3696
 4184TIP3    H233968   0.790   4.022   0.843  0.0294 -0.9998  1.0887
 4185TIP3   OH233969   6.644   6.580  13.712  0.5545 -0.3019  0.0523
 4185TIP3    H133970   6.617   6.488  13.710 -0.9710  0.1068  0.3968
 4185TIP3    H233971   6.561   6.628  13.712  1.3389  1.0665  0.1178
 4186TIP3   OH233972   1.510   4.566  12.455 -0.5659 -0.6295  0.3220
 4186TIP3    H133973   1.500   4.594  12.364 -0.1216  0.3218  0.5615
 4186TIP3    H233974   1.438   4.609  12.502  0.6773  0.9669  0.8641
 4187TIP3   OH233975   0.153   2.694   2.808 -0.9174  0.8626  0.2494
 4187TIP3    H133976   0.201   2.777   2.815 -0.2055  0.5375 -0.6604
 4187TIP3    H233977   0.156   2.658   2.896  2.4128 -0.1750 -0.1670
 4188TIP3   OH233978   3.182   5.579   1.724 -0.5000 -0.4456 -0.0402
 4188TIP3    H133979   3.207   5.537   1.641 -1.4679 -1.0533 -0.0365
 4188TIP3    H233980   3.163   5.670   1.700  0.4749 -0.2769 -0.2463
 4189TIP3   OH233981   2.984   5.128  17.097 -0.3941 -0.3698 -0.2996
 4189TIP3    H133982   2.917   5.093  17.156  0.6974 -1.7013  0.2165
 4189TIP3    H233983   3.040   5.181  17.154  0.6553 -1.6502 -0.0840
 4190TIP3   OH233984   0.078   5.060   0.756  0.0136 -0.3012 -0.0931
 4190TIP3    H133985   0.161   5.016   0.738 -0.9346 -2.2651  0.0673
 4190TIP3    H233986   0.043   5.081   0.670 -0.5702 -2.0000 -0.3153
 4191TIP3   OH233987   0.958   0.035   1.189 -0.0914  0.0923 -0.2635
 4191TIP3    H133988   1.002   0.004   1.110 -0.8565  1.2346 -1.1797
 4191TIP3    H233989   1.005   0.115   1.213 -0.3929  0.2136 -0.0612
 4192TIP3   OH233990   6.258   1.995  14.157  0.2334 -0.1194  0.2633
 4192TIP3    H133991   6.167   1.972  14.135 -2.2143  3.7372  4.5259
 4192TIP3    H233992   6.281   2.063  14.093 -0.9729  0.6722  0.6165
 4193TIP3   OH233993   4.738   4.704   4.625  0.3045  0.1109  0.1225
 4193TIP3    H133994   4.667   4.641   4.638  2.5777 -2.4249  1.1169
 4193TIP3    H233995   4.769   4.687   4.536  0.5241  0.2566  0.1715
 4194TIP3   OH233996   2.455   1.493  14.591 -0.3359 -0.3682  0.1702
 4194TIP3    H133997   2.471   1.491  14.497 -1.4455  0.5116 -0.0518
 4194TIP3    H233998   2.485   1.407  14.622  1.3636 -0.1640 -0.7427
 4195TIP3   OH233999   4.986   0.188   1.442 -0.2808 -0.0477 -0.9705
 4195TIP3    H134000   4.921   0.183   1.372  0.5890 -0.4326 -1.7821
 4195TIP3    H234001   5.066   0.218   1.398  0.5186 -1.1269 -0.3281
 4196TIP3   OH234002   0.898   6.280   2.122 -0.5612 -0.2803 -0.5473
 4196TIP3    H134003   0.820   6.335   2.120  1.3887  2.7336  0.6572
 4196TIP3    H234004   0.924   6.272   2.030 -0.3361  1.7544 -0.6994
 4197TIP3   OH234005   3.424   4.548   5.663 -0.3609  0.2842 -0.0459
 4197TIP3    H134006   3.439   4.462   5.703 -0.5589 -0.0185 -0.6084
 4197TIP3    H234007   3.500   4.600   5.688 -0.2530 -0.0513  0.3230
 4198TIP3   OH234008   1.642   0.772   4.466 -0.5177  0.1083  0.3114
 4198TIP3    H134009   1.615   0.777   4.558 -0.2508  0.8129  0.3544
 4198TIP3    H234010   1.735   0.793   4.467 -0.3770 -0.4847 -0.0567
 4199TIP3   OH234011   4.692   3.190   2.889 -0.2334 -0.4812  0.3584
 4199TIP3    H134012   4.762   3.134   2.923 -0.4180 -0.0702  1.4342
 4199TIP3    H234013   4.652   3.229   2.966 -1.0966 -0.0321 -0.2957
 4200TIP3   OH234014   5.378   3.304   6.134 -0.2402  0.3811  0.2017
 4200TIP3    H134015   5.360   3.241   6.205  0.3290  0.3212  0.2983
 4200TIP3    H234016   5.291   3.331   6.104 -0.5045 -0.6736 -0.0421
 4201TIP3   OH234017   1.569   2.894  14.462  0.3901  0.4462 -0.7924
 4201TIP3    H134018   1.593   2.807  14.493 -1.3804 -0.5163 -1.9527
 4201TIP3    H234019   1.489   2.915  14.511  0.0229  0.7809 -1.5138
 4202TIP3   OH234020   6.418   1.859  17.528 -0.2353  0.4723 -0.0984
 4202TIP3    H134021   6.477   1.867  17.453  1.6873 -2.2419  0.9726
 4202TIP3    H234022   6.350   1.798  17.499 -0.3533  0.6117 -0.1155
 4203TIP3   OH234023   3.620   2.791   3.496 -0.4211  0.7677  0.2442
 4203TIP3    H134024   3.647   2.844   3.421  0.0708 -1.2688 -1.0648
 4203TIP3    H234025   3.524   2.790   3.491 -0.3723 -0.3077 -1.0945
 4204TIP3   OH234026   3.347   0.185   4.056  0.1310  0.3147  0.5130
 4204TIP3    H134027   3.306   0.262   4.018 -1.2572 -1.2246 -1.3271
 4204TIP3    H234028   3.306   0.175   4.141 -0.7347  0.8058  0.1717
 4205TIP3   OH234029   1.897   2.314   6.499 -0.1610  0.4633  0.4770
 4205TIP3    H134030   1.873   2.368   6.574  0.0257  1.3768 -0.1074
 4205TIP3    H234031   1.822   2.319   6.440  0.0592  0.4942  0.1984
 4206TIP3   OH234032   1.170   3.983  13.518 -0.0798  0.4121  0.0856
 4206TIP3    H134033   1.181   4.076  13.499 -0.5859  0.2387 -1.1741
 4206TIP3    H234034   1.245   3.941  13.474 -1.9104 -0.1151 -2.8109
 4207TIP3   OH234035   4.121   2.032  13.978 -0.4593  0.0011 -0.7854
 4207TIP3    H134036   4.079   2.047  14.063  0.9425  1.6818 -0.3405
 4207TIP3    H234037   4.065   1.967  13.935 -2.6000  0.9722  0.3855
 4208TIP3   OH234038   0.742   3.977  12.125  0.0595 -0.2819  0.3302
 4208TIP3    H134039   0.702   4.010  12.044 -1.0684 -0.2152  0.8963
 4208TIP3    H234040   0.796   3.903  12.097 -0.4927 -0.3993 -0.4465
 4209TIP3   OH234041   6.275   4.218  12.960  0.0630 -0.7267 -0.1800
 4209TIP3    H134042   6.224   4.165  13.021 -0.4450 -0.8460 -0.6877
 4209TIP3    H234043   6.283   4.304  13.002 -1.4202 -0.4009 -0.5077
 4210TIP3   OH234044   2.458   5.868  16.025  0.3385 -0.0295 -0.3292
 4210TIP3    H134045   2.431   5.827  16.107 -0.1158 -1.3902 -1.1270
 4210TIP3    H234046   2.546   5.901  16.042  0.6487 -1.1958  0.4216
 4211TIP3   OH234047   6.142   1.248   3.747  0.1837 -0.3588  0.0180
 4211TIP3    H134048   6.087   1.181   3.787  1.4784 -1.2461  0.4079
 4211TIP3    H234049   6.149   1.316   3.814  0.0253 -0.5085  0.1894
 4212TIP3   OH234050   6.367   4.557  14.065 -0.3283  0.0999 -0.1848
 4212TIP3    H134051   6.371   4.461  14.069 -0.7267  0.0626 -0.6005
 4212TIP3    H234052   6.437   4.586  14.123  0.2989 -0.4568 -0.6373
 4213TIP3   OH234053   6.257   3.841  12.391 -0.2096 -0.2760  0.4642
 4213TIP3    H134054   6.279   3.918  12.443  0.6878  0.0690 -0.3788
 4213TIP3    H234055   6.215   3.781  12.453  1.0469  0.0097  1.6507
 4214TIP3   OH234056   2.391   0.480   4.629 -0.1372  0.3297 -0.7501
 4214TIP3    H134057   2.429   0.566   4.606 -1.3250  1.0615 -0.0814
 4214TIP3    H234058   2.335   0.458   4.555 -0.2759  0.4150 -0.6718
 4215TIP3   OH234059   2.721   3.327  15.851  0.6692 -0.0187  0.3620
 4215TIP3    H134060   2.807   3.329  15.808  0.3611  0.0607 -0.2635
 4215TIP3    H234061   2.658   3.338  15.780  0.1493  0.4029  0.8735
 4216TIP3   OH234062   6.134   5.776   4.874 -0.3688  0.0923  0.7246
 4216TIP3    H134063   6.153   5.701   4.818  0.0358  0.6220  0.1329
 4216TIP3    H234064   6.045   5.802   4.849 -0.3836  0.0074  0.6887
 4217TIP3   OH234065   3.971   1.633  14.023  0.3294  0.5501  0.0091
 4217TIP3    H134066   3.892   1.684  14.037 -0.1996  0.3950 -2.0402
 4217TIP3    H234067   4.006   1.617  14.111 -0.8985  2.1823  0.8393
 4218TIP3   OH234068   2.281   2.390  15.950  0.2524 -0.1684  0.2467
 4218TIP3    H134069   2.222   2.336  15.898  1.0324  0.9573 -1.9333
 4218TIP3    H234070   2.299   2.338  16.028  1.1413 -3.1762 -1.8035
 4219TIP3   OH234071   3.255   0.369   1.190  0.0665 -0.5507 -0.0677
 4219TIP3    H134072   3.245   0.445   1.132  1.0568 -0.6002 -0.3270
 4219TIP3    H234073   3.166   0.349   1.219 -0.3014  0.2230 -0.6190
 4220TIP3   OH234074   2.099   3.964   1.264  0.2359 -0.3185 -0.2130
 4220TIP3    H134075   2.113   4.054   1.235  1.2816 -0.1868  0.5931
 4220TIP3    H234076   2.053   3.922   1.192 -2.9938  1.5947  0.5411
 4221TIP3   OH234077   2.288   4.365  15.672  0.2056  0.0282  0.3715
 4221TIP3    H134078   2.268   4.273  15.654  1.6498 -0.3905  0.7586
 4221TIP3    H234079   2.364   4.384  15.619 -0.2132  1.0863  0.1284
 4222TIP3   OH234080   0.913   4.805  15.638  0.3497  0.7539 -0.1334
 4222TIP3    H134081   0.981   4.785  15.573 -0.7377  0.0988 -1.0898
 4222TIP3    H234082   0.845   4.740  15.622  0.6501 -0.3793  2.6134
 4223TIP3   OH234083   0.950   0.768   3.702 -0.0135 -0.2883 -0.2817
 4223TIP3    H134084   0.894   0.836   3.665 -0.8810 -1.7206 -1.7362
 4223TIP3    H234085   1.038   0.804   3.696 -0.6571  1.7970  1.5649
 4224TIP3   OH234086   6.426   4.243   3.522 -0.2690  0.4863  0.0771
 4224TIP3    H134087   6.353   4.297   3.493  0.0253  0.0516 -1.5978
 4224TIP3    H234088   6.489   4.306   3.558 -0.4639  1.1438 -0.6849
 4225TIP3   OH234089   5.040   1.660   5.453  0.9478 -0.0347 -0.0286
 4225TIP3    H134090   5.085   1.668   5.368  0.9640  0.7581  0.0484
 4225TIP3    H234091   4.963   1.607   5.434  1.2772 -0.3939 -0.4098
 4226TIP3   OH234092   5.630   5.416  17.529  0.6776  0.2841 -0.0289
 4226TIP3    H134093   5.649   5.498  17.483  1.5048  1.4470  2.2329
 4226TIP3    H234094   5.715   5.383  17.556  0.3420 -1.2935 -0.8011
 4227TIP3   OH234095   4.006   3.267  12.937  0.0128  0.1151 -0.2453
 4227TIP3    H134096   3.960   3.338  12.982 -1.8193 -1.2196  0.0871
 4227TIP3    H234097   3.938   3.217  12.894  1.1751 -1.7403 -0.0511
 4228TIP3   OH234098   2.025   4.257   4.619 -0.4315  0.5096  0.5615
 4228TIP3    H134099   1.933   4.248   4.593 -0.2607 -1.0720  0.4221
 4228TIP3    H234100   2.046   4.175   4.663  0.9158  0.8612  0.6217
 4229TIP3   OH234101   5.130   4.835  12.061 -0.1271  0.0123  0.3549
 4229TIP3    H134102   5.040   4.864  12.050 -0.1566 -0.3239 -0.3409
 4229TIP3    H234103   5.141   4.764  11.998  0.8789  0.6396 -0.2193
 4230TIP3   OH234104   2.085   6.202  12.872 -0.0243 -0.3452 -0.6910
 4230TIP3    H134105   2.097   6.231  12.782 -3.4178 -0.3245 -1.2707
 4230TIP3    H234106   2.096   6.282  12.924  0.6346 -0.0843 -1.2101
 4231TIP3   OH234107   1.890   2.649   6.969 -0.2184 -0.0709 -0.3378
 4231TIP3    H134108   1.844   2.692   6.897 -0.9372 -1.2486 -0.5997
 4231TIP3    H234109   1.821   2.610   7.022  0.4310 -1.1680 -0.2757
 4232TIP3   OH234110   6.218   1.412   6.027 -0.3298  0.8238 -0.7261
 4232TIP3    H134111   6.262   1.496   6.037  1.4120 -0.2651  1.6809
 4232TIP3    H234112   6.165   1.403   6.106 -0.4025 -0.3693 -0.8975
 4233TIP3   OH234113   3.856   6.029  17.388  0.0976 -1.0287  0.5323
 4233TIP3    H134114   3.860   6.022  17.292  1.2718  1.5634  0.3224
 4233TIP3    H234115   3.937   6.072  17.413  0.3363 -2.6342  2.8791
 4234TIP3   OH234116   2.481   0.377   0.488 -0.9063 -0.2220  0.4849
 4234TIP3    H134117   2.407   0.423   0.528 -0.5755  0.8098 -0.0629
 4234TIP3    H234118   2.523   0.442   0.432  0.6743 -0.6623  1.1030
 4235TIP3   OH234119   5.364   4.765   3.865 -0.3123  0.7262 -0.3266
 4235TIP3    H134120   5.405   4.679   3.870 -2.3625 -0.3315 -0.5272
 4235TIP3    H234121   5.413   4.819   3.926  0.5625 -0.7998  0.3801
 4236TIP3   OH234122   4.871   3.026   2.991  0.4311 -0.1380 -0.5601
 4236TIP3    H134123   4.927   3.023   2.914  0.3268  1.4737 -0.7275
 4236TIP3    H234124   4.821   2.944   2.988  0.5961 -0.2065 -2.0691
 4237TIP3   OH234125   5.680   6.136   3.093 -0.3889  0.1532  0.3771
 4237TIP3    H134126   5.607   6.113   3.150  0.3115  1.3342  1.8114
 4237TIP3    H234127   5.741   6.062   3.102 -0.6200 -0.0144  0.5772
 4238TIP3   OH234128   2.467   5.117  13.640 -0.0775 -0.2593 -0.0535
 4238TIP3    H134129   2.387   5.103  13.590 -0.3680  1.1441 -0.0306
 4238TIP3    H234130   2.482   5.034  13.686 -1.2890 -0.6686 -0.3687
 4239TIP3   OH234131   4.925   4.260  15.727 -0.0036 -0.0858 -0.2449
 4239TIP3    H134132   4.837   4.255  15.688  0.4974 -0.2063 -1.4035
 4239TIP3    H234133   4.962   4.172  15.715  0.3463  0.0168  0.0651
 4240TIP3   OH234134   4.753   6.090   6.057 -0.6954  0.0624 -0.3296
 4240TIP3    H134135   4.724   6.150   5.988 -1.7488 -0.2456 -0.1702
 4240TIP3    H234136   4.722   6.130   6.138 -1.7314 -0.8491 -0.2488
 4241TIP3   OH234137   2.245   4.098  16.494 -0.0875  0.0841 -0.5460
 4241TIP3    H134138   2.190   4.149  16.435 -1.3505  2.3901  2.3583
 4241TIP3    H234139   2.326   4.083  16.444 -1.1741  1.5757 -2.9381
 4242TIP3   OH234140   4.308   1.100   1.044 -0.0532 -0.2575 -0.2949
 4242TIP3    H134141   4.269   1.021   1.082  2.7533 -1.1292  1.0659
 4242TIP3    H234142   4.241   1.167   1.054 -1.2931 -1.6779  1.6721
 4243TIP3   OH234143   2.803   5.490  16.401  0.6661  0.5046 -0.4628
 4243TIP3    H134144   2.830   5.503  16.492  0.2527  0.9975 -0.4081
 4243TIP3    H234145   2.874   5.527  16.349 -0.2443  2.5726 -0.3143
 4244TIP3   OH234146   6.391   5.094   4.852  0.2999  0.2851 -0.2985
 4244TIP3    H134147   6.395   5.125   4.762  0.8551 -0.7675 -0.6567
 4244TIP3    H234148   6.433   5.008   4.850 -1.0488 -0.4465  0.6648
 4245TIP3   OH234149   0.030   0.232  10.794 -0.8243 -0.3347 -0.2486
 4245TIP3    H134150  -0.039   0.183  10.751 -0.7980  0.2607 -1.0047
 4245TIP3    H234151   0.055   0.179  10.870 -1.1557 -1.2136 -0.7415
 4246TIP3   OH234152   6.113   4.336   4.496  0.4379 -0.2523  0.0555
 4246TIP3    H134153   6.045   4.360   4.559 -0.0466 -0.6563 -0.3054
 4246TIP3    H234154   6.087   4.379   4.414 -0.1857 -1.5637 -0.4695
 4247TIP3   OH234155   1.906   0.841   3.372 -0.2983  0.0313  0.1094
 4247TIP3    H134156   1.888   0.912   3.310 -1.5295 -0.8222 -0.5345
 4247TIP3    H234157   1.945   0.772   3.319 -1.5577 -0.7878  0.2251
 4248TIP3   OH234158   0.373   3.864  11.626 -0.2527  0.4518 -0.2346
 4248TIP3    H134159   0.412   3.897  11.545 -0.4788 -1.3244 -1.1029
 4248TIP3    H234160   0.441   3.876  11.692  1.4122 -1.5507 -1.4732
 4249TIP3   OH234161   5.587   4.028   3.906  0.4160 -0.2439 -0.4160
 4249TIP3    H134162   5.646   3.995   3.973  1.9929 -1.5009 -2.2844
 4249TIP3    H234163   5.644   4.044   3.830 -0.9855  2.7319 -0.9984
 4250TIP3   OH234164   4.853   3.687   0.964  0.3502  0.0241  0.4696
 4250TIP3    H134165   4.925   3.719   0.910  1.1715 -0.8568  1.0173
 4250TIP3    H234166   4.774   3.714   0.917  1.0082  1.6224  0.2179
 4251TIP3   OH234167   3.630   0.929   1.509 -0.2132  0.0949 -0.0947
 4251TIP3    H134168   3.615   0.868   1.581  0.2408 -0.1272 -0.1849
 4251TIP3    H234169   3.582   1.008   1.534 -1.5387 -0.5919 -0.3767
 4252TIP3   OH234170   0.504   2.227   4.636  0.1929 -0.2482  0.4365
 4252TIP3    H134171   0.466   2.159   4.693 -2.4193  1.0280  0.3909
 4252TIP3    H234172   0.473   2.205   4.549  1.1315 -0.1564  0.0699
 4253TIP3   OH234173   0.783   4.777   6.056  0.3828  0.0223  0.4440
 4253TIP3    H134174   0.804   4.697   6.104  1.7624  1.1073  1.7674
 4253TIP3    H234175   0.735   4.831   6.118 -0.3933  0.3033 -0.3802
 4254TIP3   OH234176   1.434   4.009  14.095  0.0893  0.3258  0.0260
 4254TIP3    H134177   1.403   4.090  14.053  0.8112  0.3611 -0.4761
 4254TIP3    H234178   1.476   4.039  14.176  0.3339  0.4580 -0.1476
 4255TIP3   OH234179   2.521   1.307  17.311  0.4384 -0.0095 -0.0730
 4255TIP3    H134180   2.437   1.329  17.272  0.0283  1.5594  1.5452
 4255TIP3    H234181   2.499   1.259  17.391  1.0321  0.7055  0.5416
 4256TIP3   OH234182   5.370   2.370   0.038  0.1147  0.2010  0.2933
 4256TIP3    H134183   5.425   2.448   0.037  0.6516 -0.1437  1.2525
 4256TIP3    H234184   5.321   2.376   0.121  0.8366 -0.9092  0.8263
 4257TIP3   OH234185   3.268   0.058   5.015 -0.1484 -0.0498 -0.1313
 4257TIP3    H134186   3.284   0.150   5.039  1.7746 -0.5937  0.8838
 4257TIP3    H234187   3.315   0.008   5.082  1.3191 -1.7429 -2.3228
 4258TIP3   OH234188   2.104   4.218   5.334 -0.5498 -0.3404 -0.0512
 4258TIP3    H134189   2.097   4.282   5.404 -2.4323 -0.4440 -0.1140
 4258TIP3    H234190   2.143   4.141   5.375 -1.8369 -0.4815  0.9652
 4259TIP3   OH234191   4.098   0.210   1.687  0.1955  0.1227  0.9257
 4259TIP3    H134192   4.004   0.228   1.683  0.2719  0.2894 -1.4902
 4259TIP3    H234193   4.139   0.290   1.655  1.0004 -0.8125 -0.5220
 4260TIP3   OH234194   2.444   6.255  15.995  0.0408  0.5794  0.0119
 4260TIP3    H134195   2.527   6.217  16.023 -0.4906 -0.1472  0.6527
 4260TIP3    H234196   2.378   6.191  16.021 -0.5188 -0.2910 -3.1128
 4261TIP3   OH234197   2.953   5.325   0.590  0.7424  0.3730  0.3118
 4261TIP3    H134198   3.020   5.352   0.528  0.7411  1.5695  0.8075
 4261TIP3    H234199   2.915   5.406   0.621 -1.0867 -0.2778 -0.0951
 4262TIP3   OH234200   1.208   5.964   3.025 -0.3604  0.1481  0.2393
 4262TIP3    H134201   1.252   6.049   3.023  1.3704 -0.6025  2.1702
 4262TIP3    H234202   1.236   5.924   3.108  0.7944 -3.2406 -1.5538
 4263TIP3   OH234203   3.172   1.277  15.413  0.0005 -0.4696 -0.0048
 4263TIP3    H134204   3.248   1.317  15.455 -0.9152  1.2757  0.1100
 4263TIP3    H234205   3.129   1.227  15.483  0.2296 -0.2194  0.3202
 4264TIP3   OH234206   3.522   0.806  15.204 -0.0591  0.5867 -0.0186
 4264TIP3    H134207   3.570   0.858  15.269  1.2489  2.9544 -2.6280
 4264TIP3    H234208   3.582   0.734  15.182  0.5267  1.1404 -0.2678
 4265TIP3   OH234209   2.910   2.056  15.112 -0.0737 -0.3867 -0.4146
 4265TIP3    H134210   2.821   2.055  15.076 -0.0512  0.6542 -0.5338
 4265TIP3    H234211   2.898   2.039  15.205 -0.3761 -0.4400 -0.4618
 4266TIP3   OH234212   1.647   6.702  12.037 -0.2326 -0.0874  0.1775
 4266TIP3    H134213   1.742   6.705  12.028 -0.4086  1.6557 -1.7831
 4266TIP3    H234214   1.627   6.610  12.052  1.7239 -0.5504  0.2131
 4267TIP3   OH234215   2.793   1.580  13.115 -0.3723  0.1626 -0.0997
 4267TIP3    H134216   2.852   1.632  13.170 -0.3242  1.2112 -1.0940
 4267TIP3    H234217   2.827   1.592  13.027 -0.7375 -1.0883 -0.4280
 4268TIP3   OH234218   4.187   4.088  10.917 -0.0211 -0.2402  0.3170
 4268TIP3    H134219   4.275   4.087  10.954  0.8373  2.0689 -1.4116
 4268TIP3    H234220   4.129   4.110  10.990  1.1504  0.6414  1.0060
 4269TIP3   OH234221   0.279   6.707  12.256 -0.5700  0.3914 -0.1550
 4269TIP3    H134222   0.350   6.771  12.249 -1.2685  1.1825 -0.1735
 4269TIP3    H234223   0.301   6.639  12.194  0.1847  0.6235 -0.1454
 4270TIP3   OH234224   1.157   1.753  17.214  0.4747 -0.0612  0.0781
 4270TIP3    H134225   1.079   1.782  17.167 -0.0839  0.2477  1.1643
 4270TIP3    H234226   1.133   1.760  17.306  1.6983 -0.2191  0.4216
 4271TIP3   OH234227   0.165   1.534  15.400 -0.2351 -0.2686 -0.3081
 4271TIP3    H134228   0.170   1.462  15.338  2.8410 -0.7607  0.3574
 4271TIP3    H234229   0.157   1.492  15.486  0.5708  0.1848  0.0064
 4272TIP3   OH234230   4.322   5.311   4.176  0.1567  0.0105  0.3987
 4272TIP3    H134231   4.307   5.315   4.082  0.6813 -0.7905  0.2673
 4272TIP3    H234232   4.284   5.392   4.211  1.5697  1.2064 -0.7196
 4273TIP3   OH234233   4.363   3.911  12.883  0.2635 -0.5577 -0.4533
 4273TIP3    H134234   4.434   3.866  12.836  0.3267 -0.6163 -0.3036
 4273TIP3    H234235   4.388   3.904  12.976 -0.4015 -1.3902 -0.3224
 4274TIP3   OH234236   2.085   3.807  13.016  0.1407 -0.0083 -0.0753
 4274TIP3    H134237   2.055   3.727  12.972  1.1369  0.0093 -0.8404
 4274TIP3    H234238   2.142   3.776  13.087 -0.1177  0.0044  0.1383
 4275TIP3   OH234239   0.664   2.650  14.437 -0.4586  0.0751  0.0733
 4275TIP3    H134240   0.754   2.674  14.415 -0.7323 -0.0658 -1.3105
 4275TIP3    H234241   0.641   2.706  14.510  0.8274 -0.0379  0.5925
 4276TIP3   OH234242   5.629   2.191   3.291  0.1789 -0.0119  0.2815
 4276TIP3    H134243   5.686   2.257   3.252 -1.8115  2.4606  1.3043
 4276TIP3    H234244   5.657   2.187   3.383  1.0024 -1.4819 -0.0003
 4277TIP3   OH234245   4.285   2.575   4.266  0.0501 -0.3638  0.3132
 4277TIP3    H134246   4.255   2.484   4.263  0.1517 -0.3956  0.2654
 4277TIP3    H234247   4.351   2.576   4.335 -0.5034 -0.1632  0.8429
 4278TIP3   OH234248   4.316   3.564  16.859  0.2270 -0.0151  0.0688
 4278TIP3    H134249   4.270   3.623  16.799  0.8095  0.8454  0.4453
 4278TIP3    H234250   4.247   3.508  16.895 -0.7665  1.9313  1.4067
 4279TIP3   OH234251   3.783   3.519   5.989  0.9090  0.1779  0.7987
 4279TIP3    H134252   3.878   3.523   5.979  1.1267 -2.5416  0.9437
 4279TIP3    H234253   3.765   3.426   6.004 -1.9791  0.1813 -1.6257
 4280TIP3   OH234254   5.714   5.098  17.400  0.2780  0.0357 -0.3398
 4280TIP3    H134255   5.666   5.167  17.353  0.2393 -0.7497 -1.4942
 4280TIP3    H234256   5.786   5.075  17.341  0.8197 -0.3039  0.4342
 4281TIP3   OH234257   2.471   4.893  12.818  0.0553 -0.6835 -0.2183
 4281TIP3    H134258   2.531   4.858  12.752  1.1917 -0.7839  0.8245
 4281TIP3    H234259   2.425   4.816  12.852  1.1708 -0.9742  0.7226
 4282TIP3   OH234260   5.733   0.445  16.225 -0.2268 -0.8875 -0.2044
 4282TIP3    H134261   5.712   0.426  16.317 -2.3888 -1.7675 -0.8122
 4282TIP3    H234262   5.687   0.527  16.207  1.9246  0.4560  0.0052
 4283TIP3   OH234263   2.902   5.708  14.214  0.0388 -0.1922  0.2828
 4283TIP3    H134264   2.878   5.786  14.165  2.4005  0.3619 -0.1329
 4283TIP3    H234265   2.861   5.720  14.300  0.3057  1.4992  0.2115
 4284TIP3   OH234266   3.646   1.607   2.676 -0.3802  0.1132 -0.6290
 4284TIP3    H134267   3.579   1.599   2.745  1.1856 -1.3393  0.8127
 4284TIP3    H234268   3.603   1.576   2.597 -1.0080 -2.3504  0.5754
 4285TIP3   OH234269   5.799   2.787   4.285 -0.1472 -0.1181 -0.3135
 4285TIP3    H134270   5.825   2.879   4.297 -1.4799 -0.0447  4.1064
 4285TIP3    H234271   5.717   2.792   4.235  1.0623  0.7934 -2.3098
 4286TIP3   OH234272   3.676   3.561   5.355  0.0365 -0.4791 -0.0110
 4286TIP3    H134273   3.719   3.485   5.317 -1.0287 -1.0110 -0.2082
 4286TIP3    H234274   3.584   3.534   5.365 -0.8581  1.4525 -2.0413
 4287TIP3   OH234275   1.684   5.307  14.676 -0.3017 -0.6368  0.3537
 4287TIP3    H134276   1.602   5.284  14.632  0.1540  0.3596 -1.0730
 4287TIP3    H234277   1.750   5.251  14.636 -0.1636 -0.9963  1.0616
 4288TIP3   OH234278   1.547   4.503  15.459  0.0198  0.0135  0.0489
 4288TIP3    H134279   1.473   4.531  15.406 -0.6828  1.2705  1.6063
 4288TIP3    H234280   1.515   4.424  15.504 -0.4647  0.6506  0.8492
 4289TIP3   OH234281   4.632   6.223   3.604 -0.5069  0.2444  0.1398
 4289TIP3    H134282   4.663   6.308   3.574  0.0461  0.6220  1.6667
 4289TIP3    H234283   4.708   6.165   3.595 -0.4149  0.2992  0.5147
 4290TIP3   OH234284   3.099   6.064   2.358 -0.2971  0.4647  0.2758
 4290TIP3    H134285   3.178   6.066   2.303  0.4354 -1.1129  1.1992
 4290TIP3    H234286   3.125   6.109   2.438  0.3631 -1.7768  1.3829
 4291TIP3   OH234287   1.352   3.857  13.890 -0.1401 -0.3390 -0.2426
 4291TIP3    H134288   1.371   3.917  13.962  0.9717 -1.0763  0.0831
 4291TIP3    H234289   1.410   3.885  13.820  1.2498 -1.7498  0.3044
 4292TIP3   OH234290   1.023   3.838   2.774  1.0524 -0.0041  0.4532
 4292TIP3    H134291   0.948   3.837   2.715  1.5021 -0.1999 -0.1278
 4292TIP3    H234292   1.005   3.767   2.836  1.3866 -0.9672 -0.5104
 4293TIP3   OH234293   6.610   4.539  11.296  0.1216  0.0376 -0.3643
 4293TIP3    H134294   6.524   4.560  11.257  0.6895  1.0528 -1.1368
 4293TIP3    H234295   6.593   4.535  11.390 -0.8118  0.0436 -0.5199
 4294TIP3   OH234296   6.614   3.242  16.548  0.2452  0.1786 -0.2948
 4294TIP3    H134297   6.639   3.319  16.498  0.9414 -1.0149 -1.8663
 4294TIP3    H234298   6.683   3.178  16.530 -1.8515 -1.8676 -1.5654
 4295TIP3   OH234299   0.557   5.041  14.883  0.1367  0.3924  0.3547
 4295TIP3    H134300   0.593   4.978  14.945 -2.0004  0.0925  1.3520
 4295TIP3    H234301   0.613   5.032  14.805 -0.2178 -2.9692  0.3318
 4296TIP3   OH234302   2.956   2.374  12.583 -0.2224  0.0652 -0.3627
 4296TIP3    H134303   2.947   2.400  12.491 -1.3089 -0.7776 -0.5013
 4296TIP3    H234304   3.051   2.363  12.595 -0.0774  0.0800 -1.4056
 4297TIP3   OH234305   1.350   6.210   7.128  0.3136  0.2222  0.8378
 4297TIP3    H134306   1.332   6.304   7.125 -1.1301 -0.0462 -2.0968
 4297TIP3    H234307   1.445   6.205   7.141  0.4267  2.0533  1.0354
 4298TIP3   OH234308   0.977   3.302   1.404 -0.1906  0.2111  0.2561
 4298TIP3    H134309   0.919   3.376   1.386 -1.9584 -0.8907  1.1029
 4298TIP3    H234310   1.032   3.333   1.477 -0.2298  1.0089 -0.0377
 4299TIP3   OH234311   1.668   6.224  17.385 -0.4881 -0.1705 -0.0540
 4299TIP3    H134312   1.595   6.277  17.417 -1.6238 -1.3778 -0.5358
 4299TIP3    H234313   1.646   6.206  17.294  1.6469  1.4523 -1.0007
 4300TIP3   OH234314   2.657   0.279   5.593  0.0765  0.0582 -0.2004
 4300TIP3    H134315   2.579   0.233   5.560 -1.6849  2.9458 -0.3753
 4300TIP3    H234316   2.714   0.288   5.517 -0.8761  0.6991 -0.8532
 4301TIP3   OH234317   1.674   6.695  11.531 -0.1381 -0.5159  0.1676
 4301TIP3    H134318   1.604   6.698  11.597 -0.3756 -1.5384 -0.0186
 4301TIP3    H234319   1.670   6.780  11.487 -2.8754 -1.3711 -1.4613
 4302TIP3   OH234320   4.261   1.748  15.956 -0.2443  0.4032 -0.3469
 4302TIP3    H134321   4.316   1.752  15.878  0.2614  1.5090  0.0395
 4302TIP3    H234322   4.199   1.677  15.938  0.3802  0.0981 -1.4011
 4303TIP3   OH234323   6.110   1.117  12.297 -0.0040  0.1211 -0.4252
 4303TIP3    H134324   6.130   1.136  12.388 -0.9174 -0.4081 -0.1007
 4303TIP3    H234325   6.032   1.062  12.300 -0.9518  1.3361 -1.5799
 4304TIP3   OH234326   1.041   5.139  11.562 -0.2506  0.2694 -0.3109
 4304TIP3    H134327   1.051   5.081  11.638  3.4159  2.3736  1.1330
 4304TIP3    H234328   1.098   5.100  11.495  0.0681  0.7369 -0.3162
 4305TIP3   OH234329   6.142   2.159  12.349  0.4044 -0.1882  0.0339
 4305TIP3    H134330   6.233   2.144  12.374  0.5791 -0.0205 -0.4810
 4305TIP3    H234331   6.134   2.255  12.346  0.1656 -0.2023  0.2534
 4306TIP3   OH234332   1.356   0.411  14.962  0.5875  0.6762 -0.1248
 4306TIP3    H134333   1.268   0.424  14.996 -0.2260 -2.2970 -0.8520
 4306TIP3    H234334   1.363   0.474  14.890 -0.5282  1.6471  0.5816
 4307TIP3   OH234335   2.859   3.272   5.048  0.2453  0.0341  0.5197
 4307TIP3    H134336   2.782   3.242   5.097  0.6156 -0.0744  1.0371
 4307TIP3    H234337   2.860   3.367   5.060  0.2979  0.0151  0.6645
 4308TIP3   OH234338   2.434   2.895   0.055 -0.6480 -0.2968  0.6536
 4308TIP3    H134339   2.387   2.977   0.067  1.1959  1.3416 -2.1922
 4308TIP3    H234340   2.466   2.872   0.142 -1.6448  1.7118  1.6023
 4309TIP3   OH234341   2.043   1.672   6.434  0.5989  0.0330  0.1664
 4309TIP3    H134342   1.952   1.656   6.461  1.3140 -0.4691  2.4376
 4309TIP3    H234343   2.051   1.768   6.433 -0.3924  0.1505 -1.7966
 4310TIP3   OH234344   1.197   3.918   2.964 -0.3824  0.6353  0.7586
 4310TIP3    H134345   1.128   3.898   2.900  0.7001 -0.6295 -0.0749
 4310TIP3    H234346   1.177   4.007   2.993 -1.1169  1.1228 -1.0869
 4311TIP3   OH234347   0.894   4.638  12.520  0.2459  0.6987 -0.1768
 4311TIP3    H134348   0.949   4.667  12.447 -0.3869 -0.1549 -1.0268
 4311TIP3    H234349   0.833   4.710  12.535  2.9133  2.6649  2.2923
 4312TIP3   OH234350   0.094   3.421  15.528 -0.2040 -0.2866 -0.3832
 4312TIP3    H134351   0.003   3.390  15.532 -0.3977  0.3844  1.8148
 4312TIP3    H234352   0.145   3.352  15.570 -0.0540  0.3916  0.5792
 4313TIP3   OH234353   1.811   2.440   2.261  0.4800 -0.0734  0.0198
 4313TIP3    H134354   1.729   2.409   2.299 -0.7366  1.3334 -1.3464
 4313TIP3    H234355   1.877   2.379   2.295 -1.1303 -1.3839  0.9735
 4314TIP3   OH234356   2.746   0.516  17.373  0.3389  0.0729 -0.4151
 4314TIP3    H134357   2.803   0.460  17.320  1.4895  1.2428 -0.4729
 4314TIP3    H234358   2.715   0.459  17.443  2.1155 -0.4562 -0.0066
 4315TIP3   OH234359   0.458   3.598   0.656  0.1293  0.3271 -0.2217
 4315TIP3    H134360   0.371   3.632   0.636  0.0302 -0.0531 -0.4483
 4315TIP3    H234361   0.511   3.622   0.580  0.1219  0.1979 -0.2676
 4316TIP3   OH234362   0.986   0.277   4.954 -0.1853 -0.5701 -0.4805
 4316TIP3    H134363   0.893   0.264   4.935  0.1888 -1.1456 -2.0905
 4316TIP3    H234364   1.001   0.371   4.940 -0.4782 -0.5204 -0.4518
 4317TIP3   OH234365   6.464   5.292  16.332 -0.6862  0.0955  0.1598
 4317TIP3    H134366   6.536   5.326  16.386  0.4108  0.6198 -1.5801
 4317TIP3    H234367   6.471   5.197  16.341  0.2567  0.1378 -0.0180
 4318TIP3   OH234368   2.759   1.524  11.540  0.4858 -0.2180  0.7304
 4318TIP3    H134369   2.729   1.502  11.452 -1.1091  0.0544  1.1768
 4318TIP3    H234370   2.834   1.582  11.525  0.1580 -0.0596 -0.4434
 4319TIP3   OH234371   0.845   3.319   3.019  0.2223  0.1262  0.2407
 4319TIP3    H134372   0.763   3.337   3.066 -0.0456  1.3107 -0.6397
 4319TIP3    H234373   0.817   3.273   2.940  0.2955  1.2427 -0.4597
 4320TIP3   OH234374   3.025   4.496   4.740  0.1722 -0.1959 -0.1804
 4320TIP3    H134375   3.069   4.421   4.780  1.8845 -0.7799 -2.8251
 4320TIP3    H234376   3.090   4.567   4.745 -0.0709  0.0763 -0.7775
 4321TIP3   OH234377   0.081   1.403  12.107 -0.0579  0.9499  1.0531
 4321TIP3    H134378   0.038   1.488  12.101  0.0165  0.9261  0.0426
 4321TIP3    H234379   0.137   1.399  12.029 -0.5385 -0.2875  0.7531
 4322TIP3   OH234380   0.833   2.192   3.921  0.2400  0.4108 -0.2144
 4322TIP3    H134381   0.744   2.213   3.950  0.2068  1.0300 -0.7466
 4322TIP3    H234382   0.823   2.167   3.829  0.3272 -1.6390  0.2900
 4323TIP3   OH234383   0.520   0.998   1.340 -0.2972  0.1707  0.1063
 4323TIP3    H134384   0.466   1.065   1.382  1.5561  1.0675  1.1816
 4323TIP3    H234385   0.575   0.964   1.411  2.3167  1.0927 -1.3382
 4324TIP3   OH234386   3.921   3.274   4.322 -0.0391  0.5805  0.0357
 4324TIP3    H134387   3.997   3.290   4.267  0.5791  1.1494  1.0106
 4324TIP3    H234388   3.952   3.292   4.411 -0.9026 -0.6383  0.6123
 4325TIP3   OH234389   2.433   0.867   6.006 -0.5173  0.1612 -0.0894
 4325TIP3    H134390   2.389   0.930   5.949  0.5623  1.5888  0.5824
 4325TIP3    H234391   2.519   0.854   5.966 -0.4664 -0.3565  0.1674
 4326TIP3   OH234392   4.981   5.094  17.581  0.1883 -0.3144 -0.3516
 4326TIP3    H134393   4.967   5.004  17.611 -1.3567 -0.3953 -1.2137
 4326TIP3    H234394   5.068   5.116  17.613  0.4305 -1.9653  0.2478
 4327TIP3   OH234395   1.815   0.853  15.405 -0.5647 -0.1837  0.2177
 4327TIP3    H134396   1.861   0.936  15.393  0.9881 -1.0639 -0.1750
 4327TIP3    H234397   1.723   0.878  15.415 -0.1480  1.5666  0.0340
 4328TIP3   OH234398   0.316   0.189   3.684 -0.2410  0.3361  0.0840
 4328TIP3    H134399   0.261   0.111   3.698  0.4891  0.3491  4.3516
 4328TIP3    H234400   0.393   0.174   3.738  1.4935  2.6910 -1.5258
 4329TIP3   OH234401   5.194   3.869   1.961  0.3118  0.1238 -0.2538
 4329TIP3    H134402   5.242   3.915   2.030 -2.5869 -0.3879  2.3248
 4329TIP3    H234403   5.124   3.929   1.936  0.3084 -0.3897 -1.5469
 4330TIP3   OH234404   1.955   3.442   1.176  0.0374  0.1536 -0.6298
 4330TIP3    H134405   1.946   3.380   1.104 -2.2866 -0.0172 -0.2678
 4330TIP3    H234406   1.969   3.388   1.254 -1.0538  0.1023 -0.4534
 4331TIP3   OH234407   1.740   2.294  15.225 -0.8466  0.7742 -0.4286
 4331TIP3    H134408   1.810   2.357  15.241 -0.3927  0.5296 -1.3873
 4331TIP3    H234409   1.757   2.223  15.286 -1.1946  1.4302  0.4585
 4332TIP3   OH234410   2.935   3.814   0.346 -0.1620 -0.0114 -0.5382
 4332TIP3    H134411   3.008   3.753   0.351 -0.6367 -0.5480 -0.1683
 4332TIP3    H234412   2.899   3.817   0.434 -1.1427 -0.4382 -0.9055
 4333TIP3   OH234413   6.561   5.943  14.953  0.1318 -0.3892 -0.3010
 4333TIP3    H134414   6.608   5.894  15.020 -1.0866  0.1071  0.9638
 4333TIP3    H234415   6.544   5.879  14.883 -0.5735 -1.5138  0.8714
 4334TIP3   OH234416   2.176   0.536  15.385  0.0360  0.0967 -0.3437
 4334TIP3    H134417   2.185   0.564  15.294  0.2012 -0.5887 -0.5426
 4334TIP3    H234418   2.093   0.576  15.414 -0.3071 -0.1505 -0.9715
 4335TIP3   OH234419   5.505   4.343  12.529 -0.4718  0.0382  0.0556
 4335TIP3    H134420   5.570   4.287  12.487  0.7451  1.9717 -0.7921
 4335TIP3    H234421   5.482   4.407  12.463  0.1159  2.0677  1.6945
 4336TIP3   OH234422   1.829   4.271  14.369  0.5812 -0.1030  0.0764
 4336TIP3    H134423   1.764   4.238  14.432  0.9778  2.7527  2.1873
 4336TIP3    H234424   1.907   4.286  14.422  2.2020 -1.0635 -1.9305
 4337TIP3   OH234425   0.219   5.094  11.959 -0.4210  0.0535  0.4542
 4337TIP3    H134426   0.237   5.141  12.040  0.8576 -0.0241  0.2387
 4337TIP3    H234427   0.304   5.056  11.934 -0.5293  0.9333 -1.4524
 4338TIP3   OH234428   3.057   5.958   3.143 -1.0555 -0.1471 -0.2085
 4338TIP3    H134429   3.062   6.012   3.065 -1.6402  1.7608  1.0122
 4338TIP3    H234430   2.965   5.930   3.146 -1.2612  0.5668  0.2857
 4339TIP3   OH234431   0.698   1.717   3.621 -0.5356  0.3829 -0.3752
 4339TIP3    H134432   0.786   1.753   3.628 -1.3164  2.6368 -1.3527
 4339TIP3    H234433   0.669   1.741   3.533 -1.6242 -1.5703 -0.5955
 4340TIP3   OH234434   0.277   4.014  15.290 -0.0593  0.3220 -0.3323
 4340TIP3    H134435   0.207   3.959  15.256  0.9399 -1.6593  0.6266
 4340TIP3    H234436   0.307   3.968  15.369  2.1147  1.2439 -0.5551
 4341TIP3   OH234437   3.463   0.065   0.499 -0.5072  0.1599 -0.1501
 4341TIP3    H134438   3.507   0.001   0.443 -2.0274  0.4214 -1.7195
 4341TIP3    H234439   3.409   0.012   0.558 -1.6685 -0.0553 -1.3653
 4342TIP3   OH234440   5.945   3.099  10.928 -0.1398  0.2741  0.0053
 4342TIP3    H134441   5.965   3.015  10.886 -1.6562 -0.4922  0.7186
 4342TIP3    H234442   6.027   3.148  10.924  0.4727 -0.7808 -1.4736
 4343TIP3   OH234443   0.688   3.103  17.093 -0.5942  0.3478 -0.4313
 4343TIP3    H134444   0.655   3.051  17.019  0.9855 -2.7425  0.8567
 4343TIP3    H234445   0.612   3.111  17.151 -0.6087 -1.8803 -0.0307
 4344TIP3   OH234446   6.244   1.628  13.173 -0.0442  0.2890  0.2151
 4344TIP3    H134447   6.177   1.597  13.233  0.2915 -1.5911 -0.3257
 4344TIP3    H234448   6.315   1.659  13.230 -0.0941 -0.6373  0.8024
 4345TIP3   OH234449   0.763   5.936   0.998 -0.4273  0.3298 -1.2446
 4345TIP3    H134450   0.688   5.935   1.057  1.0478  2.8879  0.8755
 4345TIP3    H234451   0.818   6.008   1.029  4.0926 -2.7204 -1.1289
 4346TIP3   OH234452   2.068   6.260  15.120  0.3189 -0.2111 -0.1466
 4346TIP3    H134453   2.150   6.302  15.097 -0.1934  0.3391 -1.0080
 4346TIP3    H234454   2.000   6.321  15.090 -0.4260 -1.2559 -0.6333
 4347TIP3   OH234455   2.254   3.061   3.199 -0.3578 -0.1567  0.0432
 4347TIP3    H134456   2.282   2.970   3.214  1.6942  0.4116 -0.1765
 4347TIP3    H234457   2.158   3.056   3.200 -0.3365 -1.9384  2.5008
 4348TIP3   OH234458   3.917   2.962  16.765 -0.2517 -0.3038 -0.6147
 4348TIP3    H134459   3.990   3.014  16.800 -0.7648  0.2094 -0.2887
 4348TIP3    H234460   3.845   3.024  16.758 -0.9547 -1.0234  0.0188
 4349TIP3   OH234461   0.396   3.114   1.728 -0.1330 -0.0501  0.1260
 4349TIP3    H134462   0.402   3.206   1.753  0.9166  0.4082 -1.6411
 4349TIP3    H234463   0.305   3.103   1.700 -0.1103  0.6391 -0.2574
 4350TIP3   OH234464   5.393   0.331  12.727 -0.1289  0.6922 -0.1028
 4350TIP3    H134465   5.433   0.281  12.798  2.3974  1.0510 -1.1489
 4350TIP3    H234466   5.354   0.408  12.769  1.0176  0.7300  0.9352
 4351TIP3   OH234467   0.512   5.244  11.975  0.1954  0.3660 -0.1308
 4351TIP3    H134468   0.601   5.267  11.947  0.3807  0.8723  0.8364
 4351TIP3    H234469   0.524   5.200  12.059 -0.5714  2.0828  0.9231
 4352TIP3   OH234470   6.402   2.427   0.116  0.4771 -0.0771 -0.0215
 4352TIP3    H134471   6.367   2.360   0.173 -0.8493  0.8009  0.2247
 4352TIP3    H234472   6.470   2.471   0.168  0.6679 -0.5756  0.1509
 4353TIP3   OH234473   5.640   5.875  17.518 -0.2989 -0.0273  0.2261
 4353TIP3    H134474   5.682   5.811  17.460 -0.0206 -1.8542  2.2938
 4353TIP3    H234475   5.712   5.933  17.544 -0.3722  0.6423 -0.9694
 4354TIP3   OH234476   2.257   5.671   0.916  0.1816  0.1390  0.2571
 4354TIP3    H134477   2.203   5.595   0.942 -1.1357  0.8617 -0.2457
 4354TIP3    H234478   2.276   5.715   0.999  0.5706 -0.4931  0.5099
 4355TIP3   OH234479   6.187   2.607  17.250  1.0767  0.1830 -1.0045
 4355TIP3    H134480   6.239   2.568  17.321 -0.0091  0.7804  0.1722
 4355TIP3    H234481   6.097   2.585  17.273  0.4156  3.1579 -0.3690
 4356TIP3   OH234482   5.858   0.879   0.701  0.0676  0.3224 -0.1384
 4356TIP3    H134483   5.772   0.888   0.743  0.5258  0.0219  0.9016
 4356TIP3    H234484   5.896   0.966   0.705  1.1661 -0.1997  2.4901
 4357TIP3   OH234485   5.914   1.014  15.899 -0.1214  0.4403 -0.0175
 4357TIP3    H134486   5.990   0.956  15.896 -1.0129 -0.7437 -0.7331
 4357TIP3    H234487   5.885   1.019  15.807  0.6412  3.0321 -0.1908
 4358TIP3   OH234488   0.907   1.448  12.201 -0.2638  0.1511 -0.6359
 4358TIP3    H134489   0.849   1.416  12.270  0.4720  1.0444  0.4504
 4358TIP3    H234490   0.848   1.476  12.131 -1.1604  0.7834  0.3267
 4359TIP3   OH234491   1.051   2.351  14.461 -0.7171  0.1028  0.1287
 4359TIP3    H134492   1.112   2.306  14.520  0.0075 -0.0788 -0.7452
 4359TIP3    H234493   1.083   2.330  14.373 -1.8319  0.3036 -0.3366
 4360TIP3   OH234494   5.170   2.058   5.671 -0.2696 -0.1706  0.0126
 4360TIP3    H134495   5.209   2.140   5.700 -0.2342  0.5502 -1.9417
 4360TIP3    H234496   5.208   1.992   5.728  2.3198  0.7445 -0.5125
 4361TIP3   OH234497   5.897   1.375   7.105 -0.1927 -0.3451  0.0525
 4361TIP3    H134498   5.924   1.300   7.158 -1.6912  0.0478  1.4487
 4361TIP3    H234499   5.806   1.356   7.080 -0.2368  0.5064 -0.4871
 4362TIP3   OH234500   6.363   2.322   2.671 -0.3640  0.7661 -0.7274
 4362TIP3    H134501   6.446   2.370   2.664  0.0356  0.2961  0.5345
 4362TIP3    H234502   6.389   2.229   2.667 -0.7439  0.6034  0.2823
 4363TIP3   OH234503   3.963   2.815  15.497  0.6307  0.0185  0.0378
 4363TIP3    H134504   3.963   2.720  15.497  1.6234  0.0027 -1.1302
 4363TIP3    H234505   3.873   2.840  15.478  0.6773 -0.7007 -1.1634
 4364TIP3   OH234506   4.068   0.725  15.904  0.6003 -0.3249 -0.3222
 4364TIP3    H134507   4.146   0.718  15.961 -0.1236 -0.4502  0.6843
 4364TIP3    H234508   3.994   0.713  15.964 -0.1695 -2.2968 -1.5771
 4365TIP3   OH234509   4.663   2.737  13.172  0.1995 -0.1322  0.4853
 4365TIP3    H134510   4.675   2.678  13.098 -1.9559  1.1345 -0.9826
 4365TIP3    H234511   4.571   2.727  13.196  0.4063  0.8332  1.8306
 4366TIP3   OH234512   6.626   3.272   1.934 -0.2241  0.0739 -0.4443
 4366TIP3    H134513   6.605   3.180   1.921 -1.0249 -0.0080  1.1259
 4366TIP3    H234514   6.615   3.286   2.029  0.5234  1.6205 -0.5496
 4367TIP3   OH234515   2.026   4.449   6.174  0.0364  0.1434 -0.5513
 4367TIP3    H134516   2.035   4.354   6.181  0.2637  0.1665 -0.5245
 4367TIP3    H234517   2.041   4.481   6.263  0.5912  0.2534 -0.6803
 4368TIP3   OH234518   4.832   0.834  14.748  0.6283  0.6620  0.4341
 4368TIP3    H134519   4.852   0.819  14.655  2.2533 -0.0040  0.8588
 4368TIP3    H234520   4.880   0.914  14.771  2.1139 -0.4165  1.2329
 4369TIP3   OH234521   5.678   3.652  17.313 -1.1365  0.4988  0.1782
 4369TIP3    H134522   5.608   3.687  17.368  0.6721  2.3139  1.4807
 4369TIP3    H234523   5.697   3.566  17.350 -1.5612  0.6945  0.8687
 4370TIP3   OH234524   2.948   5.966  11.842 -0.0895  0.2220 -0.1731
 4370TIP3    H134525   2.981   6.056  11.845 -0.1945  0.2564  3.3250
 4370TIP3    H234526   3.017   5.913  11.881 -1.0971 -0.8415  0.2346
 4371TIP3   OH234527   2.736   0.001  13.022  0.0239  0.0974 -0.0090
 4371TIP3    H134528   2.720  -0.035  13.109 -2.7273 -1.6076 -1.0699
 4371TIP3    H234529   2.830  -0.009  13.008  0.7311  1.3547  3.0707
 4372TIP3   OH234530   6.702   5.435  13.192 -0.2374 -0.4135  0.0501
 4372TIP3    H134531   6.612   5.463  13.175  0.0451  0.3744 -0.1741
 4372TIP3    H234532   6.754   5.515  13.187  0.5489 -0.9287 -0.2942
 4373TIP3   OH234533   5.681   5.884  11.925  0.2564 -0.1380  0.2043
 4373TIP3    H134534   5.629   5.864  11.848 -0.9721 -1.5602  1.3390
 4373TIP3    H234535   5.764   5.839  11.911 -0.3539 -1.2924  0.1466
 4374TIP3   OH234536   5.745   5.374  14.953 -0.1370 -0.4782 -0.1064
 4374TIP3    H134537   5.650   5.377  14.941 -0.1039  1.1025 -0.1854
 4374TIP3    H234538   5.759   5.408  15.041  0.4302  1.1517 -0.7727
 4375TIP3   OH234539   2.751   2.799   4.846 -0.5006 -0.4710  0.3022
 4375TIP3    H134540   2.773   2.758   4.763  1.3769 -1.7867  1.3784
 4375TIP3    H234541   2.773   2.892   4.834  1.1112 -0.8941 -0.2473
 4376TIP3   OH234542   6.088   6.599   4.477  0.3268  0.1395 -0.4516
 4376TIP3    H134543   6.148   6.651   4.530  1.6857  0.2573 -2.0193
 4376TIP3    H234544   6.139   6.522   4.452 -0.7458 -0.5907 -0.4610
 4377TIP3   OH234545   2.160   6.387  11.902 -0.0156  0.4528 -0.2843
 4377TIP3    H134546   2.185   6.479  11.894 -1.9822  0.9363 -1.7036
 4377TIP3    H234547   2.215   6.353  11.972  2.6254  2.0297 -1.4173
 4378TIP3   OH234548   5.935   3.773   1.194  0.0595  0.1201 -0.2658
 4378TIP3    H134549   5.870   3.704   1.208  1.2544 -1.1681 -0.8277
 4378TIP3    H234550   5.897   3.851   1.236  0.0522 -1.5871  3.2663
 4379TIP3   OH234551   3.970   0.184   2.836  0.2473  0.9046  0.1197
 4379TIP3    H134552   4.048   0.172   2.782 -1.5002 -1.1977 -2.1734
 4379TIP3    H234553   4.002   0.180   2.926  2.8375  0.7905 -0.7151
 4380TIP3   OH234554   1.162   1.237   0.228  0.6026 -0.3261 -1.3262
 4380TIP3    H134555   1.069   1.239   0.252  0.9979 -1.7924  0.5523
 4380TIP3    H234556   1.202   1.304   0.283  0.7767 -0.2386 -1.5596
 4381TIP3   OH234557   1.624   6.343  11.627  0.3103  0.1652 -0.5938
 4381TIP3    H134558   1.642   6.288  11.551  0.0430  0.3258 -0.7759
 4381TIP3    H234559   1.582   6.284  11.690 -0.1687  0.2044 -0.8702
 4382TIP3   OH234560   5.200   2.355  12.016  0.7715 -0.2026 -0.6900
 4382TIP3    H134561   5.107   2.347  11.997  0.5186  1.4159 -0.2669
 4382TIP3    H234562   5.238   2.273  11.985 -0.7647 -0.8360 -0.9862
 4383TIP3   OH234563   3.168   1.353  16.119  0.5505 -0.3261  0.1041
 4383TIP3    H134564   3.130   1.433  16.155  0.9364  0.9954 -2.2106
 4383TIP3    H234565   3.136   1.283  16.176 -1.7591  1.1869  0.7991
 4384TIP3   OH234566   0.660   4.624  12.005  0.0407  0.0246 -0.2750
 4384TIP3    H134567   0.745   4.585  11.987  0.3052 -2.1141  4.2078
 4384TIP3    H234568   0.679   4.692  12.071 -1.5504  0.8158 -0.5843
 4385TIP3   OH234569   0.296   4.752  15.720  0.6558  0.5756 -0.3733
 4385TIP3    H134570   0.315   4.729  15.811  0.7576 -0.3332 -0.6186
 4385TIP3    H234571   0.353   4.697  15.668 -2.3120 -2.1074 -1.1222
 4386TIP3   OH234572   5.778   3.937   4.059  0.2809  0.1900 -0.4599
 4386TIP3    H134573   5.765   3.845   4.080 -0.8414  0.3759 -0.2620
 4386TIP3    H234574   5.852   3.964   4.114 -0.8894 -0.0025  1.2981
 4387TIP3   OH234575   2.248   1.024  12.269  0.3906 -0.9099  0.2488
 4387TIP3    H134576   2.302   0.950  12.296  1.7397 -0.6242 -1.4708
 4387TIP3    H234577   2.260   1.089  12.338  0.5295 -1.6459  0.9327
 4388TIP3   OH234578   4.334   1.809   0.605  0.3180  0.0893 -0.2829
 4388TIP3    H134579   4.287   1.739   0.650 -0.6533 -0.7648 -2.4608
 4388TIP3    H234580   4.414   1.820   0.655 -0.3350 -1.3191  1.1750
 4389TIP3   OH234581   4.553   1.131   5.030 -0.3453  0.3531 -0.5506
 4389TIP3    H134582   4.610   1.067   4.988  2.2136  1.8927  0.2960
 4389TIP3    H234583   4.577   1.214   4.990  0.1344  1.4585  1.8260
 4390TIP3   OH234584   2.132   1.812   1.450  0.1836 -1.1361  0.4186
 4390TIP3    H134585   2.095   1.848   1.369 -0.2935  0.0165  1.1090
 4390TIP3    H234586   2.059   1.816   1.512  0.7663 -1.2686  1.1148
 4391TIP3   OH234587   5.490   3.133  16.084  0.1136  0.0514  0.4482
 4391TIP3    H134588   5.405   3.174  16.099 -0.3065  0.1399 -1.8709
 4391TIP3    H234589   5.553   3.193  16.124 -0.7630  1.0582  0.3507
 4392TIP3   OH234590   5.090   6.505   1.216 -0.0546 -0.7555  0.0007
 4392TIP3    H134591   5.044   6.585   1.244  0.5660  0.2225 -1.6502
 4392TIP3    H234592   5.136   6.475   1.295 -0.3879  0.4409  0.6784
 4393TIP3   OH234593   4.059   5.808  12.007 -0.1511  0.3804  0.4663
 4393TIP3    H134594   4.042   5.807  12.101  0.3475 -1.1871  0.5631
 4393TIP3    H234595   3.972   5.800  11.967 -0.3229  0.5858  0.8006
 4394TIP3   OH234596   6.686   3.414  13.016  0.3233 -0.3263  0.1007
 4394TIP3    H134597   6.755   3.365  13.062 -0.0713 -0.4046  0.6235
 4394TIP3    H234598   6.733   3.477  12.962  0.8092 -0.0311  0.8438
 4395TIP3   OH234599   2.575   4.683  16.544 -0.0365  0.0011  0.6887
 4395TIP3    H134600   2.612   4.772  16.545 -0.2555  0.0942  1.7706
 4395TIP3    H234601   2.548   4.670  16.454  1.7166  0.3117  0.0675
 4396TIP3   OH234602   3.272   5.771   1.008 -0.1475 -0.2886  0.0138
 4396TIP3    H134603   3.343   5.751   1.070 -0.6434 -0.7558  0.4372
 4396TIP3    H234604   3.301   5.733   0.926  0.5846  0.4572 -0.0932
 4397TIP3   OH234605   4.036   1.711  15.132  0.3304  0.0319  0.5123
 4397TIP3    H134606   4.087   1.721  15.052  0.9021 -1.0582  0.7166
 4397TIP3    H234607   4.035   1.617  15.148 -0.0663  0.2064  1.6020
 4398TIP3   OH234608   0.536   6.201   1.415 -0.2489  0.0223  0.2283
 4398TIP3    H134609   0.500   6.223   1.501 -1.7949 -0.2201 -0.3260
 4398TIP3    H234610   0.519   6.277   1.361  3.1578  1.3170  0.7417
 4399TIP3   OH234611   5.944   3.826  13.929  0.5361  0.0991  0.0400
 4399TIP3    H134612   5.874   3.812  13.865  0.5167 -3.2404  0.5925
 4399TIP3    H234613   5.951   3.921  13.937 -1.7943  0.5871 -2.3289
 4400TIP3   OH234614   2.115   0.264  13.701  0.3632  0.6524  0.2458
 4400TIP3    H134615   2.084   0.176  13.725 -1.2413  1.4258  1.1422
 4400TIP3    H234616   2.156   0.297  13.781  1.1516  0.6656 -0.1539
 4401TIP3   OH234617   4.826   4.775   5.187 -0.5602  0.3220 -0.5480
 4401TIP3    H134618   4.817   4.697   5.131 -2.3692 -0.6057  0.9181
 4401TIP3    H234619   4.772   4.841   5.143 -0.4364  0.2008 -0.8869
 4402TIP3   OH234620   3.583   4.020   3.986  0.4667 -0.9075  0.3185
 4402TIP3    H134621   3.541   4.018   3.900 -0.5479 -4.0098  0.7501
 4402TIP3    H234622   3.676   4.019   3.968  0.3024 -3.4048 -0.9092
 4403TIP3   OH234623   2.066   2.795  17.216  0.1144  0.8919 -0.5929
 4403TIP3    H134624   2.057   2.880  17.261  1.0409  0.5203  0.3576
 4403TIP3    H234625   2.123   2.814  17.141  1.5246  0.8693  0.4329
 4404TIP3   OH234626   6.028   6.674  13.664  0.3585  0.1055 -0.5383
 4404TIP3    H134627   5.987   6.739  13.721 -0.4557 -0.5439 -0.3635
 4404TIP3    H234628   5.981   6.681  13.581 -0.0790 -0.5944 -0.3613
 4405TIP3   OH234629   2.938   2.477   3.448 -0.4277 -0.1261 -0.3124
 4405TIP3    H134630   2.929   2.447   3.357 -2.3171  0.2547 -0.2808
 4405TIP3    H234631   2.911   2.569   3.445  1.8214  0.6278  0.2436
 4406TIP3   OH234632   0.823   4.493   6.106  0.2804  0.1180 -0.0446
 4406TIP3    H134633   0.856   4.466   6.021 -0.8023  0.9891 -0.7835
 4406TIP3    H234634   0.900   4.499   6.162  1.0427 -0.2123 -1.0440
 4407TIP3   OH234635   0.745   2.626   1.883 -0.3212 -0.2255 -0.2910
 4407TIP3    H134636   0.749   2.692   1.953 -1.2437  1.2188 -1.5421
 4407TIP3    H234637   0.835   2.620   1.851 -0.0839 -0.1603  0.3412
 4408TIP3   OH234638   5.441   6.124  13.248  0.1402 -0.2236  0.1679
 4408TIP3    H134639   5.376   6.057  13.271  1.2880 -2.0670 -1.6153
 4408TIP3    H234640   5.524   6.087  13.277  0.7556  0.6768 -0.4224
 4409TIP3   OH234641   3.399   3.706  11.525 -0.2165 -0.8644  0.4934
 4409TIP3    H134642   3.415   3.656  11.604  1.4197 -1.3303 -0.0919
 4409TIP3    H234643   3.431   3.794  11.545 -0.7840 -0.6993  0.6916
 4410TIP3   OH234644   0.880   5.106  17.111  0.3745  0.4582  0.0417
 4410TIP3    H134645   0.952   5.169  17.102  0.4753  0.5472  1.3214
 4410TIP3    H234646   0.816   5.135  17.045  1.1123  0.9093 -0.5029
 4411TIP3   OH234647   4.063   1.632   1.368  0.0131 -0.0780  0.0031
 4411TIP3    H134648   4.141   1.626   1.422  1.3233  1.4968 -1.6099
 4411TIP3    H234649   4.062   1.550   1.318  1.3936  0.4469 -0.9192
 4412TIP3   OH234650   3.647   5.916   3.706  0.1442 -0.5597  0.1417
 4412TIP3    H134651   3.681   6.005   3.719  0.2722 -0.5682 -0.1237
 4412TIP3    H234652   3.574   5.927   3.645 -1.7833 -0.2539  2.4012
 4413TIP3   OH234653   0.791   2.718  16.994  0.4346 -0.1988 -0.4465
 4413TIP3    H134654   0.882   2.745  16.989  0.8440 -1.1908  1.0872
 4413TIP3    H234655   0.785   2.642  16.935  0.3248  0.4948 -1.3511
 4414TIP3   OH234656   2.499   3.999   4.436  0.3553  0.4721 -0.3283
 4414TIP3    H134657   2.555   4.046   4.373  0.2377 -0.1425 -0.9053
 4414TIP3    H234658   2.417   3.986   4.389 -0.0554  0.8124  0.2914
 4415TIP3   OH234659   5.642   4.262  17.379 -0.3684  0.1353  0.3995
 4415TIP3    H134660   5.736   4.273  17.387 -0.6162  1.5476  1.9545
 4415TIP3    H234661   5.606   4.308  17.455 -2.2864 -0.7939  0.1160
 4416TIP3   OH234662   4.853   2.319   0.681  0.1358 -0.2990  0.2110
 4416TIP3    H134663   4.823   2.397   0.729 -1.1429 -1.3329  1.1664
 4416TIP3    H234664   4.931   2.349   0.634 -0.5643  1.6814  0.1829
 4417TIP3   OH234665   1.193   5.182  16.594  0.4574 -0.5096 -0.7478
 4417TIP3    H134666   1.136   5.219  16.661  2.5291  0.5838  0.5169
 4417TIP3    H234667   1.175   5.234  16.515 -0.4731 -0.4004 -0.4777
 4418TIP3   OH234668   3.309   3.425  16.500  0.1367 -0.8836  0.6440
 4418TIP3    H134669   3.282   3.345  16.545  0.1967 -1.0806  0.3358
 4418TIP3    H234670   3.343   3.395  16.416 -0.7734 -0.4513  0.1072
 4419TIP3   OH234671   5.350   4.424   4.568 -0.1762 -0.8218  0.7538
 4419TIP3    H134672   5.345   4.356   4.501 -0.8908  0.3027 -0.3697
 4419TIP3    H234673   5.281   4.486   4.545  0.2046  0.0915  1.9760
 4420TIP3   OH234674   4.052   3.464  13.654  0.1891  0.0483  0.6229
 4420TIP3    H134675   4.017   3.462  13.564  0.1067 -0.8455  0.6634
 4420TIP3    H234676   4.061   3.371  13.677  1.5040  0.2656  1.0366
 4421TIP3   OH234677   4.127   2.025   2.575  0.1555  0.5740  0.2866
 4421TIP3    H134678   4.183   2.087   2.528 -0.8095 -0.2671 -2.1310
 4421TIP3    H234679   4.063   1.997   2.510 -0.5804 -1.5694  1.8287
 4422TIP3   OH234680   2.192   4.572   4.855 -0.0318 -0.2515 -0.5601
 4422TIP3    H134681   2.139   4.535   4.784  0.6257 -0.6274 -0.8682
 4422TIP3    H234682   2.129   4.593   4.924 -0.5422 -1.0149 -0.7810
 4423TIP3   OH234683   4.208   0.763   2.655  0.6170  0.5420  0.9379
 4423TIP3    H134684   4.213   0.690   2.594  0.8100  1.2860  0.0419
 4423TIP3    H234685   4.142   0.737   2.719 -0.1550  0.0783 -0.0322
 4424TIP3   OH234686   0.607   1.459   3.379 -0.0148 -0.2785  0.2052
 4424TIP3    H134687   0.659   1.507   3.315  1.0097  1.2673  2.0836
 4424TIP3    H234688   0.662   1.457   3.458 -0.2284 -4.1395  0.4442
 4425TIP3   OH234689   6.565   0.914  15.822  0.3439 -0.1568 -0.2300
 4425TIP3    H134690   6.471   0.928  15.812  0.1929 -1.4327 -0.8308
 4425TIP3    H234691   6.601   0.925  15.734  1.1002  2.3891  0.3234
 4426TIP3   OH234692   0.457   5.240  13.427  0.5082  0.5719  0.4544
 4426TIP3    H134693   0.428   5.191  13.504  0.7166  0.3890  0.4182
 4426TIP3    H234694   0.401   5.209  13.356  0.5632  0.4659  0.4558
 4427TIP3   OH234695   1.678   4.059   4.373 -0.5986  0.0341 -0.5121
 4427TIP3    H134696   1.681   4.153   4.354 -1.2892  0.2536  0.4093
 4427TIP3    H234697   1.767   4.037   4.401 -0.5348  0.5019 -0.3349
 4428TIP3   OH234698   4.068   0.915  12.515  0.3297 -0.5511  0.4448
 4428TIP3    H134699   4.093   0.864  12.592  0.0283 -0.5640  0.5379
 4428TIP3    H234700   3.973   0.902  12.508  0.4104 -0.8402 -0.1435
 4429TIP3   OH234701   1.302   3.270   4.363  0.4403  0.5387 -0.0409
 4429TIP3    H134702   1.375   3.326   4.387  1.6762 -0.9137 -0.2463
 4429TIP3    H234703   1.319   3.246   4.272  0.6483 -1.1370  0.3936
 4430TIP3   OH234704   0.500   4.395   2.721 -0.7708  0.2638  0.2376
 4430TIP3    H134705   0.519   4.477   2.675 -1.0050  0.7531  0.9801
 4430TIP3    H234706   0.585   4.363   2.749 -0.8080  1.4165  1.8414
 4431TIP3   OH234707   3.401   5.797  13.324 -0.5548 -0.4250  0.2492
 4431TIP3    H134708   3.461   5.776  13.396 -0.2710 -0.3905  0.0226
 4431TIP3    H234709   3.442   5.760  13.247  0.1561  1.2842 -0.2376
 4432TIP3   OH234710   4.196   3.152  15.699  0.3335  0.4513 -0.1686
 4432TIP3    H134711   4.266   3.121  15.641 -1.3714 -0.7496 -1.6792
 4432TIP3    H234712   4.172   3.238  15.665 -0.8512 -0.3676 -1.4889
 4433TIP3   OH234713   2.866   4.148  12.548  0.7674 -0.2261  0.0272
 4433TIP3    H134714   2.854   4.128  12.640  2.8890 -2.0294 -0.0327
 4433TIP3    H234715   2.800   4.095  12.503  0.8320 -0.6237  0.4031
 4434TIP3   OH234716   4.355   5.241  16.285  0.5255 -0.2652 -0.1929
 4434TIP3    H134717   4.354   5.164  16.228  1.0885 -0.7418  0.4351
 4434TIP3    H234718   4.443   5.278  16.275  0.1045  0.6073 -0.8790
 4435TIP3   OH234719   2.503   4.608  15.739 -0.3874  0.3020  0.0315
 4435TIP3    H134720   2.590   4.595  15.778 -1.1791  0.0643  1.8453
 4435TIP3    H234721   2.492   4.703  15.737  1.4539  0.6270 -4.0167
 4436TIP3   OH234722   0.639   1.551  16.131  0.4585 -0.1667 -0.3273
 4436TIP3    H134723   0.552   1.582  16.153  0.1199 -1.3098  0.0042
 4436TIP3    H234724   0.657   1.589  16.045 -0.9777 -1.0694 -1.0710
 4437TIP3   OH234725   0.049   0.614   2.607  0.0229 -0.3263  0.0044
 4437TIP3    H134726  -0.028   0.595   2.661 -1.0399 -1.2823 -1.7430
 4437TIP3    H234727   0.110   0.543   2.626 -1.0235 -1.6127 -1.2072
 4438TIP3   OH234728   0.872   5.551   2.404  0.1600  0.1397  0.5459
 4438TIP3    H134729   0.887   5.528   2.312  1.5074  0.5089  0.6521
 4438TIP3    H234730   0.928   5.628   2.418  0.4835 -0.3180  1.8428
 4439TIP3   OH234731   2.627   0.124  12.554 -0.7651 -0.1480 -0.1441
 4439TIP3    H134732   2.615   0.211  12.518 -2.2532 -0.1292  0.3179
 4439TIP3    H234733   2.685   0.080  12.493 -0.2215  1.0736 -0.5279
 4440TIP3   OH234734   3.981   2.814   1.795  0.4645  0.3934 -0.2563
 4440TIP3    H134735   3.897   2.860   1.793  0.3749  0.2226 -1.4302
 4440TIP3    H234736   4.019   2.836   1.880 -0.8250  0.3576  0.3455
 4441TIP3   OH234737   2.649   2.307   2.063 -0.1662  0.8174  0.0408
 4441TIP3    H134738   2.623   2.215   2.065  0.2023  0.7178  0.8473
 4441TIP3    H234739   2.573   2.354   2.096  0.2085  0.6420  1.1977
 4442TIP3   OH234740   6.236   1.190   0.972  0.2939  0.0028 -0.3386
 4442TIP3    H134741   6.272   1.113   0.928 -0.1112 -0.3927  0.0030
 4442TIP3    H234742   6.285   1.263   0.937 -0.5458 -0.2001 -2.0275
 4443TIP3   OH234743   2.916   3.108  15.112 -0.4470  0.4219 -0.0574
 4443TIP3    H134744   2.990   3.053  15.086 -0.9416 -0.8588  1.1336
 4443TIP3    H234745   2.924   3.186  15.056  3.2722  1.5548  1.6714
 4444TIP3   OH234746   5.527   5.561   6.348 -0.0406 -0.5716 -0.0660
 4444TIP3    H134747   5.604   5.596   6.391 -0.4688 -1.1359  1.1931
 4444TIP3    H234748   5.453   5.592   6.400 -0.4726 -2.7164  0.6815
 4445TIP3   OH234749   0.520   0.091   3.458  0.0283 -0.7547 -0.1464
 4445TIP3    H134750   0.501   0.025   3.392  0.6346 -1.1520  0.0669
 4445TIP3    H234751   0.449   0.083   3.521 -0.3352 -0.6464 -0.5358
 4446TIP3   OH234752   0.435   1.839  16.868  0.6578 -0.2330 -0.6107
 4446TIP3    H134753   0.350   1.851  16.824  0.7085  2.4813 -0.1234
 4446TIP3    H234754   0.417   1.773  16.935 -1.0841  0.2928 -0.5080
 4447TIP3   OH234755   6.527   0.210   5.675  0.0874  0.1332  0.1047
 4447TIP3    H134756   6.570   0.295   5.664  1.8060 -0.7266 -0.1296
 4447TIP3    H234757   6.459   0.209   5.608  2.2973 -0.0136 -2.3161
 4448TIP3   OH234758   6.463   0.374   3.146  0.1298 -0.5431 -0.3373
 4448TIP3    H134759   6.486   0.294   3.097 -1.2307 -0.2459 -1.5306
 4448TIP3    H234760   6.524   0.440   3.112 -0.7533 -0.3577 -1.6453
 4449TIP3   OH234761   4.596   5.408  15.151 -0.1351 -0.3826  0.0567
 4449TIP3    H134762   4.600   5.318  15.120  0.4893 -0.0964 -0.7379
 4449TIP3    H234763   4.630   5.405  15.240  1.1173 -0.7517 -0.4100
 4450TIP3   OH234764   5.118   4.651   4.957 -0.1588  0.2397  0.2189
 4450TIP3    H134765   5.027   4.628   4.938 -0.8441  2.1496  0.9741
 4450TIP3    H234766   5.153   4.684   4.874 -1.0496  2.1100  0.5373
 4451TIP3   OH234767   3.222   1.035  17.066  0.1351  0.0664 -0.2222
 4451TIP3    H134768   3.221   1.129  17.047  0.1044 -0.0142 -0.6267
 4451TIP3    H234769   3.283   1.026  17.139 -1.3244  0.6313  1.1024
 4452TIP3   OH234770   2.541   3.462  12.890 -0.3078 -0.0587 -0.5035
 4452TIP3    H134771   2.575   3.375  12.911  3.3551  0.8420 -1.9939
 4452TIP3    H234772   2.459   3.469  12.940  0.4569 -3.4124  1.4954
 4453TIP3   OH234773   0.110   3.288  12.070  0.2647 -0.3783 -0.0509
 4453TIP3    H134774   0.070   3.313  11.987  0.6468 -3.2778 -1.2358
 4453TIP3    H234775   0.204   3.302  12.057  0.1870  1.1456  0.7276
 4454TIP3   OH234776   3.876   1.441  11.552 -0.1170  0.1645  0.2908
 4454TIP3    H134777   3.884   1.346  11.552 -0.6147  0.0951 -1.3832
 4454TIP3    H234778   3.966   1.474  11.551  0.1006 -0.3589 -2.0436
 4455TIP3   OH234779   4.501   6.424   5.226  0.3104 -0.2997  0.6331
 4455TIP3    H134780   4.568   6.386   5.283 -0.2728 -1.7525  0.3958
 4455TIP3    H234781   4.434   6.356   5.220 -0.4537  0.5216 -0.3829
 4456TIP3   OH234782   0.516   2.781  13.796  0.0229  0.0446 -0.0567
 4456TIP3    H134783   0.529   2.687  13.808  1.7140  0.3989  1.1818
 4456TIP3    H234784   0.596   2.812  13.755 -1.2883  0.6906 -2.2565
 4457TIP3   OH234785   2.869   0.769   0.336  0.2012 -0.1683  0.1547
 4457TIP3    H134786   2.847   0.709   0.406 -0.6492 -0.1794 -0.1153
 4457TIP3    H234787   2.949   0.732   0.297 -1.1865 -2.0658 -1.0667
 4458TIP3   OH234788   5.999   1.272  11.123  0.1168  0.1966 -0.4716
 4458TIP3    H134789   6.080   1.322  11.110  0.4879 -0.1538  0.4031
 4458TIP3    H234790   5.949   1.323  11.186 -0.4421  0.5142 -1.1681
 4459TIP3   OH234791   3.290   6.618   5.392 -0.5800  0.0678 -0.1384
 4459TIP3    H134792   3.322   6.569   5.316 -1.5407 -1.1327  0.1895
 4459TIP3    H234793   3.246   6.694   5.355  0.4557  0.4251 -0.6900
 4460TIP3   OH234794   0.183   1.551   2.232 -0.0693  0.1765  0.0364
 4460TIP3    H134795   0.126   1.500   2.175  0.4920 -0.9334  0.4362
 4460TIP3    H234796   0.125   1.612   2.277 -0.7278  0.0001 -0.5671
 4461TIP3   OH234797   5.231   2.773   1.070  0.5766  0.2739 -0.2310
 4461TIP3    H134798   5.173   2.802   0.999 -0.3177 -1.3814 -0.2045
 4461TIP3    H234799   5.301   2.726   1.025  0.0891 -0.6462 -0.0357
 4462TIP3   OH234800   5.437   0.592   1.234 -0.3214 -0.0640  0.1443
 4462TIP3    H134801   5.412   0.629   1.318 -1.2920  1.0576 -0.6159
 4462TIP3    H234802   5.355   0.586   1.185  0.2094 -0.8365 -0.6807
 4463TIP3   OH234803   3.093   5.894  17.116 -0.2355 -0.1924  0.2762
 4463TIP3    H134804   3.140   5.843  17.182 -0.6586 -1.0436 -0.0572
 4463TIP3    H234805   3.100   5.842  17.036  1.3589  1.4203 -0.7013
 4464TIP3   OH234806   1.119   5.266   2.642  0.2149 -0.1337  0.0744
 4464TIP3    H134807   1.123   5.307   2.556  0.6942 -1.0983 -0.3771
 4464TIP3    H234808   1.205   5.283   2.680  0.8747 -1.7448 -0.6175
 4465TIP3   OH234809   4.101   2.431   0.353 -0.3036  0.1067 -0.1611
 4465TIP3    H134810   4.124   2.422   0.261 -2.1951  0.0904 -0.6650
 4465TIP3    H234811   4.090   2.525   0.366 -1.4788  0.0013 -0.3388
 4466TIP3   OH234812   4.633   6.679  15.212 -0.7741 -0.4010  0.9325
 4466TIP3    H134813   4.664   6.769  15.221  0.0275 -0.4245 -1.0144
 4466TIP3    H234814   4.704   6.626  15.247  0.1424 -0.3472 -0.7580
 4467TIP3   OH234815   3.864   4.288  14.723 -0.3842 -0.4827  0.0454
 4467TIP3    H134816   3.900   4.373  14.750  0.4116 -0.7537 -0.1485
 4467TIP3    H234817   3.824   4.253  14.802  0.4783 -0.5313  0.4663
 4468TIP3   OH234818   4.268   3.761  15.847 -0.3697  0.3937  0.2795
 4468TIP3    H134819   4.268   3.808  15.930 -0.9423  1.0879 -0.1105
 4468TIP3    H234820   4.316   3.680  15.866 -1.8422 -0.1870  1.6982
 4469TIP3   OH234821   3.492   5.125   5.751  0.5453 -0.3213  0.2835
 4469TIP3    H134822   3.504   5.218   5.735 -2.1712 -0.3610 -3.3807
 4469TIP3    H234823   3.539   5.082   5.679 -0.0560 -1.6174  0.6301
 4470TIP3   OH234824   6.700   3.655   0.984  0.1059 -0.0247 -0.1501
 4470TIP3    H134825   6.710   3.622   0.895 -1.6631  0.3273 -0.5178
 4470TIP3    H234826   6.606   3.665   0.996  0.3670  1.0558  1.3583
 4471TIP3   OH234827   2.135   0.269  15.202 -0.1629  0.0705  0.4844
 4471TIP3    H134828   2.182   0.235  15.279  0.7057 -2.3839 -1.0165
 4471TIP3    H234829   2.203   0.310  15.149 -0.2265 -0.6998 -0.2219
 4472TIP3   OH234830   0.190   4.773   0.072  0.2518  0.4941 -0.2128
 4472TIP3    H134831   0.279   4.741   0.055  0.7111  1.7818 -0.3518
 4472TIP3    H234832   0.140   4.694   0.092  1.3405 -0.2978 -0.4927
 4473TIP3   OH234833   1.311   3.117   5.835  0.3475  0.0955 -0.0835
 4473TIP3    H134834   1.278   3.073   5.756 -0.2650 -0.1982  0.3261
 4473TIP3    H234835   1.358   3.049   5.882 -0.4721 -0.1008  0.4763
 4474TIP3   OH234836   6.694   6.121  16.817  0.3215  0.6225  0.3974
 4474TIP3    H134837   6.683   6.144  16.724  1.1635  1.6879  0.5519
 4474TIP3    H234838   6.692   6.204  16.863 -0.5864  0.0567  1.4069
 4475TIP3   OH234839   4.981   2.554  15.413  0.5905  0.3774  0.5142
 4475TIP3    H134840   4.971   2.639  15.454  2.1874 -0.1868  2.1982
 4475TIP3    H234841   4.898   2.509  15.430  1.1592  0.2018  3.1283
 4476TIP3   OH234842   4.514   4.127  14.140 -0.4650  0.0535  0.3806
 4476TIP3    H134843   4.548   4.096  14.223 -1.8218  1.2448  1.4372
 4476TIP3    H234844   4.588   4.171  14.098  0.3640 -1.0055  0.6990
 4477TIP3   OH234845   3.221   1.820  12.578 -0.5156 -0.1785 -0.5409
 4477TIP3    H134846   3.283   1.799  12.649 -1.5557  0.7405  0.6856
 4477TIP3    H234847   3.272   1.875  12.518 -0.0264  0.2964  0.2833
 4478TIP3   OH234848   5.083   2.898   3.687  0.1911 -0.0563 -0.1067
 4478TIP3    H134849   5.058   2.920   3.598  1.2243  1.8973  0.0343
 4478TIP3    H234850   4.999   2.888   3.734 -0.3704  1.4472 -0.7300
 4479TIP3   OH234851   5.629   5.957  12.481  0.1962  0.2406 -0.1550
 4479TIP3    H134852   5.625   5.991  12.391 -0.4198 -0.5640 -0.4427
 4479TIP3    H234853   5.721   5.963  12.505  0.2595  1.1664 -0.5600
 4480TIP3   OH234854   3.205   4.331   4.836  0.2061  0.6910  0.3021
 4480TIP3    H134855   3.155   4.277   4.775  1.0419  0.5163 -0.2362
 4480TIP3    H234856   3.290   4.287   4.844  0.0214  0.5458  1.8243
 4481TIP3   OH234857   4.816   2.062   4.352  0.6746  0.1270 -0.3366
 4481TIP3    H134858   4.853   1.974   4.344  0.7251  0.2686 -2.3344
 4481TIP3    H234859   4.865   2.114   4.288  1.1655  1.8284  1.3254
 4482TIP3   OH234860   3.239   4.013   4.016  0.1039  0.1312  0.4281
 4482TIP3    H134861   3.227   4.099   4.057  0.6809  1.0976 -1.3524
 4482TIP3    H234862   3.276   4.032   3.930  0.7047 -1.9442  0.1813
 4483TIP3   OH234863   0.547   6.011   3.196 -0.2330  0.6225  0.6054
 4483TIP3    H134864   0.463   5.969   3.214 -0.1435  0.3376  0.3641
 4483TIP3    H234865   0.609   5.939   3.191 -0.1393  0.7452 -0.1656
 4484TIP3   OH234866   0.321   0.015   1.562  0.4661  0.1323  0.6610
 4484TIP3    H134867   0.411   0.006   1.592  0.0040 -0.9067  1.8557
 4484TIP3    H234868   0.327   0.015   1.467  1.6671 -0.7477  0.7083
 4485TIP3   OH234869   4.762   5.937  15.868  0.0105  1.0449  0.2406
 4485TIP3    H134870   4.720   6.023  15.874 -0.9984  0.5579  0.2934
 4485TIP3    H234871   4.855   5.957  15.862 -0.1630  2.1306  0.8551
 4486TIP3   OH234872   3.661   3.569   1.656  0.1502  0.5671 -0.2729
 4486TIP3    H134873   3.701   3.548   1.740  2.3908  0.4318 -1.3066
 4486TIP3    H234874   3.616   3.489   1.631  1.6751 -0.3053 -0.3630
 4487TIP3   OH234875   4.056   3.685   2.670 -0.0371  0.0385  0.2882
 4487TIP3    H134876   4.137   3.676   2.620 -0.5212 -0.5973 -0.4121
 4487TIP3    H234877   4.076   3.748   2.739  0.7293  0.7481 -0.5679
 4488TIP3   OH234878   3.809   2.563   1.354  0.0841 -0.5760 -0.2837
 4488TIP3    H134879   3.824   2.578   1.261  2.7020 -1.8838 -0.1651
 4488TIP3    H234880   3.796   2.650   1.391 -0.7313 -0.0162 -1.7930
 4489TIP3   OH234881   5.304   1.290   3.962 -0.2819  0.3994 -0.4387
 4489TIP3    H134882   5.364   1.291   3.887  1.9288 -1.3933  1.1609
 4489TIP3    H234883   5.268   1.378   3.965  1.5162  1.2790 -2.1098
 4490TIP3   OH234884   3.366   6.560  11.395  0.4948 -0.3694  0.0644
 4490TIP3    H134885   3.372   6.580  11.302  0.1311  0.1800  0.1573
 4490TIP3    H234886   3.367   6.464  11.399 -1.0152 -0.4400 -0.6075
 4491TIP3   OH234887   6.072   0.855   4.416 -0.6583 -0.3067  0.5151
 4491TIP3    H134888   6.005   0.876   4.351 -0.5582 -0.8966  0.2181
 4491TIP3    H234889   6.081   0.936   4.468 -0.3210  0.3664 -0.5594
 4492TIP3   OH234890   6.537   4.004  11.550  0.4184 -0.8171  0.2877
 4492TIP3    H134891   6.511   3.977  11.462 -0.2456 -0.4428  0.3693
 4492TIP3    H234892   6.633   3.996  11.550  0.3587 -1.6509 -0.1871
 4493TIP3   OH234893   4.447   3.587   0.701 -0.1900  0.2668  0.1963
 4493TIP3    H134894   4.414   3.578   0.611  1.0172  1.0370 -0.3670
 4493TIP3    H234895   4.523   3.529   0.705  1.3505  2.1158 -0.1758
 4494TIP3   OH234896   3.631   6.421  11.826 -0.3119 -0.0069  0.3308
 4494TIP3    H134897   3.590   6.492  11.776 -0.3427 -0.1991  0.0856
 4494TIP3    H234898   3.705   6.393  11.773  0.7086  0.9593  1.1916
 4495TIP3   OH234899   4.211   5.602  12.455  0.0086  0.0848  0.5460
 4495TIP3    H134900   4.192   5.538  12.524  1.2736  0.1568  0.9888
 4495TIP3    H234901   4.282   5.562  12.405 -0.9784 -0.0228 -0.8316
 4496TIP3   OH234902   4.236   1.590   4.282 -0.4594 -0.9170  0.2825
 4496TIP3    H134903   4.307   1.527   4.291  1.3087  1.0930  1.3616
 4496TIP3    H234904   4.221   1.595   4.187  2.2415 -0.0168 -0.1937
 4497TIP3   OH234905   5.210   2.219  16.424  0.1773 -0.0160  0.0459
 4497TIP3    H134906   5.265   2.176  16.489  0.0889  1.0296  0.8539
 4497TIP3    H234907   5.271   2.267  16.369  0.1441  0.6513  0.5672
 4498TIP3   OH234908   5.375   0.552   3.264 -0.2648 -1.0878 -0.0110
 4498TIP3    H134909   5.418   0.636   3.247 -2.7470  0.2564 -0.0233
 4498TIP3    H234910   5.440   0.487   3.238  1.1523  0.8111 -1.5600
 4499TIP3   OH234911   3.310   3.647  12.879  0.2200 -0.0161  0.6413
 4499TIP3    H134912   3.371   3.576  12.862 -1.1649 -1.3602  1.0317
 4499TIP3    H234913   3.233   3.626  12.827  0.0783  1.6845  0.0905
 4500TIP3   OH234914   1.775   6.002   0.440  0.0041 -0.2946 -0.3188
 4500TIP3    H134915   1.856   5.996   0.490 -0.5043  1.1360  0.7642
 4500TIP3    H234916   1.709   5.960   0.496 -0.5471  1.2085  0.2097
 4501TIP3   OH234917   2.763   2.259   4.180  0.3420 -0.4086  0.2700
 4501TIP3    H134918   2.767   2.197   4.253  1.0950 -1.1697 -0.4010
 4501TIP3    H234919   2.759   2.345   4.222 -2.1544 -0.9179  1.2519
 4502TIP3   OH234920   0.069   4.843   6.634 -0.3871 -0.3715 -0.1542
 4502TIP3    H134921   0.104   4.897   6.563 -0.5013 -0.7508 -0.5036
 4502TIP3    H234922   0.136   4.847   6.702 -0.2727 -0.0098 -0.2807
 4503TIP3   OH234923   4.542   1.998  11.460  0.0254  0.2458  0.7678
 4503TIP3    H134924   4.477   1.949  11.410  0.5901 -0.1997  0.4676
 4503TIP3    H234925   4.555   1.946  11.539  0.6880 -0.1432  0.4107
 4504TIP3   OH234926   0.845   0.926  13.896  0.1319 -0.6182  0.4242
 4504TIP3    H134927   0.930   0.917  13.852 -0.7963 -1.2394 -1.3055
 4504TIP3    H234928   0.802   0.998  13.852 -0.2044 -0.2034  1.4036
 4505TIP3   OH234929   4.472   1.559   1.308 -0.1521 -0.8842 -0.1189
 4505TIP3    H134930   4.509   1.476   1.337  2.3749 -0.0128 -0.5863
 4505TIP3    H234931   4.431   1.539   1.224  1.7887 -1.4253 -0.9931
 4506TIP3   OH234932   3.437   5.328   0.946  0.2870 -0.5074 -0.0969
 4506TIP3    H134933   3.360   5.337   0.889  0.7170  1.2344 -0.4833
 4506TIP3    H234934   3.496   5.271   0.897 -0.3239 -0.9920 -0.2835
 4507TIP3   OH234935   2.782   5.037   3.092  0.0626 -0.3852 -0.4149
 4507TIP3    H134936   2.875   5.020   3.076 -0.1009 -1.7448 -0.0556
 4507TIP3    H234937   2.760   4.982   3.167 -0.8971  0.3797 -0.1165
 4508TIP3   OH234938   3.949   6.233  11.977 -0.5201 -0.3136 -0.2825
 4508TIP3    H134939   3.989   6.266  12.057  1.1875  3.0301 -2.3197
 4508TIP3    H234940   4.011   6.168  11.944  0.6836  1.0230 -0.7270
 4509TIP3   OH234941   5.738   0.732   2.510 -0.6741 -0.3263  0.0623
 4509TIP3    H134942   5.799   0.686   2.567 -1.1340  0.6287  1.3811
 4509TIP3    H234943   5.791   0.799   2.466 -0.5711 -0.1439  0.4554
 4510TIP3   OH234944   5.660   3.556  13.335 -0.1288  0.4333 -0.0032
 4510TIP3    H134945   5.656   3.461  13.346  1.0405  0.4009  0.2880
 4510TIP3    H234946   5.718   3.569  13.259  2.1704  0.9416  1.7083
 4511TIP3   OH234947   6.380   3.028   3.225 -0.2055  0.5512  0.2371
 4511TIP3    H134948   6.427   3.107   3.198 -2.1095  1.4185 -0.7476
 4511TIP3    H234949   6.342   3.050   3.309 -0.1573  0.4179  0.2946
 4512TIP3   OH234950   6.648   0.713  14.498  0.7441 -0.1038 -0.0762
 4512TIP3    H134951   6.615   0.699  14.409  1.2786 -1.8970 -0.0261
 4512TIP3    H234952   6.573   0.696  14.555  1.2238 -2.4878 -0.0504
 4513TIP3   OH234953   3.581   1.692  13.277 -0.1006  0.0885  0.2106
 4513TIP3    H134954   3.500   1.716  13.322 -0.7191  0.1358 -0.9002
 4513TIP3    H234955   3.621   1.625  13.332 -0.5544  0.5441  1.1074
 4514TIP3   OH234956   0.401   2.057  11.429  0.0843 -0.1529  0.3467
 4514TIP3    H134957   0.401   1.967  11.398  2.8398 -0.3744  0.7463
 4514TIP3    H234958   0.477   2.063  11.487 -0.9608  2.0262  1.6395
 4515TIP3   OH234959   5.209   0.869  14.246  0.0742 -0.2728 -0.6812
 4515TIP3    H134960   5.251   0.850  14.162  1.7135 -2.3335  0.5161
 4515TIP3    H234961   5.129   0.817  14.246  0.6080 -1.1100 -0.5675
 4516TIP3   OH234962   0.632   3.841  11.810  0.0787  0.1098  0.2790
 4516TIP3    H134963   0.718   3.884  11.816  0.3258 -0.5143  1.5415
 4516TIP3    H234964   0.649   3.750  11.834 -0.5798 -0.5382 -1.5998
 4517TIP3   OH234965   3.941   2.160  16.335  0.1474 -0.2118  0.1165
 4517TIP3    H134966   3.889   2.135  16.259  0.4396 -0.7378  0.0841
 4517TIP3    H234967   3.887   2.224  16.382  0.6416  1.4111 -1.4133
 4518TIP3   OH234968   5.136   1.482   3.896 -0.1121  0.1835  0.1305
 4518TIP3    H134969   5.043   1.470   3.876 -0.3277 -1.7384  1.9735
 4518TIP3    H234970   5.137   1.525   3.981  0.6599 -0.6748  0.5670
 4519TIP3   OH234971   1.653   0.381  12.755  0.3291 -0.1307  0.0540
 4519TIP3    H134972   1.569   0.355  12.790  0.5688  0.1455  0.8417
 4519TIP3    H234973   1.687   0.446  12.816  0.7332  0.3965 -0.7058
 4520TIP3   OH234974   2.919   0.605   4.093 -0.5034 -0.5101 -0.6634
 4520TIP3    H134975   2.954   0.518   4.114 -0.3001 -0.1326  0.6217
 4520TIP3    H234976   2.996   0.657   4.071 -0.6108 -0.6025 -1.2770
 4521TIP3   OH234977   0.880   3.735   6.040  0.0929  0.0735 -0.3068
 4521TIP3    H134978   0.838   3.683   5.972 -1.9943  1.8082 -0.4485
 4521TIP3    H234979   0.909   3.815   5.995 -0.3403  0.7728  0.6244
 4522TIP3   OH234980   1.742   3.978   2.728 -0.6485 -0.2806  0.0381
 4522TIP3    H134981   1.768   3.960   2.638 -0.1892 -0.0433  0.1186
 4522TIP3    H234982   1.783   3.909   2.780  0.2070  0.3447  0.2168
 4523TIP3   OH234983   6.670   5.670   5.589 -0.0018 -0.2419  0.1602
 4523TIP3    H134984   6.617   5.612   5.535  0.9675  0.8240 -2.0866
 4523TIP3    H234985   6.623   5.754   5.586  0.0154 -0.1862  1.1148
 4524TIP3   OH234986   2.224   3.370  16.941 -0.6948 -0.1027  0.9435
 4524TIP3    H134987   2.282   3.330  16.877  1.2872 -0.6709  2.9656
 4524TIP3    H234988   2.221   3.463  16.917  1.0159 -0.0852  0.7285
 4525TIP3   OH234989   2.981   3.828  15.186 -0.0412  0.4945  0.4525
 4525TIP3    H134990   3.058   3.825  15.130 -1.3039  0.9476 -1.3824
 4525TIP3    H234991   2.936   3.909  15.161 -0.8832  0.4952  1.8337
 4526TIP3   OH234992   4.324   5.829   5.188  0.0116 -0.0601  0.2859
 4526TIP3    H134993   4.240   5.800   5.153 -0.3212  0.1640  0.8873
 4526TIP3    H234994   4.383   5.826   5.113 -0.6178  0.1327 -0.2256
 4527TIP3   OH234995   0.240   2.088  11.762 -0.1368 -0.7495 -0.4219
 4527TIP3    H134996   0.149   2.060  11.773  0.0199 -1.0476  0.1583
 4527TIP3    H234997   0.291   2.007  11.760  0.3181 -0.5564  1.2792
 4528TIP3   OH234998   5.228   1.929   1.932 -0.2908  0.2581 -0.2808
 4528TIP3    H134999   5.266   2.002   1.981 -0.4081  0.7478 -0.9051
 4528TIP3    H235000   5.292   1.911   1.862  0.0646 -0.6875  0.2592
 4529TIP3   OH235001   3.132   4.596   4.451  0.0545  0.0428  0.3769
 4529TIP3    H135002   3.153   4.613   4.543  0.7198  0.1859  0.2069
 4529TIP3    H235003   3.210   4.553   4.417 -0.7973 -1.4790  0.2750
 4530TIP3   OH235004   1.681   0.505   0.817 -0.1706 -0.0924  0.5798
 4530TIP3    H135005   1.772   0.483   0.801 -0.3807 -2.5484  2.3300
 4530TIP3    H235006   1.659   0.464   0.901 -2.3964  1.9691  1.1522
 4531TIP3   OH235007   1.227   5.274  12.387 -0.0485 -0.4397 -0.2831
 4531TIP3    H135008   1.276   5.192  12.399  1.0769  0.2113 -0.2846
 4531TIP3    H235009   1.220   5.284  12.292 -0.6942 -0.8130 -0.2824
 4532TIP3   OH235010   3.081   4.233  12.369 -0.6862  0.4107 -0.1891
 4532TIP3    H135011   3.054   4.205  12.281 -0.8140  2.4511 -0.8505
 4532TIP3    H235012   3.022   4.185  12.428 -0.6542 -0.9319 -1.1960
 4533TIP3   OH235013   0.213   1.817  16.088 -0.1851  0.3199  0.5791
 4533TIP3    H135014   0.274   1.829  16.015  1.0004 -0.0860  1.4725
 4533TIP3    H235015   0.126   1.820  16.047  0.4518 -0.1290 -0.8793
 4534TIP3   OH235016   2.073   6.582   1.948  0.3954  0.1992  0.0369
 4534TIP3    H135017   2.167   6.580   1.929  0.1503 -2.1799 -1.3718
 4534TIP3    H235018   2.068   6.606   2.041  2.5465 -1.6288  0.7160
 4535TIP3   OH235019   5.773   6.536  14.163 -0.2693 -0.0458 -0.2952
 4535TIP3    H135020   5.803   6.457  14.119  1.8132 -0.3852  1.5209
 4535TIP3    H235021   5.844   6.557  14.224 -2.0654  1.5427  1.3710
 4536TIP3   OH235022   1.688   5.752  14.902  0.6473 -0.2377  0.0919
 4536TIP3    H135023   1.770   5.771  14.947  1.0604 -1.0097 -0.3251
 4536TIP3    H235024   1.625   5.814  14.940  0.4891 -2.0705  3.1115
 4537TIP3   OH235025   6.466   0.872   0.185  0.3636  0.3559  0.5403
 4537TIP3    H135026   6.398   0.931   0.217 -1.4371 -1.2113 -0.1934
 4537TIP3    H235027   6.498   0.826   0.263 -1.5437 -0.9690  0.6175
 4538TIP3   OH235028   0.474   0.681   5.549 -0.2269  0.6088  0.1336
 4538TIP3    H135029   0.541   0.736   5.509 -0.4902 -0.5245 -1.9787
 4538TIP3    H235030   0.518   0.641   5.624  1.3923  0.0899 -1.0527
 4539TIP3   OH235031   5.253   6.432   2.378 -0.3026 -0.4056  0.9080
 4539TIP3    H135032   5.335   6.450   2.424  1.1404 -0.3030 -1.5535
 4539TIP3    H235033   5.240   6.338   2.386  1.0613 -0.7206 -0.1564
 4540TIP3   OH235034   2.471   5.491   2.769 -0.2344 -0.5919 -0.1961
 4540TIP3    H135035   2.390   5.442   2.781  0.3922 -1.3395  1.1421
 4540TIP3    H235036   2.504   5.505   2.857  0.9049  0.0404 -0.7056
 4541TIP3   OH235037   0.596   5.065   5.279 -0.6278 -0.4410  0.1614
 4541TIP3    H135038   0.680   5.035   5.243 -1.1352 -0.3992 -1.1060
 4541TIP3    H235039   0.572   4.996   5.341  1.5125  0.7378  2.4858
 4542TIP3   OH235040   4.784   5.060   5.458  0.7177  0.7684  0.1318
 4542TIP3    H135041   4.802   5.121   5.530 -0.1219  0.7607  0.3636
 4542TIP3    H235042   4.689   5.046   5.462  1.0655 -1.7471  1.0428
 4543TIP3   OH235043   3.367   5.188  13.410  0.4252 -0.2441 -0.5055
 4543TIP3    H135044   3.381   5.201  13.504 -0.0777 -0.0727 -0.4463
 4543TIP3    H235045   3.431   5.245  13.367 -0.4114  0.9180 -0.2559
 4544TIP3   OH235046   3.420   6.597   1.114 -0.1398 -0.0742 -0.0968
 4544TIP3    H135047   3.499   6.566   1.157  0.2696  0.1125 -0.7029
 4544TIP3    H235048   3.400   6.530   1.049 -0.6206 -0.2433  0.2241
 4545TIP3   OH235049   0.847   5.372  14.186 -0.2014  0.0878  0.3897
 4545TIP3    H135050   0.767   5.392  14.234  0.9054  0.5498  2.1121
 4545TIP3    H235051   0.883   5.457  14.161 -1.3134 -0.1461 -2.3297
 4546TIP3   OH235052   5.267   1.184   4.978 -0.3241 -0.0414  0.0006
 4546TIP3    H135053   5.192   1.237   5.007 -0.9806 -0.9521  0.0003
 4546TIP3    H235054   5.230   1.122   4.915  0.0628 -1.6918  1.3104
 4547TIP3   OH235055   0.660   0.169  13.762  0.0961  0.1301 -0.5616
 4547TIP3    H135056   0.639   0.077  13.744 -0.1929  0.6881 -3.5311
 4547TIP3    H235057   0.741   0.165  13.813  0.7358 -1.7745 -1.6061
 4548TIP3   OH235058   1.524   2.026   4.940  0.2532 -0.0975 -0.4271
 4548TIP3    H135059   1.510   2.096   5.003  1.4462  0.5368 -0.8328
 4548TIP3    H235060   1.441   2.020   4.892  0.1144  1.0183 -0.3601
 4549TIP3   OH235061   2.740   4.515   5.805  0.3650  0.2610 -0.1809
 4549TIP3    H135062   2.718   4.534   5.714  0.5016 -0.7736 -0.4346
 4549TIP3    H235063   2.659   4.484   5.845  0.6637 -0.8185 -0.3775
 4550TIP3   OH235064   0.325   0.809   1.253 -0.2537 -0.0738  0.5697
 4550TIP3    H135065   0.397   0.861   1.289 -1.1147  0.8260  1.0416
 4550TIP3    H235066   0.246   0.852   1.286 -1.0278 -0.4960 -0.6910
 4551TIP3   OH235067   6.515   1.995  15.601 -0.0036  0.2052  0.0527
 4551TIP3    H135068   6.503   2.083  15.566 -0.3603  0.0292 -0.2712
 4551TIP3    H235069   6.437   1.947  15.575  1.4818 -1.0909 -2.4258
 4552TIP3   OH235070   2.585   2.526   5.965 -0.6508 -0.1654 -0.2616
 4552TIP3    H135071   2.523   2.491   6.029 -0.4890  0.3015  0.1637
 4552TIP3    H235072   2.612   2.450   5.913 -0.0970 -0.7305  0.8111
 4553TIP3   OH235073   1.882   4.178  15.070 -0.3525 -0.0162  0.2607
 4553TIP3    H135074   1.878   4.211  15.160  1.5655 -1.1135  0.8015
 4553TIP3    H235075   1.808   4.117  15.064 -1.0527  0.7676  0.7882
 4554TIP3   OH235076   4.777   6.607  12.217 -0.3530 -0.1965 -0.7007
 4554TIP3    H135077   4.743   6.677  12.162  3.0066  2.2050 -0.0108
 4554TIP3    H235078   4.848   6.569  12.166  1.7118  0.9439  1.1508
 4555TIP3   OH235079   1.581   5.094   5.726 -0.3099 -0.4842 -0.2389
 4555TIP3    H135080   1.581   5.135   5.640  0.3674  1.0527  0.4614
 4555TIP3    H235081   1.541   5.008   5.711 -1.3153  0.2064 -1.8584
 4556TIP3   OH235082   0.706   2.861   5.916  0.1656 -0.2987  0.1901
 4556TIP3    H135083   0.691   2.953   5.896  2.0425  0.1912  0.8050
 4556TIP3    H235084   0.619   2.826   5.935 -0.7918  0.8854 -1.7858
 4557TIP3   OH235085   4.230   5.973   6.495  0.1081 -0.3684 -0.2012
 4557TIP3    H135086   4.159   5.993   6.557 -0.6053 -0.4997 -0.9615
 4557TIP3    H235087   4.190   5.916   6.430  0.2823  1.3678 -1.9334
 4558TIP3   OH235088   5.064   0.738   1.481  0.2520 -0.7199  0.1889
 4558TIP3    H135089   4.995   0.674   1.495 -1.4299  1.0699  0.4097
 4558TIP3    H235090   5.122   0.727   1.556 -0.7769 -1.0377  0.9568
 4559TIP3   OH235091   3.853   0.027  17.422  0.1530 -0.1162  0.0722
 4559TIP3    H135092   3.853   0.116  17.387  0.0779 -0.1327  0.0293
 4559TIP3    H235093   3.768   0.019  17.467 -0.7857 -0.8731 -1.7468
 4560TIP3   OH235094   3.803   0.642  14.130  0.6201  0.1150  0.4734
 4560TIP3    H135095   3.732   0.661  14.192 -1.2844  0.4206 -1.6675
 4560TIP3    H235096   3.847   0.726  14.117  1.3576 -0.0551  1.7449
 4561TIP3   OH235097   5.490   4.959   1.627 -0.1627 -0.0156  0.4433
 4561TIP3    H135098   5.510   5.007   1.707 -0.1831  2.3410 -0.8707
 4561TIP3    H235099   5.497   5.024   1.557 -0.7723 -1.8246 -1.4256
 4562TIP3   OH235100   3.629   0.424   0.264  0.6756  0.0255 -0.0144
 4562TIP3    H135101   3.579   0.369   0.203 -0.0633  0.3819  0.2609
 4562TIP3    H235102   3.629   0.376   0.346  4.3187 -2.0020 -0.9683
 4563TIP3   OH235103   1.040   4.689  16.857  0.3217 -0.1016 -0.3834
 4563TIP3    H135104   1.007   4.771  16.822 -3.0044 -1.3225 -0.4768
 4563TIP3    H235105   1.065   4.638  16.780 -0.9823 -0.4232 -0.6267
 4564TIP3   OH235106   2.978   4.596  15.646 -0.1088  0.1162  0.3387
 4564TIP3    H135107   3.043   4.586  15.576  0.3619 -0.1314  0.8069
 4564TIP3    H235108   3.010   4.670  15.698  1.8302 -2.1904  2.7124
 4565TIP3   OH235109   3.354   1.717  13.439  0.2854 -0.2856  0.1160
 4565TIP3    H135110   3.259   1.709  13.426  0.2919  0.7966 -0.7031
 4565TIP3    H235111   3.363   1.752  13.527  0.0280 -2.2338  0.9844
 4566TIP3   OH235112   2.114   4.028  13.887  0.4104 -0.2706  0.0085
 4566TIP3    H135113   2.178   4.013  13.817  0.8264 -1.9449  0.6921
 4566TIP3    H235114   2.110   3.944  13.933  0.3897  0.8709  2.1920
 4567TIP3   OH235115   4.274   2.952   2.054 -0.1144  0.5657  0.4970
 4567TIP3    H135116   4.316   2.957   1.969  0.1011 -3.5523  0.1615
 4567TIP3    H235117   4.336   2.995   2.114  2.1407 -0.7974 -0.7278
 4568TIP3   OH235118   3.544   3.019  16.263  0.4293 -0.1718  0.2863
 4568TIP3    H135119   3.456   2.981  16.264  0.3535  0.0027  0.9115
 4568TIP3    H235120   3.595   2.960  16.207 -0.4576  0.6149 -1.4150
 4569TIP3   OH235121   1.079   1.044   2.692 -0.5461 -0.4732 -0.9382
 4569TIP3    H135122   1.086   0.974   2.757  0.3681  0.4644  0.0237
 4569TIP3    H235123   1.007   1.018   2.636  0.1655 -2.4884 -0.9918
 4570TIP3   OH235124   2.745   1.850  14.022  0.1162  0.5626 -0.1070
 4570TIP3    H135125   2.723   1.819  14.110  1.6029  0.1730  0.1465
 4570TIP3    H235126   2.837   1.828  14.011 -0.2163 -0.0490 -2.0480
 4571TIP3   OH235127   0.755   0.949  15.213 -0.7164 -0.0968  0.6145
 4571TIP3    H135128   0.761   1.039  15.181 -4.1387  0.4385  1.0254
 4571TIP3    H235129   0.813   0.899  15.156 -0.7415  1.9888 -1.3778
 4572TIP3   OH235130   0.803   6.276  16.019  0.8807  0.0543  0.1426
 4572TIP3    H135131   0.802   6.310  15.930  2.4886 -2.9646 -1.1767
 4572TIP3    H235132   0.886   6.227  16.025 -0.6358 -2.5443  2.1382
 4573TIP3   OH235133   4.723   2.813   2.450 -0.1312 -0.2016 -0.3769
 4573TIP3    H135134   4.649   2.829   2.392 -1.6113  0.4289  1.5707
 4573TIP3    H235135   4.691   2.747   2.512  1.2100 -0.4851  0.0391
 4574TIP3   OH235136   0.951   3.122  14.489  0.2469  0.3096  0.0764
 4574TIP3    H135137   0.892   3.053  14.460 -0.1217  0.5206  0.3211
 4574TIP3    H235138   1.034   3.077  14.505  0.2435  0.0679 -0.5663
 4575TIP3   OH235139   3.472   0.300  15.791  0.0094 -0.0107  0.1577
 4575TIP3    H135140   3.398   0.332  15.739 -2.2403 -1.3541  2.3138
 4575TIP3    H235141   3.529   0.376  15.801 -0.1500  0.6432 -2.9861
 4576TIP3   OH235142   1.484   2.936  13.869 -0.2062  0.2329 -0.2783
 4576TIP3    H135143   1.522   2.944  13.957 -0.2240  1.7018 -0.3797
 4576TIP3    H235144   1.560   2.937  13.810 -0.0010 -2.8644 -0.2700
 4577TIP3   OH235145   2.387   0.471   2.177 -0.0443 -0.2821 -0.4013
 4577TIP3    H135146   2.328   0.397   2.190  0.1314 -0.5936 -1.2741
 4577TIP3    H235147   2.471   0.443   2.212  0.7084 -1.5155 -2.9225
 4578TIP3   OH235148   0.100   4.924  11.694 -0.0056  0.0488 -0.5162
 4578TIP3    H135149   0.152   4.851  11.728  1.4102  1.0239 -0.5005
 4578TIP3    H235150   0.088   4.903  11.601 -3.2201 -2.2283  0.2482
 4579TIP3   OH235151   5.224   2.884  11.822 -0.0809  0.1772  0.3805
 4579TIP3    H135152   5.204   2.791  11.820 -0.0254  0.1688 -0.9251
 4579TIP3    H235153   5.181   2.919  11.743  1.2241  0.9617 -0.0121
 4580TIP3   OH235154   5.616   3.468  14.678  0.2155  0.5264  0.1368
 4580TIP3    H135155   5.630   3.563  14.679  1.4126  0.3545 -0.1600
 4580TIP3    H235156   5.703   3.430  14.687 -0.2369 -0.5572  0.0805
 4581TIP3   OH235157   5.162   4.852  12.329 -0.5200  0.5349 -0.0146
 4581TIP3    H135158   5.130   4.875  12.242 -0.5415  2.0295  0.3578
 4581TIP3    H235159   5.247   4.812  12.314 -0.7377  0.3276 -0.7475
 4582TIP3   OH235160   5.393   3.478   5.865  0.3454  0.3561  0.1731
 4582TIP3    H135161   5.371   3.454   5.775  0.1947 -2.2411  0.8162
 4582TIP3    H235162   5.346   3.560   5.881 -0.0064  0.6063 -1.9514
 4583TIP3   OH235163   3.842   4.307   5.165  0.1936  0.0631 -0.1359
 4583TIP3    H135164   3.851   4.292   5.071 -1.0201  2.8316 -0.8137
 4583TIP3    H235165   3.853   4.402   5.175 -1.9445  0.1814  2.1761
 4584TIP3   OH235166   6.197   5.460  16.436  0.6929 -0.1413  0.3845
 4584TIP3    H135167   6.278   5.430  16.478  0.8225 -0.1893  0.1054
 4584TIP3    H235168   6.185   5.400  16.362 -0.1403 -0.7672  1.0085
 4585TIP3   OH235169   4.005   2.105  15.439  0.1816  0.2618  0.0570
 4585TIP3    H135170   3.984   2.016  15.465 -0.4190 -0.7968 -3.5535
 4585TIP3    H235171   3.921   2.151  15.439 -0.0392 -0.0956 -0.9904
 4586TIP3   OH235172   6.345   3.566   5.405 -0.4529  0.2534  0.2211
 4586TIP3    H135173   6.382   3.652   5.425 -1.6657  0.3542  2.4326
 4586TIP3    H235174   6.420   3.506   5.406  0.3452  1.2034 -0.9446
 4587TIP3   OH235175   3.086   0.871  13.473  0.4904  0.5773 -0.3876
 4587TIP3    H135176   3.017   0.814  13.441 -0.3816  1.2360  0.2833
 4587TIP3    H235177   3.150   0.811  13.513  0.2152 -0.0114 -0.8151
 4588TIP3   OH235178   0.158   1.074   2.405  0.2016 -0.8666 -0.0699
 4588TIP3    H135179   0.195   1.161   2.419 -0.2462 -0.4063 -1.5348
 4588TIP3    H235180   0.104   1.058   2.483  1.1024 -0.2926  0.6937
 4589TIP3   OH235181   4.181   5.065  15.219 -0.3372 -0.4619 -0.3568
 4589TIP3    H135182   4.244   5.091  15.286  0.0507  0.6721 -1.1269
 4589TIP3    H235183   4.196   5.126  15.146  1.1952 -3.3138 -2.6557
 4590TIP3   OH235184   1.394   1.293  17.422 -0.2930 -0.4800  0.1520
 4590TIP3    H135185   1.363   1.381  17.403  0.4857 -0.2799 -0.2345
 4590TIP3    H235186   1.454   1.272  17.351 -0.8863 -1.5491 -0.0626
 4591TIP3   OH235187   1.915   4.543   0.085  0.1156  0.7170  0.2286
 4591TIP3    H135188   1.905   4.473   0.021  1.8081  0.1421  0.5370
 4591TIP3    H235189   2.003   4.576   0.071 -0.4907  2.4942  0.4073
 4592TIP3   OH235190   6.409   4.279  12.746 -0.4921  0.1882  0.2629
 4592TIP3    H135191   6.350   4.247  12.814  1.2401 -1.7219  0.9687
 4592TIP3    H235192   6.480   4.322  12.793 -0.8078  1.6238 -0.5244
 4593TIP3   OH235193   5.191   2.968   5.190  0.4455  0.0989 -0.2444
 4593TIP3    H135194   5.109   3.013   5.167 -0.2731 -0.5662  0.8628
 4593TIP3    H235195   5.259   3.014   5.141 -0.3652  1.8451  0.1959
 4594TIP3   OH235196   4.140   0.771   0.213 -0.1200  0.0462  0.4174
 4594TIP3    H135197   4.121   0.759   0.307 -0.4167 -0.5403  0.2891
 4594TIP3    H235198   4.135   0.682   0.177  2.5138 -0.1135  0.2787
 4595TIP3   OH235199   6.203   3.545  16.430  0.1129 -0.2820 -0.4256
 4595TIP3    H135200   6.218   3.452  16.446  2.1132 -0.1507 -1.1636
 4595TIP3    H235201   6.130   3.548  16.369 -1.7484 -1.1920  1.6519
 4596TIP3   OH235202   6.554   0.673  13.976  0.0606  0.2025  0.1006
 4596TIP3    H135203   6.487   0.717  13.924  0.6884  0.1954 -0.7364
 4596TIP3    H235204   6.636   0.714  13.949  0.7033 -1.5991 -0.8650
 4597TIP3   OH235205   1.701   1.426   1.651  0.8832 -0.6105  0.0916
 4597TIP3    H135206   1.730   1.475   1.574  0.7590  1.0514  1.0652
 4597TIP3    H235207   1.619   1.385   1.622  0.8662 -0.0566 -0.6960
 4598TIP3   OH235208   3.426   4.238  16.862  0.6601  0.2957  0.6176
 4598TIP3    H135209   3.475   4.169  16.817 -1.6363  0.2026 -2.0591
 4598TIP3    H235210   3.447   4.318  16.814 -3.1299 -0.0660 -2.1745
 4599TIP3   OH235211   5.690   4.747   3.483  0.5497 -0.2657  0.1129
 4599TIP3    H135212   5.685   4.841   3.502  0.0575 -0.4988  1.2448
 4599TIP3    H235213   5.736   4.741   3.400  1.6667  0.9151  0.6251
 4600TIP3   OH235214   1.463   6.515   2.931  0.1739  0.3228 -0.1871
 4600TIP3    H135215   1.442   6.485   3.019 -0.7902 -0.7362 -0.7482
 4600TIP3    H235216   1.486   6.435   2.883  1.3798  0.9608 -0.7250
 4601TIP3   OH235217   2.009   2.526   6.742  0.0791 -0.1893 -0.2660
 4601TIP3    H135218   1.913   2.523   6.737  0.0561 -0.9852  0.5514
 4601TIP3    H235219   2.027   2.573   6.823  0.4099  1.7878 -1.4326
 4602TIP3   OH235220   1.298   5.938  16.602  0.3781  0.3628 -0.1143
 4602TIP3    H135221   1.314   5.901  16.515  0.6422 -2.9843  1.2197
 4602TIP3    H235222   1.325   5.870  16.663 -1.6645  1.7704  2.6001
 4603TIP3   OH235223   1.367   6.598   2.564  0.4903 -0.7095  0.0407
 4603TIP3    H135224   1.359   6.688   2.532 -2.0020  0.2298  2.8442
 4603TIP3    H235225   1.437   6.601   2.629 -0.8001 -0.2588  1.4733
 4604TIP3   OH235226   2.077   0.214   3.810  0.7494 -0.0913 -0.2198
 4604TIP3    H135227   2.150   0.242   3.865  1.1286 -1.3243 -0.0770
 4604TIP3    H235228   2.110   0.140   3.760  0.1466  0.4777 -1.5183
 4605TIP3   OH235229   3.636   0.854  15.935 -0.4774 -0.4100 -0.0818
 4605TIP3    H135230   3.637   0.941  15.895 -0.8607 -0.3254  0.0903
 4605TIP3    H235231   3.625   0.793  15.862  0.6096 -0.3718 -0.2933
 4606TIP3   OH235232   6.496   4.841   4.820  0.1098 -0.4681 -0.2375
 4606TIP3    H135233   6.551   4.800   4.753  1.0559 -0.3760  0.4553
 4606TIP3    H235234   6.523   4.798   4.902 -0.5655 -0.1272  0.1678
 4607TIP3   OH235235   3.513   6.457   4.782  0.3046 -0.2218 -0.2711
 4607TIP3    H135236   3.473   6.540   4.755  0.7627  0.2361  0.4358
 4607TIP3    H235237   3.603   6.480   4.804  0.0917 -0.6484  1.1708
 4608TIP3   OH235238   2.024   1.290   5.640  0.9902 -0.2514  0.2609
 4608TIP3    H135239   1.945   1.240   5.657  0.2246  0.1230 -1.8405
 4608TIP3    H235240   1.995   1.381   5.639  2.0189  0.1480  2.2249
 4609TIP3   OH235241   1.850   1.758   0.832 -0.3834  0.1343  0.0254
 4609TIP3    H135242   1.945   1.765   0.822 -0.0855 -0.9857  1.7220
 4609TIP3    H235243   1.824   1.844   0.865  0.1001  0.3307 -0.0915
 4610TIP3   OH235244   0.034   1.448  16.436 -0.3655  0.6023  0.1337
 4610TIP3    H135245  -0.032   1.390  16.399 -0.1924 -0.6264  1.6482
 4610TIP3    H235246  -0.005   1.481  16.517  0.1275  1.3903  0.0568
 4611TIP3   OH235247   4.512   1.685  14.430  0.1951 -0.2959 -0.1688
 4611TIP3    H135248   4.562   1.616  14.384  0.9773 -0.0317  0.2673
 4611TIP3    H235249   4.570   1.761  14.427 -0.2396  0.0502  0.2539
 4612TIP3   OH235250   3.658   2.297   4.025  0.2747  0.3852  0.1420
 4612TIP3    H135251   3.720   2.225   4.032 -0.3247 -0.1752 -0.2168
 4612TIP3    H235252   3.582   2.259   3.980 -0.0740  1.2189  0.0106
 4613TIP3   OH235253   4.097   3.471   3.738  0.0179 -0.0174  0.2217
 4613TIP3    H135254   4.147   3.539   3.781  3.1674 -0.5405 -2.2286
 4613TIP3    H235255   4.122   3.390   3.784 -1.2202  0.0615  1.0783
 4614TIP3   OH235256   1.967   4.218  16.740 -0.2991  0.1363  0.3358
 4614TIP3    H135257   1.989   4.264  16.659 -0.1969 -1.9547 -0.9274
 4614TIP3    H235258   2.033   4.149  16.746 -1.8088 -1.3419  0.7720
 4615TIP3   OH235259   3.271   2.832  14.195 -0.0160  0.0790 -0.0738
 4615TIP3    H135260   3.246   2.743  14.171 -1.9316  0.4478  0.4134
 4615TIP3    H235261   3.198   2.886  14.165 -0.3082  1.1133  2.3178
 4616TIP3   OH235262   0.534   4.219  12.194  0.2055  0.4809 -0.5292
 4616TIP3    H135263   0.623   4.229  12.228  0.3186 -1.2470 -0.2485
 4616TIP3    H235264   0.504   4.309  12.180  0.9884  1.2169  1.9748
 4617TIP3   OH235265   6.482   1.045  12.648 -0.2009 -0.6225 -0.5875
 4617TIP3    H135266   6.438   0.960  12.648  0.0323 -0.7479  0.1404
 4617TIP3    H235267   6.544   1.040  12.721  0.9948 -0.4465 -1.5533
 4618TIP3   OH235268   1.731   2.567  13.178  0.0439 -0.6059 -0.1592
 4618TIP3    H135269   1.815   2.525  13.160  0.7415  0.7350 -0.2232
 4618TIP3    H235270   1.745   2.615  13.259 -1.1797 -1.6402  0.6953
 4619TIP3   OH235271   3.321   4.063  15.991  0.1952 -0.0231 -0.6898
 4619TIP3    H135272   3.346   3.971  15.994  0.3399 -0.0644 -2.1903
 4619TIP3    H235273   3.290   4.083  16.079  0.7764 -1.3269 -0.1738
 4620TIP3   OH235274   1.937   4.161   6.011 -0.0828 -0.2648 -0.3324
 4620TIP3    H135275   2.008   4.175   6.074 -0.0158 -0.2195 -0.4171
 4620TIP3    H235276   1.951   4.228   5.944 -0.1714 -0.2941 -0.3806
 4621TIP3   OH235277   4.720   1.323  12.889  0.8953 -0.2040  0.4904
 4621TIP3    H135278   4.639   1.282  12.859 -0.2301  0.1859  2.7600
 4621TIP3    H235279   4.778   1.249  12.910  0.8400 -0.4956 -0.3442
 4622TIP3   OH235280   5.096   2.403   0.871  0.1997  0.3974  0.0962
 4622TIP3    H135281   5.183   2.381   0.905 -0.7279 -2.9511  0.7134
 4622TIP3    H235282   5.035   2.358   0.930 -1.9360  1.9324 -0.8171
 4623TIP3   OH235283   3.947   5.578   2.635  0.1911  0.1993  0.4877
 4623TIP3    H135284   3.950   5.510   2.703  1.1373  2.5199  2.9326
 4623TIP3    H235285   3.941   5.529   2.553 -1.3037 -2.7798  2.1814
 4624TIP3   OH235286   5.577   4.704   1.896  0.3300  0.2264  0.0525
 4624TIP3    H135287   5.540   4.709   1.808  0.3245  2.6381  0.1247
 4624TIP3    H235288   5.669   4.729   1.884  0.5753 -0.4131  0.5976
 4625TIP3   OH235289   5.689   0.125  15.112  0.2976  0.4690  0.2276
 4625TIP3    H135290   5.749   0.166  15.050  0.6474  1.8868  1.4516
 4625TIP3    H235291   5.602   0.145  15.078  0.4768  1.7202  0.4352
 4626TIP3   OH235292   3.064   3.669   1.872 -0.2494 -0.6176  0.2997
 4626TIP3    H135293   3.125   3.710   1.933  0.3570  1.3290 -1.4935
 4626TIP3    H235294   3.020   3.601   1.924  2.8366 -1.5843  1.8742
 4627TIP3   OH235295   2.972   3.109  16.877 -0.1426  0.1839 -0.8795
 4627TIP3    H135296   2.919   3.058  16.939  0.3348 -0.9000 -1.3341
 4627TIP3    H235297   2.908   3.152  16.821 -0.5791  1.0974  0.2842
 4628TIP3   OH235298   1.558   4.610   1.746 -0.2242 -0.4165 -0.4360
 4628TIP3    H135299   1.514   4.694   1.758  1.3689  0.1940  1.6622
 4628TIP3    H235300   1.575   4.606   1.652 -2.4703  0.4252 -0.9534
 4629TIP3   OH235301   0.051   2.120   5.752  0.5059 -0.2397 -0.3245
 4629TIP3    H135302   0.067   2.123   5.846  0.1655  0.6796 -0.2932
 4629TIP3    H235303  -0.044   2.128   5.744  0.5113 -0.5845 -0.7362
 4630TIP3   OH235304   5.976   5.102  16.638 -0.6621  0.3489 -0.0731
 4630TIP3    H135305   6.000   5.091  16.731 -0.7368 -2.9063 -0.3113
 4630TIP3    H235306   5.906   5.039  16.624 -0.4382  0.5381 -2.4296
 4631TIP3   OH235307   1.155   3.417   2.714  0.3171  0.0836  0.2747
 4631TIP3    H135308   1.162   3.454   2.626  0.0058 -1.4874 -0.4494
 4631TIP3    H235309   1.064   3.388   2.721  0.8288 -1.6449  0.3112
 4632TIP3   OH235310   4.356   4.710   4.765 -1.3982 -0.0123 -0.9370
 4632TIP3    H135311   4.378   4.797   4.800  0.4965  0.0114 -2.0117
 4632TIP3    H235312   4.331   4.727   4.674  1.9661 -0.7651 -2.1402
 4633TIP3   OH235313   2.960   6.708   4.195 -0.1115  0.2868 -0.3404
 4633TIP3    H135314   3.010   6.702   4.114  0.8972 -0.0731  0.2925
 4633TIP3    H235315   2.970   6.799   4.224 -0.6621  0.4745 -0.7331
 4634TIP3   OH235316   3.985   0.459  15.802 -0.2541 -0.0334 -0.5446
 4634TIP3    H135317   3.924   0.492  15.736  0.9370 -2.5392 -3.1069
 4634TIP3    H235318   4.041   0.534  15.822 -1.6883  1.2433 -1.1318
 4635TIP3   OH235319   5.414   0.587   2.694  0.0420  0.1366  0.2779
 4635TIP3    H135320   5.378   0.674   2.678 -0.6128 -0.0466  0.7088
 4635TIP3    H235321   5.383   0.565   2.782  0.7537 -0.2575  0.4342
 4636TIP3   OH235322   1.603   1.115  12.181 -0.1837  0.3979  0.1265
 4636TIP3    H135323   1.557   1.074  12.108  0.6574 -0.6910  0.1750
 4636TIP3    H235324   1.534   1.155  12.234 -0.9763 -0.3705 -0.3005
 4637TIP3   OH235325   0.306   4.505   4.187 -0.2159 -0.2191 -0.4625
 4637TIP3    H135326   0.364   4.575   4.217  0.4100 -0.7438 -0.4472
 4637TIP3    H235327   0.264   4.474   4.267 -0.0777 -0.2377 -0.3971
 4638TIP3   OH235328   6.437   5.772  14.002 -0.5297  0.4455 -0.0286
 4638TIP3    H135329   6.384   5.751  14.080 -0.0647 -1.6544 -0.2279
 4638TIP3    H235330   6.393   5.727  13.930  0.4946  0.2187 -0.5290
 4639TIP3   OH235331   0.425   0.987   1.743  0.3162 -0.0156 -0.5622
 4639TIP3    H135332   0.379   0.989   1.826 -1.2222 -1.5579 -1.3120
 4639TIP3    H235333   0.506   0.939   1.760  0.7212  0.9593  0.3321
 4640TIP3   OH235334   5.985   6.679   3.244 -0.7597 -0.3769  0.8085
 4640TIP3    H135335   6.017   6.590   3.240  1.6548  0.4386  0.4557
 4640TIP3    H235336   6.014   6.720   3.163 -0.9877  0.9808  1.3719
 4641TIP3   OH235337   2.206   0.056   6.849  0.1040  0.0800  0.3445
 4641TIP3    H135338   2.190   0.148   6.828  1.6753  0.0938 -0.9702
 4641TIP3    H235339   2.300   0.051   6.867 -0.3485 -0.8478  2.9057
 4642TIP3   OH235340   2.250   1.627   4.366 -0.2970  0.2805 -0.2363
 4642TIP3    H135341   2.321   1.684   4.394  0.5604 -1.1480  0.5975
 4642TIP3    H235342   2.172   1.664   4.408 -0.1523  2.0034 -1.3583
 4643TIP3   OH235343   3.242   3.392  12.718  0.1105 -0.1582 -0.9538
 4643TIP3    H135344   3.336   3.394  12.732 -0.0808  0.9472  0.3458
 4643TIP3    H235345   3.205   3.368  12.803 -0.7831 -0.7521 -1.4915
 4644TIP3   OH235346   5.895   4.132  13.374  0.1766 -0.2118  0.0880
 4644TIP3    H135347   5.816   4.101  13.419 -1.3182  0.9806 -1.5773
 4644TIP3    H235348   5.933   4.195  13.435 -2.5931  2.4571 -0.7146
 4645TIP3   OH235349   6.009   4.739  15.085 -0.2914 -0.2134 -0.1752
 4645TIP3    H135350   6.014   4.769  15.175  0.6440  2.1037 -0.9078
 4645TIP3    H235351   5.920   4.703  15.076 -1.2701  1.7123  1.0671
 4646TIP3   OH235352   3.472   2.954   5.035  0.2923  0.4793  0.3422
 4646TIP3    H135353   3.544   2.955   4.972  1.1167 -2.7286  1.0797
 4646TIP3    H235354   3.393   2.962   4.982  1.0639  0.9373 -0.7774
 4647TIP3   OH235355   0.244   1.302   1.230  0.2818  0.0278  0.5814
 4647TIP3    H135356   0.210   1.379   1.275  2.5853  1.2094  0.4358
 4647TIP3    H235357   0.172   1.275   1.172 -0.8193  1.6731  1.1027
 4648TIP3   OH235358   4.997   2.091   3.538 -0.0296 -0.0480 -0.4275
 4648TIP3    H135359   5.084   2.096   3.501  0.1733  0.3216  0.0856
 4648TIP3    H235360   5.000   2.015   3.596  0.4624  0.9018  0.8482
 4649TIP3   OH235361   4.563   2.191  15.930  0.4270 -0.4415  0.0051
 4649TIP3    H135362   4.471   2.177  15.908 -0.7157  4.2774  0.8923
 4649TIP3    H235363   4.582   2.125  15.996 -2.1793 -1.7235 -0.3962
 4650TIP3   OH235364   4.778   5.634  13.104  0.3919  0.0866 -0.3267
 4650TIP3    H135365   4.708   5.698  13.112  1.0280  0.8496 -0.7326
 4650TIP3    H235366   4.741   5.553  13.139 -1.7606 -0.3793 -3.3181
 4651TIP3   OH235367   3.666   5.438   2.991  0.6460  0.3447  0.9818
 4651TIP3    H135368   3.680   5.505   2.923  0.1491  0.1405  0.6731
 4651TIP3    H235369   3.754   5.407   3.012  0.7338 -0.6276 -0.6396
 4652TIP3   OH235370   5.597   5.153   2.357 -0.4924  0.3803  0.2008
 4652TIP3    H135371   5.616   5.238   2.315  0.1890  0.3741  0.4756
 4652TIP3    H235372   5.502   5.148   2.358 -0.5647 -0.0378 -2.1785
 4653TIP3   OH235373   6.336   3.199  16.984 -0.0212  0.7460 -0.2542
 4653TIP3    H135374   6.366   3.212  16.894  1.2606  0.0453  0.0523
 4653TIP3    H235375   6.414   3.173  17.032 -0.9180 -0.0942  0.8114
 4654TIP3   OH235376   1.109   6.647   6.021 -0.0391  0.3863  0.5784
 4654TIP3    H135377   1.197   6.619   6.048  0.9990  1.1454 -1.7629
 4654TIP3    H235378   1.107   6.633   5.927 -3.1499 -1.3549  0.7634
 4655TIP3   OH235379   4.652   4.063   1.238 -0.1888  0.4698  0.9674
 4655TIP3    H135380   4.568   4.092   1.275  0.0530  0.2062  1.7397
 4655TIP3    H235381   4.686   4.140   1.192 -0.3955  0.8716  1.4834
 4656TIP3   OH235382   2.215   2.824   1.378  0.2343 -0.2240 -0.3104
 4656TIP3    H135383   2.169   2.742   1.365 -0.5692  0.2416 -0.4602
 4656TIP3    H235384   2.216   2.837   1.473  0.6274 -0.5466 -0.2667
 4657TIP3   OH235385   4.134   1.676   3.756  0.0881  0.1735 -0.1395
 4657TIP3    H135386   4.046   1.710   3.741  0.0005 -0.1066 -0.2690
 4657TIP3    H235387   4.121   1.582   3.771  0.1884  0.3821  1.4594
 4658TIP3   OH235388   2.087   1.929   6.651  0.3387  0.0054  0.2719
 4658TIP3    H135389   2.155   1.863   6.651  0.4845  0.1520 -0.0102
 4658TIP3    H235390   2.055   1.932   6.741 -0.3435 -1.1359  0.0851
 4659TIP3   OH235391   1.715   5.256  14.942  0.0854 -0.1240  0.4181
 4659TIP3    H135392   1.661   5.312  14.999 -0.6103 -0.1823 -0.1720
 4659TIP3    H235393   1.696   5.288  14.854  1.7911  0.5221  0.2504
 4660TIP3   OH235394   0.569   6.200  11.203 -0.1328 -0.1082  0.4876
 4660TIP3    H135395   0.620   6.120  11.194  0.4835  0.3553 -0.2686
 4660TIP3    H235396   0.563   6.214  11.298  1.7310  0.1673  0.6127
 4661TIP3   OH235397   1.802   2.887  14.778 -0.0058  0.4143 -0.1285
 4661TIP3    H135398   1.770   2.841  14.856 -0.8650 -0.0772 -0.7596
 4661TIP3    H235399   1.894   2.904  14.797 -0.5287  1.6139  1.6229
 4662TIP3   OH235400   6.242   5.433  14.038  0.2204 -0.1293 -0.0025
 4662TIP3    H135401   6.216   5.352  14.083 -1.7562 -0.0058 -0.8020
 4662TIP3    H235402   6.184   5.500  14.075  0.9799  0.6760 -0.2457
 4663TIP3   OH235403   5.343   1.481   3.420 -0.1941  0.0420  0.2598
 4663TIP3    H135404   5.315   1.514   3.506 -0.0546 -1.0567  0.7400
 4663TIP3    H235405   5.285   1.407   3.403 -0.5374  0.5448 -0.8288
 4664TIP3   OH235406   0.307   2.100  15.544 -0.2255 -0.3179 -0.3774
 4664TIP3    H135407   0.223   2.124  15.583  0.1392 -0.3072  0.4142
 4664TIP3    H235408   0.368   2.167  15.575  0.1824 -0.6028 -0.5539
 4665TIP3   OH235409   1.554   2.825   1.693  0.6445  0.6127 -0.2043
 4665TIP3    H135410   1.516   2.899   1.741 -0.8233  0.9075 -1.6789
 4665TIP3    H235411   1.643   2.852   1.673  0.8112  1.0745  1.0743
 4666TIP3   OH235412   2.411   4.280  14.750  0.0116  0.0984  0.3355
 4666TIP3    H135413   2.445   4.292  14.839  1.0620  2.7310 -0.2986
 4666TIP3    H235414   2.392   4.369  14.720  0.6564 -0.5982 -2.4315
 4667TIP3   OH235415   4.083   2.555  12.889 -0.2724 -0.0907  0.5756
 4667TIP3    H135416   4.029   2.560  12.810  0.1327 -0.7849  0.2481
 4667TIP3    H235417   4.110   2.463  12.894  0.9653  0.2643  0.6728
 4668TIP3   OH235418   2.052   0.001   5.403 -0.5682  0.4779 -0.0437
 4668TIP3    H135419   2.130  -0.054   5.408 -0.4670  0.6287  0.0852
 4668TIP3    H235420   2.080   0.078   5.353 -0.1315  1.3343  1.4286
 4669TIP3   OH235421   4.978   1.538   3.323  0.3200 -0.1234 -0.1780
 4669TIP3    H135422   5.016   1.452   3.304  0.4321  0.0765 -0.8826
 4669TIP3    H235423   4.911   1.550   3.256 -0.9328 -0.4163  0.9632
 4670TIP3   OH235424   0.392   1.446  14.830 -0.3860 -0.7210 -0.4843
 4670TIP3    H135425   0.473   1.482  14.866 -0.3501 -3.5248  2.7273
 4670TIP3    H235426   0.351   1.520  14.786  1.0111  2.4728  2.9792
 4671TIP3   OH235427   5.264   1.085   4.457  0.1319  0.1644  0.2015
 4671TIP3    H135428   5.192   1.082   4.394  0.0590  0.1555  0.2848
 4671TIP3    H235429   5.343   1.070   4.405 -0.0738 -1.5577  0.3568
 4672TIP3   OH235430   0.942   1.032  13.558 -0.2199  0.3659 -0.1192
 4672TIP3    H135431   0.980   1.102  13.612  1.2269  0.2334 -0.9048
 4672TIP3    H235432   0.988   0.953  13.586  0.3183  0.2417 -1.2987
 4673TIP3   OH235433   3.980   6.536  13.354  0.0209  0.4824  0.4067
 4673TIP3    H135434   4.070   6.531  13.320 -0.6005 -2.1623 -1.0957
 4673TIP3    H235435   3.932   6.583  13.286 -0.6120 -2.2494 -1.1851
 4674TIP3   OH235436   6.104   6.651  17.036 -0.5135  0.4500  0.4148
 4674TIP3    H135437   6.093   6.593  16.960  0.9882 -0.1365  0.5988
 4674TIP3    H235438   6.121   6.737  16.997 -1.3028  0.4782  0.1140
 4675TIP3   OH235439   3.200   2.156  13.628 -0.0798 -0.0350  0.4516
 4675TIP3    H135440   3.211   2.114  13.713 -0.3778  1.7575  1.4238
 4675TIP3    H235441   3.287   2.151  13.589  0.7617  1.3756  1.9973
 4676TIP3   OH235442   0.595   4.138   2.293 -0.0639  0.3124 -0.1622
 4676TIP3    H135443   0.620   4.055   2.250  0.0400  1.3557 -2.2411
 4676TIP3    H235444   0.672   4.194   2.280  0.0881  0.5856  1.7354
 4677TIP3   OH235445   0.219   4.463  11.701 -0.1017  0.2719 -0.8599
 4677TIP3    H135446   0.223   4.528  11.631  0.7096  0.3131 -0.7930
 4677TIP3    H235447   0.296   4.407  11.686  0.3131  0.5209  0.2131
 4678TIP3   OH235448   6.033   5.979  15.707 -0.1630  0.3180 -0.2203
 4678TIP3    H135449   6.001   6.063  15.739 -0.1110  0.1140  0.3682
 4678TIP3    H235450   6.061   5.997  15.617 -0.9959  0.7197 -0.4021
 4679TIP3   OH235451   0.519   1.049   4.526 -0.1835 -0.2973  0.7871
 4679TIP3    H135452   0.549   1.057   4.435 -1.0621  0.9877  0.5859
 4679TIP3    H235453   0.573   1.113   4.573 -1.0473  0.4477  0.8021
 4680TIP3   OH235454   0.377   3.176   0.166  0.5939 -0.5684 -0.1388
 4680TIP3    H135455   0.313   3.149   0.100 -1.9272  0.2109  1.8228
 4680TIP3    H235456   0.386   3.271   0.154 -1.0240 -0.1628  1.4707
 4681TIP3   OH235457   4.041   2.762  16.623  0.4347  0.2815 -0.1009
 4681TIP3    H135458   4.018   2.850  16.653 -0.0940  0.3094 -0.5706
 4681TIP3    H235459   4.107   2.776  16.555 -1.2285  0.4929 -1.7801
 4682TIP3   OH235460   5.670   3.793   3.420  0.2107 -0.1654  0.3767
 4682TIP3    H135461   5.594   3.844   3.395  0.8398 -0.6413 -2.9000
 4682TIP3    H235462   5.644   3.702   3.406  1.0018 -0.4093  0.4033
 4683TIP3   OH235463   1.673   4.985  13.499 -0.2419 -0.0389 -0.1039
 4683TIP3    H135464   1.726   5.029  13.434  0.0343 -0.7957 -0.4016
 4683TIP3    H235465   1.585   5.019  13.486  0.4102  2.5051  1.5025
 4684TIP3   OH235466   1.259   0.998  14.454 -0.1440 -0.0653 -0.3545
 4684TIP3    H135467   1.169   1.003  14.486 -0.3499 -0.7198 -0.8059
 4684TIP3    H235468   1.313   0.989  14.532 -0.4165  0.8999 -0.0449
 4685TIP3   OH235469   2.099   0.958  14.802 -0.6923 -0.1238 -0.2572
 4685TIP3    H135470   2.147   1.004  14.733 -0.7930  0.1681 -0.1328
 4685TIP3    H235471   2.007   0.964  14.776 -0.8198  0.7672  0.3562
 4686TIP3   OH235472   6.378   0.278  11.535  0.0536  0.1461 -0.0957
 4686TIP3    H135473   6.354   0.248  11.447  0.2987 -0.5310  0.0598
 4686TIP3    H235474   6.383   0.197  11.586  1.4622  0.3886  0.1684
 4687TIP3   OH235475   0.070   3.450  14.058  0.1499  0.1212 -0.1130
 4687TIP3    H135476   0.133   3.378  14.057 -0.7751 -0.7335  0.6885
 4687TIP3    H235477  -0.009   3.412  14.018 -0.6169  0.4091  1.0709
 4688TIP3   OH235478   0.637   4.137   3.935 -0.5242  0.1974  0.5191
 4688TIP3    H135479   0.548   4.105   3.950 -0.9408  0.3249 -1.3828
 4688TIP3    H235480   0.694   4.065   3.962 -1.2126 -0.0167  1.4325
 4689TIP3   OH235481   0.338   5.278  12.509  0.4795  0.1083 -0.4664
 4689TIP3    H135482   0.389   5.271  12.589 -1.2445 -0.1763  0.6707
 4689TIP3    H235483   0.372   5.355  12.465 -0.7279  2.3432  2.2182
 4690TIP3   OH235484   6.026   1.897   6.050 -0.2591  0.2186  0.0075
 4690TIP3    H135485   6.058   1.973   6.001 -3.0078  0.1888 -2.0693
 4690TIP3    H235486   6.077   1.897   6.131  2.1340  2.2972 -1.3627
 4691TIP3   OH235487   0.319   0.060   1.925 -0.2172  0.4269  0.1361
 4691TIP3    H135488   0.412   0.066   1.943 -0.0470 -1.2037  0.0088
 4691TIP3    H235489   0.283   0.011   1.999 -1.0753  1.4506  0.4313
 4692TIP3   OH235490   3.884   3.177   4.616 -0.6821 -0.0013  0.7654
 4692TIP3    H135491   3.882   3.120   4.539 -1.2545  0.7261  0.2211
 4692TIP3    H235492   3.970   3.164   4.655 -0.8129 -1.2496  0.6707
 4693TIP3   OH235493   5.967   0.674   6.234 -0.2724  0.3053  0.2195
 4693TIP3    H135494   5.969   0.592   6.283 -0.7382 -0.8801 -1.6195
 4693TIP3    H235495   6.047   0.719   6.259 -0.2568 -0.4685  1.6540
 4694TIP3   OH235496   2.905   3.683  12.353 -0.1383 -0.4800 -0.2796
 4694TIP3    H135497   2.979   3.721  12.304 -0.9579  0.6310 -0.7102
 4694TIP3    H235498   2.916   3.589  12.343 -0.5615 -0.3117 -3.1214
 4695TIP3   OH235499   4.251   2.253   1.868 -0.0899  0.2630  0.0132
 4695TIP3    H135500   4.217   2.216   1.950  0.8139  1.0082  0.7520
 4695TIP3    H235501   4.179   2.305   1.833 -0.4659 -0.0124  0.3701
 4696TIP3   OH235502   3.123   0.581  16.427 -0.2439  0.8221  0.0451
 4696TIP3    H135503   3.208   0.623  16.415  0.4095 -0.4400  0.1264
 4696TIP3    H235504   3.085   0.625  16.503  0.8897  0.5420  0.7905
 4697TIP3   OH235505   6.538   4.245  17.386 -0.1304  0.3835  0.4536
 4697TIP3    H135506   6.462   4.188  17.395  0.3741 -0.1866  1.2586
 4697TIP3    H235507   6.613   4.190  17.408  0.4665  1.0889  0.2488
 4698TIP3   OH235508   0.246   2.597   0.752  0.0874  0.4347 -0.0032
 4698TIP3    H135509   0.257   2.502   0.749  0.8402  0.5342 -0.4382
 4698TIP3    H235510   0.167   2.610   0.806 -1.4020 -0.5214 -1.8542
 4699TIP3   OH235511   5.929   5.081  13.115 -0.0767  0.1372 -0.2198
 4699TIP3    H135512   5.936   5.149  13.048  4.4776  0.9706  0.7708
 4699TIP3    H235513   5.963   5.002  13.073  0.5388  0.0759  0.3640
 4700TIP3   OH235514   4.719   2.815   1.344 -0.0115  0.4595  0.2962
 4700TIP3    H135515   4.744   2.853   1.260 -1.4291 -1.0839 -0.9124
 4700TIP3    H235516   4.789   2.753   1.364  0.7398  1.4222  0.6850
 4701TIP3   OH235517   6.158   3.456   3.203  0.3974  0.0164 -0.0333
 4701TIP3    H135518   6.133   3.508   3.280  1.5747 -0.1823  0.5023
 4701TIP3    H235519   6.126   3.368   3.222 -1.0740  0.3784 -0.6795
 4702TIP3   OH235520   1.905   4.079  17.437 -0.0588  0.5006  0.3006
 4702TIP3    H135521   2.001   4.081  17.439 -0.0633  1.5882  2.3564
 4702TIP3    H235522   1.883   4.092  17.345  1.7541 -0.7110 -0.3594
 4703TIP3   OH235523   5.159   1.844   2.187 -0.1333  0.5042 -0.1576
 4703TIP3    H135524   5.093   1.774   2.188  1.5629 -1.1678  0.7658
 4703TIP3    H235525   5.181   1.854   2.095 -1.6673  1.1232 -0.4892
 4704TIP3   OH235526   0.940   3.933  14.778  0.3575 -0.5724  0.0136
 4704TIP3    H135527   0.907   4.018  14.748 -0.3890 -1.7882 -3.0146
 4704TIP3    H235528   0.927   3.934  14.873 -0.3048  2.3787 -0.0125
 4705TIP3   OH235529   6.125   0.010   0.990 -0.3728 -0.2803  0.3714
 4705TIP3    H135530   6.133  -0.085   0.990  2.7818 -0.1472  1.5301
 4705TIP3    H235531   6.146   0.036   1.080 -0.0272  1.5601 -0.1926
 4706TIP3   OH235532   5.010   2.435  15.879 -0.2422  0.1669  0.7966
 4706TIP3    H135533   5.024   2.410  15.970  3.0653 -0.2352  0.3247
 4706TIP3    H235534   5.023   2.354  15.830  0.6885  0.8648 -0.1547
 4707TIP3   OH235535   0.981   4.487   5.886  0.2653  0.2983  0.5710
 4707TIP3    H135536   0.961   4.550   5.817  0.9794 -1.6684 -1.5711
 4707TIP3    H235537   1.065   4.516   5.921 -0.1095  1.3306  0.6662
 4708TIP3   OH235538   5.875   0.556  13.223  0.1109 -0.5959 -0.1281
 4708TIP3    H135539   5.821   0.532  13.298  0.3348  0.2792  0.3308
 4708TIP3    H235540   5.814   0.594  13.160  0.5000  3.9727  1.8804
 4709TIP3   OH235541   5.559   2.952  16.885 -0.3345 -0.1717  0.1156
 4709TIP3    H135542   5.617   2.993  16.948  0.6400 -0.7392 -0.3852
 4709TIP3    H235543   5.475   2.997  16.896  0.9002  2.5879 -1.0573
 4710TIP3   OH235544   4.334   2.729  11.534  0.5310 -0.1188 -0.1322
 4710TIP3    H135545   4.265   2.692  11.479 -0.2818 -0.6098  1.1508
 4710TIP3    H235546   4.309   2.704  11.623  0.5461  2.5870  0.7233
 4711TIP3   OH235547   1.094   3.745  14.270  0.0935  0.1355 -0.1276
 4711TIP3    H135548   1.069   3.660  14.307  0.5045  0.6157  1.3010
 4711TIP3    H235549   1.023   3.804  14.296  0.2520  0.4275 -0.3538
 4712TIP3   OH235550   0.211   4.953   2.369  0.1013  0.1022  0.2425
 4712TIP3    H135551   0.232   5.046   2.356 -0.8064  0.2739 -0.0966
 4712TIP3    H235552   0.231   4.937   2.461  1.0738  0.4053  0.1037
 4713TIP3   OH235553   1.994   3.779   3.525  0.1239  0.3759  0.0874
 4713TIP3    H135554   2.038   3.840   3.583  0.2024  0.5489 -0.1512
 4713TIP3    H235555   1.960   3.711   3.583 -1.8087  1.7089  0.6157
 4714TIP3   OH235556   5.532   3.369   5.014  0.3530 -0.0178 -0.7896
 4714TIP3    H135557   5.440   3.389   4.995  0.3779  1.2700  0.2984
 4714TIP3    H235558   5.580   3.445   4.980  0.8514  0.0492  0.0522
 4715TIP3   OH235559   4.034   3.307  16.914  0.2289 -0.3126  0.1738
 4715TIP3    H135560   4.123   3.274  16.903 -0.0349 -2.0084  2.2761
 4715TIP3    H235561   4.045   3.398  16.941  1.3894 -0.6436  0.8997
 4716TIP3   OH235562   2.715   0.733   1.444 -0.0282  0.3039  0.6201
 4716TIP3    H135563   2.771   0.670   1.488  0.6750 -0.7494 -1.6378
 4716TIP3    H235564   2.755   0.818   1.463  2.7070 -0.4339 -1.2719
 4717TIP3   OH235565   6.083   0.703  12.595 -0.1479  0.2827 -0.0418
 4717TIP3    H135566   6.112   0.652  12.519  1.5983 -0.6776  1.1937
 4717TIP3    H235567   5.993   0.728  12.574  0.6468  1.1271 -2.9466
 4718TIP3   OH235568   2.244   4.172   0.838  0.2446 -0.2124 -0.0555
 4718TIP3    H135569   2.156   4.170   0.800  0.4167  0.0814 -0.4855
 4718TIP3    H235570   2.300   4.132   0.771  0.6254  0.7241 -0.3225
 4719TIP3   OH235571   3.298   2.262   0.369 -0.2413  0.2146 -0.4168
 4719TIP3    H135572   3.275   2.262   0.462  0.0105 -0.3822 -0.3505
 4719TIP3    H235573   3.377   2.316   0.363  2.9353 -3.8956  0.5631
 4720TIP3   OH235574   2.698   0.229   3.823  0.4025  0.1575 -0.2607
 4720TIP3    H135575   2.612   0.209   3.859  0.8892 -1.5225  0.0530
 4720TIP3    H235576   2.689   0.318   3.787 -1.4485  0.0173 -0.2455
 4721TIP3   OH235577   4.932   0.500  12.022  0.2621  0.6905 -0.6055
 4721TIP3    H135578   4.993   0.446  11.971  0.5410  0.2528  0.1724
 4721TIP3    H235579   4.909   0.572  11.964  3.1377  2.0585 -0.2262
 4722TIP3   OH235580   5.932   3.511  14.344 -0.5359 -0.2562 -0.5185
 4722TIP3    H135581   5.881   3.566  14.405 -0.6325 -1.8014  0.8503
 4722TIP3    H235582   5.876   3.435  14.329  0.8839 -1.4465  0.1039
 4723TIP3   OH235583   2.700   5.605  16.882 -0.4750 -0.1503  0.2981
 4723TIP3    H135584   2.721   5.679  16.939  0.1130 -0.3925  0.4047
 4723TIP3    H235585   2.674   5.535  16.941 -1.2183  0.0221  0.1875
 4724TIP3   OH235586   0.525   5.645  11.538 -0.4595  0.3573 -0.2828
 4724TIP3    H135587   0.536   5.733  11.575  0.7625  0.8206 -1.6405
 4724TIP3    H235588   0.433   5.642  11.512 -1.1165  0.3477  1.8545
 4725TIP3   OH235589   6.470   3.511   1.271 -0.5033 -0.1526  0.0568
 4725TIP3    H135590   6.377   3.489   1.269 -0.2578 -1.2175 -0.2868
 4725TIP3    H235591   6.514   3.427   1.286  0.4330  0.2229 -0.5236
 4726TIP3   OH235592   5.131   2.559   2.094  0.1724  0.2144  0.1504
 4726TIP3    H135593   5.068   2.569   2.165 -1.3406 -0.4784 -1.0505
 4726TIP3    H235594   5.186   2.485   2.121 -0.6437 -0.3047  0.4115
 4727TIP3   OH235595   4.729   6.036  17.203 -0.3049 -0.1578 -0.1927
 4727TIP3    H135596   4.810   5.998  17.171  0.8314  1.5156  0.5601
 4727TIP3    H235597   4.710   6.108  17.143 -0.3068  0.5087  0.5930
 4728TIP3   OH235598   4.273   2.141  14.603  0.5323 -0.5431 -0.3363
 4728TIP3    H135599   4.291   2.218  14.549  0.4167 -0.2735  0.0062
 4728TIP3    H235600   4.347   2.137  14.663 -0.3900  0.4444  0.9351
 4729TIP3   OH235601   0.446   0.191  14.397 -0.0379 -0.2735  0.4754
 4729TIP3    H135602   0.404   0.257  14.343 -1.3053 -1.3627  0.0763
 4729TIP3    H235603   0.513   0.153  14.340  0.7299  0.6681  0.7249
 4730TIP3   OH235604   4.917   3.483  11.636  0.0783  0.3770 -0.0621
 4730TIP3    H135605   4.920   3.389  11.658  0.3818  0.5142  0.5168
 4730TIP3    H235606   4.832   3.512  11.670 -0.0326  0.3030 -0.2765
 4731TIP3   OH235607   4.274   3.338  11.080 -0.6966 -0.4704  0.2496
 4731TIP3    H135608   4.362   3.345  11.116 -0.8304 -0.5145  0.5949
 4731TIP3    H235609   4.284   3.288  10.999 -0.5672 -1.5726  0.9222
 4732TIP3   OH235610   2.661   5.925   6.466 -0.1462  0.5302  0.6568
 4732TIP3    H135611   2.636   5.991   6.401  1.0805 -0.6500 -1.1390
 4732TIP3    H235612   2.580   5.877   6.484 -0.1652 -0.6419 -1.9426
 4733TIP3   OH235613   2.009   1.516   3.739 -0.5629  0.1526 -0.2997
 4733TIP3    H135614   2.029   1.607   3.759  1.1301 -0.2555 -0.0351
 4733TIP3    H235615   2.028   1.507   3.645 -0.9713  0.1153 -0.3837
 4734TIP3   OH235616   6.022   4.711   5.708  0.0541 -0.9137  0.1122
 4734TIP3    H135617   5.989   4.623   5.695  0.9229 -1.0914 -1.1169
 4734TIP3    H235618   6.042   4.742   5.620  0.3673  0.2678  0.5802
 4735TIP3   OH235619   1.541   1.976  12.737 -0.2105 -0.2368 -0.0643
 4735TIP3    H135620   1.576   1.916  12.803  1.0593 -1.2386 -1.5962
 4735TIP3    H235621   1.610   1.983  12.671 -1.3727  0.8711 -1.2237
 4736TIP3   OH235622   5.379   2.197   0.753 -1.2786  0.0032  0.6290
 4736TIP3    H135623   5.351   2.152   0.832  0.0172  0.5090  1.3985
 4736TIP3    H235624   5.418   2.128   0.699 -1.2557 -0.1714  0.8659
 4737TIP3   OH235625   2.698   5.937   4.568  0.9131  0.1348 -0.4452
 4737TIP3    H135626   2.737   5.854   4.542 -0.5817 -0.8455  0.3036
 4737TIP3    H235627   2.683   5.928   4.662 -1.0143  0.4889 -0.6852
 4738TIP3   OH235628   3.119   3.712  11.485 -0.0880  0.3262 -0.6214
 4738TIP3    H135629   3.077   3.797  11.499  0.1404  0.4917 -0.9401
 4738TIP3    H235630   3.209   3.724  11.512 -0.0843  0.1506 -0.5532
 4739TIP3   OH235631   3.353   3.733  10.604  0.1259  0.4876  0.5979
 4739TIP3    H135632   3.357   3.652  10.653  0.9758  0.4171  0.4221
 4739TIP3    H235633   3.441   3.746  10.570 -0.7847 -0.3407 -2.3437
 4740TIP3   OH235634   3.277   0.854   2.780 -0.7298 -0.0261 -0.4431
 4740TIP3    H135635   3.292   0.896   2.695 -1.2449  0.7628 -0.1627
 4740TIP3    H235636   3.342   0.784   2.785 -2.3485 -1.8298 -2.6246
 4741TIP3   OH235637   6.000   4.128   0.257 -0.1706 -0.0397  0.4515
 4741TIP3    H135638   5.964   4.186   0.325 -0.0671  0.0850  0.3996
 4741TIP3    H235639   6.088   4.161   0.242 -0.5668  0.6176 -0.5224
 4742TIP3   OH235640   5.180   5.077   4.710 -0.8834 -0.1431  0.2197
 4742TIP3    H135641   5.171   5.132   4.788 -2.0716  0.6037 -0.4084
 4742TIP3    H235642   5.104   5.019   4.712  0.2507 -1.6815  0.7672
 4743TIP3   OH235643   2.138   0.247  12.264  0.1176  0.7048 -0.8274
 4743TIP3    H135644   2.193   0.320  12.238  0.2533  0.8139 -0.2443
 4743TIP3    H235645   2.187   0.204  12.335 -0.1554  0.3007 -0.8775
 4744TIP3   OH235646   3.328   2.145   5.231 -0.1024 -0.0582  0.0295
 4744TIP3    H135647   3.236   2.173   5.233  0.4630  2.2925 -1.4799
 4744TIP3    H235648   3.328   2.058   5.269 -3.0165 -0.2898 -0.2628
 4745TIP3   OH235649   4.813   6.442   1.089  0.7282  0.3726 -0.3546
 4745TIP3    H135650   4.864   6.483   1.159  1.1825  0.5649 -0.7915
 4745TIP3    H235651   4.726   6.432   1.125  0.4299  2.2785 -0.4452
 4746TIP3   OH235652   2.631   2.331  15.148 -0.3681  0.0159  0.2405
 4746TIP3    H135653   2.657   2.263  15.087 -1.2700 -0.1189 -0.0122
 4746TIP3    H235654   2.699   2.330  15.216 -0.7494 -1.6422  0.6396
 4747TIP3   OH235655   4.069   4.982   6.330 -0.7461  1.2869  0.1563
 4747TIP3    H135656   4.106   5.070   6.328  0.5475  0.7642  0.3072
 4747TIP3    H235657   4.083   4.948   6.241 -2.4664  1.7025 -0.3049
 4748TIP3   OH235658   4.835   3.824   2.282 -0.4222 -0.3267  0.0138
 4748TIP3    H135659   4.853   3.774   2.202 -1.2098  1.7920 -1.5926
 4748TIP3    H235660   4.769   3.772   2.328  0.4938 -1.8944 -0.3718
 4749TIP3   OH235661   0.922   3.329  13.785  0.0187  0.1369 -0.4159
 4749TIP3    H135662   0.931   3.414  13.742 -0.1780  0.5335  0.2937
 4749TIP3    H235663   0.837   3.296  13.756  1.1052 -0.9627 -2.6013
 4750TIP3   OH235664   4.469   2.866   3.733 -0.6872  0.5563  0.6481
 4750TIP3    H135665   4.485   2.935   3.797  0.5261  0.2729  0.6710
 4750TIP3    H235666   4.396   2.817   3.770 -0.6696  1.0010  1.3117
 4751TIP3   OH235667   5.367   4.945  12.079  0.3017 -0.4633 -0.4738
 4751TIP3    H135668   5.274   4.923  12.086  0.3645 -0.3873  0.7891
 4751TIP3    H235669   5.385   4.999  12.156  0.7581  1.9420 -2.1346
 4752TIP3   OH235670   0.542   3.640   0.149  0.2395 -0.1258 -0.2743
 4752TIP3    H135671   0.456   3.646   0.107 -0.6133 -0.4612  1.3364
 4752TIP3    H235672   0.595   3.589   0.087 -0.9412 -0.5715 -0.9588
 4753TIP3   OH235673   6.273   0.358  12.920 -0.3933  0.2985 -0.1141
 4753TIP3    H135674   6.200   0.366  12.982 -1.3026 -0.4283 -1.0642
 4753TIP3    H235675   6.282   0.446  12.883  0.4136  0.8487  1.2836
 4754TIP3   OH235676   0.854   5.736  12.307 -0.2520 -0.2808 -0.1321
 4754TIP3    H135677   0.816   5.791  12.239  0.6175 -1.5796 -1.7274
 4754TIP3    H235678   0.799   5.658  12.309 -0.2683 -0.2584  0.6822
 4755TIP3   OH235679   0.764   2.823   2.289  0.1872 -0.1658 -0.4402
 4755TIP3    H135680   0.675   2.788   2.279 -0.3639  0.9847  0.2236
 4755TIP3    H235681   0.793   2.790   2.374 -0.3371  0.9641  0.1910
 4756TIP3   OH235682   3.167   5.797  13.501 -0.1440  0.2432  0.6300
 4756TIP3    H135683   3.233   5.817  13.567 -0.4800  1.6358  0.5817
 4756TIP3    H235684   3.217   5.775  13.422  0.2652  0.5402  0.8045
 4757TIP3   OH235685   5.915   2.275   3.904 -0.5095 -0.4138  0.2016
 4757TIP3    H135686   5.924   2.370   3.900  0.6366 -0.5298 -0.2790
 4757TIP3    H235687   5.876   2.258   3.990  1.6454  0.3498  1.4091
 4758TIP3   OH235688   6.182   1.967   5.708  0.4363  0.1696  0.3363
 4758TIP3    H135689   6.254   1.943   5.649  0.1456 -1.5854  0.6544
 4758TIP3    H235690   6.118   2.010   5.651  0.1748 -1.4633 -0.6793
 4759TIP3   OH235691   5.818   0.663  14.563 -0.5515 -0.3626 -0.1231
 4759TIP3    H135692   5.844   0.661  14.471 -0.7829  1.7419 -0.2989
 4759TIP3    H235693   5.754   0.593  14.571  1.2146 -2.1578 -0.9473
 4760TIP3   OH235694   4.926   4.528   2.225 -0.0252 -0.2589 -0.3641
 4760TIP3    H135695   4.963   4.440   2.232  0.0114 -0.3358 -1.4301
 4760TIP3    H235696   4.852   4.519   2.164 -0.2746  0.3731 -0.1679
 4761TIP3   OH235697   2.422   0.110   5.468  0.0139  0.7033  0.3992
 4761TIP3    H135698   2.482   0.036   5.457 -1.2664 -0.2784 -0.3132
 4761TIP3    H235699   2.367   0.107   5.390 -0.7258  1.7854  0.8690
 4762TIP3   OH235700   4.995   2.243   2.043  0.1186 -0.0870 -0.1267
 4762TIP3    H135701   4.961   2.163   2.002  0.4006 -0.4909  0.4133
 4762TIP3    H235702   5.077   2.215   2.084  1.9361  1.1564 -2.6412
 4763TIP3   OH235703   2.261   3.023  16.219 -0.1062 -0.0597  0.5594
 4763TIP3    H135704   2.223   2.963  16.155 -0.2373 -0.5764  1.1103
 4763TIP3    H235705   2.331   3.068  16.172 -2.0273  1.6721 -0.8138
 4764TIP3   OH235706   2.508   0.250  14.596  0.0923  0.0748 -1.0041
 4764TIP3    H135707   2.534   0.191  14.525  1.6782 -0.6284  0.1104
 4764TIP3    H235708   2.552   0.216  14.673 -1.0677  1.2108  0.2169
 4765TIP3   OH235709   6.093   4.519  12.699  0.0053  0.6767  0.0968
 4765TIP3    H135710   6.134   4.442  12.660 -2.1237 -2.5596  3.5348
 4765TIP3    H235711   6.162   4.559  12.752  0.5859 -0.2626  0.0759
 4766TIP3   OH235712   0.452   5.738   0.682 -0.3912 -0.7145 -0.2561
 4766TIP3    H135713   0.394   5.713   0.610  0.9359  1.0655 -2.0735
 4766TIP3    H235714   0.520   5.670   0.683 -0.3078 -0.6491 -0.8467
 4767TIP3   OH235715   0.415   2.061  17.345 -0.2546 -0.3150  0.6173
 4767TIP3    H135716   0.462   1.981  17.323  0.3344 -0.1917  1.3884
 4767TIP3    H235717   0.405   2.059  17.440  1.8200  1.5932  0.9629
 4768TIP3   OH235718   2.419   5.691   4.547  0.7240  0.2276  0.2668
 4768TIP3    H135719   2.330   5.657   4.559  0.6446  0.3710  0.0847
 4768TIP3    H235720   2.420   5.724   4.457  0.3587  2.0544  0.8914
 4769TIP3   OH235721   3.824   3.268   5.843 -0.0762 -0.2869  0.2201
 4769TIP3    H135722   3.880   3.332   5.800 -1.2536 -1.1660 -2.8251
 4769TIP3    H235723   3.881   3.192   5.858  0.0860 -0.4189 -0.9781
 4770TIP3   OH235724   4.363   1.838   4.796  0.9814 -0.2676 -0.6648
 4770TIP3    H135725   4.369   1.806   4.706  0.9153  0.4878 -0.9473
 4770TIP3    H235726   4.452   1.831   4.829  0.7238 -2.0064 -0.2571
 4771TIP3   OH235727   5.814   6.671   5.223 -0.2788  0.7444 -0.2853
 4771TIP3    H135728   5.849   6.690   5.310 -1.8717  1.0294  0.3386
 4771TIP3    H235729   5.836   6.580   5.207 -2.7823 -0.3749  1.9154
 4772TIP3   OH235730   0.119   3.092   5.062  0.3111  0.4888  0.4415
 4772TIP3    H135731   0.123   3.106   5.157 -0.5491 -2.2393  0.9673
 4772TIP3    H235732   0.193   3.036   5.043 -1.0241 -1.2034  0.0197
 4773TIP3   OH235733   5.777   4.242   4.237 -0.1742  0.2862  0.5833
 4773TIP3    H135734   5.700   4.286   4.273  1.0498  2.3691  0.7954
 4773TIP3    H235735   5.751   4.219   4.148 -2.2008 -2.2610  1.6873
 4774TIP3   OH235736   0.665   0.401  12.596  0.4416 -0.2817  0.0773
 4774TIP3    H135737   0.592   0.351  12.632  0.2922  0.2167  0.4792
 4774TIP3    H235738   0.737   0.339  12.592 -0.5947 -1.4508 -2.5048
 4775TIP3   OH235739   6.440   3.087   5.598  0.2889  0.4330 -0.4690
 4775TIP3    H135740   6.508   3.075   5.664  0.2247  0.1579 -0.4510
 4775TIP3    H235741   6.475   3.043   5.520 -0.1913 -0.3869 -0.2401
 4776TIP3   OH235742   2.542   2.369  15.916 -0.1714 -0.5413  0.0498
 4776TIP3    H135743   2.600   2.424  15.863  0.0248 -0.6928  0.1048
 4776TIP3    H235744   2.455   2.406  15.902 -0.2330 -1.0298 -0.9668
 4777TIP3   OH235745   4.124   5.366   2.509  0.2928  0.1703  0.0430
 4777TIP3    H135746   4.146   5.435   2.572 -0.0487  0.2069  0.1236
 4777TIP3    H235747   4.175   5.387   2.431 -0.9826  1.4124 -0.4977
 4778TIP3   OH235748   0.216   6.319  10.512  0.0908 -0.6626 -0.4589
 4778TIP3    H135749   0.191   6.238  10.466  0.2200 -1.4221  0.7803
 4778TIP3    H235750   0.274   6.291  10.582  1.9149  0.7535 -1.3121
 4779TIP3   OH235751   6.172   1.086  15.276 -0.2803 -0.0880 -0.1465
 4779TIP3    H135752   6.108   1.067  15.206 -3.0841  1.7943  1.6849
 4779TIP3    H235753   6.154   1.021  15.343  3.2700 -2.7129 -1.4312
 4780TIP3   OH235754   0.918   0.322   4.470  0.3193 -0.5500  0.2502
 4780TIP3    H135755   0.889   0.315   4.561  0.7724  0.1473  0.4575
 4780TIP3    H235756   0.888   0.408   4.442 -0.7030 -1.1624 -0.5979
 4781TIP3   OH235757   0.993   6.566  17.545 -0.2654 -0.0248 -0.2888
 4781TIP3    H135758   1.025   6.631  17.483  1.5662  1.0093  1.6309
 4781TIP3    H235759   0.957   6.618  17.617 -2.9134 -1.1846 -0.6431
 4782TIP3   OH235760   4.551   5.163  11.685 -0.4987  0.3739  0.4593
 4782TIP3    H135761   4.624   5.217  11.715 -0.1418  0.3754 -0.3796
 4782TIP3    H235762   4.580   5.073  11.701 -0.6457  0.3921  0.8500
 4783TIP3   OH235763   3.951   3.493  12.614 -0.5283 -0.2632 -0.3353
 4783TIP3    H135764   3.982   3.404  12.630 -0.6905 -0.4071 -0.7980
 4783TIP3    H235765   3.976   3.511  12.523  0.4786  0.5735  0.0880
 4784TIP3   OH235766   2.636   3.034   2.831  0.3504  0.1489  0.1783
 4784TIP3    H135767   2.646   3.036   2.926  1.9097 -1.3808  0.0965
 4784TIP3    H235768   2.586   3.113   2.810  0.6313  0.9051  2.1796
 4785TIP3   OH235769   5.537   4.209  10.691  0.2641 -0.6151 -0.1479
 4785TIP3    H135770   5.452   4.165  10.683  0.0327 -0.1364 -0.3312
 4785TIP3    H235771   5.523   4.295  10.652  0.3058  0.1846  1.5247
 4786TIP3   OH235772   4.047   6.259  12.417  0.0139 -0.5924  0.0494
 4786TIP3    H135773   4.123   6.203  12.408 -0.8298 -2.0569  1.5578
 4786TIP3    H235774   3.973   6.205  12.388 -0.8311 -0.3221  1.5901
 4787TIP3   OH235775   5.766   2.601   0.233 -0.0572 -0.6890  0.1034
 4787TIP3    H135776   5.755   2.669   0.166  0.7923 -1.5773 -0.9995
 4787TIP3    H235777   5.850   2.622   0.275 -0.7443  0.0484  1.1261
 4788TIP3   OH235778   4.375   0.622  16.516 -0.0506  0.5407 -0.1403
 4788TIP3    H135779   4.351   0.699  16.568 -1.8508  1.6342 -2.3955
 4788TIP3    H235780   4.464   0.640  16.486  0.8697  0.0660  2.1170
 4789TIP3   OH235781   0.485   4.201  10.880  0.2924 -0.0576  0.1181
 4789TIP3    H135782   0.433   4.139  10.932  0.7163 -1.1584 -0.7215
 4789TIP3    H235783   0.468   4.176  10.789  0.3143  1.2165 -0.2450
 4790TIP3   OH235784   6.183   3.653   6.346  0.1073 -0.7692  0.6189
 4790TIP3    H135785   6.102   3.625   6.304  0.2428 -0.4939  0.1520
 4790TIP3    H235786   6.188   3.604   6.427 -0.9082 -0.2300  1.0166
 4791TIP3   OH235787   3.807   2.124  17.285 -0.3797  0.4409  0.4249
 4791TIP3    H135788   3.783   2.065  17.213 -2.1482 -0.2155  1.5014
 4791TIP3    H235789   3.753   2.095  17.359  1.9727  0.5227  2.3070
 4792TIP3   OH235790   1.425   1.630   6.193 -0.7312 -0.0851 -0.0393
 4792TIP3    H135791   1.392   1.592   6.274  0.1216  0.6003  0.6527
 4792TIP3    H235792   1.493   1.691   6.221 -0.0132 -0.2570 -1.3009
 4793TIP3   OH235793   5.013   6.443  16.504  0.0054 -0.3434  0.1365
 4793TIP3    H135794   4.992   6.504  16.575 -1.6725  0.5214 -1.0344
 4793TIP3    H235795   4.996   6.492  16.424  0.9310 -1.6067 -0.8880
 4794TIP3   OH235796   3.822   2.798   1.479 -0.0269 -0.5609 -0.5071
 4794TIP3    H135797   3.861   2.855   1.413  1.0292  0.7202  1.1316
 4794TIP3    H235798   3.774   2.857   1.537  2.7934 -0.9193  2.4416
 4795TIP3   OH235799   1.218   5.738  17.292 -0.2606  0.2679 -0.5076
 4795TIP3    H135800   1.164   5.783  17.228 -0.6198  0.0902 -0.3309
 4795TIP3    H235801   1.306   5.773  17.278 -0.6474  1.5591  0.0851
 4796TIP3   OH235802   1.376   6.017   3.659  0.2417  0.1180  0.9612
 4796TIP3    H135803   1.344   5.935   3.620  0.1239  0.2534  0.7696
 4796TIP3    H235804   1.442   6.048   3.598 -1.7038  1.6591 -0.5270
 4797TIP3   OH235805   4.968   2.233  12.670 -0.6603  0.4977 -0.1233
 4797TIP3    H135806   4.994   2.168  12.735  0.9785  0.7009 -0.5327
 4797TIP3    H235807   4.982   2.190  12.586  1.1987  1.5841 -0.4285
 4798TIP3   OH235808   5.796   0.186  15.734  1.1758  0.1506 -0.3687
 4798TIP3    H135809   5.858   0.189  15.806  1.8008  1.0858 -0.9249
 4798TIP3    H235810   5.851   0.184  15.655  0.5216 -1.2832 -0.8300
 4799TIP3   OH235811   1.418   4.239  13.426  0.4120  0.1775 -0.2758
 4799TIP3    H135812   1.475   4.166  13.403  2.6184  1.5739  0.5015
 4799TIP3    H235813   1.477   4.309  13.453 -1.6675  1.8397  0.2687
 4800TIP3   OH235814   4.091   6.467   5.297  0.4346 -0.1654  0.2477
 4800TIP3    H135815   4.027   6.400   5.324  0.0048 -0.0737 -0.5209
 4800TIP3    H235816   4.163   6.417   5.258  0.3464 -0.2080  0.1387
 4801TIP3   OH235817   2.608   0.819   4.277  0.6196 -0.0866 -0.5488
 4801TIP3    H135818   2.658   0.836   4.197 -2.1286 -0.0578 -2.4208
 4801TIP3    H235819   2.642   0.735   4.308  2.4066  0.3574 -1.1648
 4802TIP3   OH235820   4.451   0.428   6.919  0.2881  0.3174  0.0882
 4802TIP3    H135821   4.493   0.392   6.841  0.3770  0.0171  0.2762
 4802TIP3    H235822   4.438   0.521   6.898  0.3600  0.2492 -0.2624
 4803TIP3   OH235823   5.171   6.306  13.108 -0.2753 -0.2761 -0.0987
 4803TIP3    H135824   5.241   6.369  13.093  0.8940 -1.5386 -0.1359
 4803TIP3    H235825   5.105   6.355  13.157  2.2582  0.0330  3.4221
 4804TIP3   OH235826   5.410   1.147  14.921 -0.3071 -0.3491  0.0857
 4804TIP3    H135827   5.499   1.182  14.926 -0.4985  0.4451 -1.4194
 4804TIP3    H235828   5.399   1.125  14.828 -2.0448  0.5703  0.0420
 4805TIP3   OH235829   6.213   2.594   2.660  0.1334 -0.2526  0.6069
 4805TIP3    H135830   6.256   2.592   2.746  0.9384 -0.3484  0.2121
 4805TIP3    H235831   6.248   2.517   2.615 -1.1920 -0.8761  0.6189
 4806TIP3   OH235832   2.266   2.052  16.369  0.8846 -0.2881  0.3161
 4806TIP3    H135833   2.182   2.008  16.377 -0.2743  2.0115  2.2490
 4806TIP3    H235834   2.331   1.982  16.375 -0.8546 -1.9204  1.1761
 4807TIP3   OH235835   1.150   0.353   2.682 -0.1296 -0.6379 -0.5431
 4807TIP3    H135836   1.233   0.306   2.690  0.1057 -0.0694  0.5516
 4807TIP3    H235837   1.084   0.283   2.685  0.2531 -0.9871  0.0415
 4808TIP3   OH235838   4.971   4.805   0.200  0.5304  0.3693 -0.0418
 4808TIP3    H135839   4.898   4.840   0.252 -0.1373 -0.6186 -0.2965
 4808TIP3    H235840   4.989   4.719   0.239  2.8127  1.3219  1.2273
 4809TIP3   OH235841   4.815   3.061  16.198 -0.0429 -0.6353  0.3062
 4809TIP3    H135842   4.732   3.095  16.232 -0.0407 -1.1894  0.9071
 4809TIP3    H235843   4.847   3.004  16.269  0.1843 -1.4854 -0.4666
 4810TIP3   OH235844   3.131   1.410   4.196  0.1169 -0.1187  0.3851
 4810TIP3    H135845   3.210   1.400   4.144 -0.7606 -0.4154 -0.9623
 4810TIP3    H235846   3.061   1.378   4.139 -0.8279 -1.0691  1.9990
 4811TIP3   OH235847   4.052   1.187   1.831 -0.1248 -0.3495 -0.0108
 4811TIP3    H135848   4.022   1.197   1.921  2.4774  1.0268  0.8193
 4811TIP3    H235849   4.016   1.262   1.785 -0.1193 -0.1397  0.3192
 4812TIP3   OH235850   1.585   4.928  12.220  0.1067 -0.0894  0.5412
 4812TIP3    H135851   1.662   4.978  12.247  0.9844 -0.7408 -0.6693
 4812TIP3    H235852   1.603   4.839  12.249 -0.4343 -0.1419  0.7181
 4813TIP3   OH235853   2.985   0.855   2.019 -0.0456  0.5574  0.0042
 4813TIP3    H135854   2.981   0.862   1.923  0.5736 -0.3847 -0.1075
 4813TIP3    H235855   3.072   0.889   2.041  0.6191 -1.0671  0.0160
 4814TIP3   OH235856   4.071   2.067  14.796 -0.5215  0.2488  0.2394
 4814TIP3    H135857   4.002   2.012  14.760 -1.0377  0.4616  0.8755
 4814TIP3    H235858   4.121   2.097  14.720 -1.1686  0.1431 -0.2299
 4815TIP3   OH235859   3.587   1.849   3.714  0.5823 -0.0935 -0.6215
 4815TIP3    H135860   3.510   1.828   3.661  0.2901  0.4617 -0.4249
 4815TIP3    H235861   3.557   1.919   3.773  0.9964 -0.4597  0.0329
 4816TIP3   OH235862   2.828   5.877  14.031 -0.3822 -0.1108  0.3766
 4816TIP3    H135863   2.745   5.843  13.997  0.4014 -1.3767 -0.3621
 4816TIP3    H235864   2.825   5.971  14.012 -1.1436 -0.3353 -0.7238
 4817TIP3   OH235865   5.815   3.354   3.109 -0.6106  0.2831  0.1503
 4817TIP3    H135866   5.878   3.398   3.052 -0.2237 -1.6957 -1.0179
 4817TIP3    H235867   5.730   3.390   3.082 -0.5658 -1.4012 -2.5492
 4818TIP3   OH235868   2.064   0.054   0.101 -0.4350  0.0828  0.1664
 4818TIP3    H135869   2.007   0.013   0.036  0.4125  2.3817 -2.1783
 4818TIP3    H235870   2.145   0.002   0.098 -0.9149 -0.7173  0.5382
 4819TIP3   OH235871   2.032   5.563   5.732 -0.0625 -0.5899 -0.1048
 4819TIP3    H135872   2.105   5.512   5.697 -1.1501 -0.9142 -2.0183
 4819TIP3    H235873   2.050   5.568   5.826  3.0251  0.3497 -0.6213
 4820TIP3   OH235874   3.421   0.048  15.698 -0.0706  0.6386 -0.0843
 4820TIP3    H135875   3.442   0.130  15.743  0.8165  0.5647 -0.3492
 4820TIP3    H235876   3.390  -0.010  15.767  2.0873  0.2485  0.6027
 4821TIP3   OH235877   1.545   5.391  15.246  0.0085 -0.2709 -0.1897
 4821TIP3    H135878   1.603   5.449  15.296  0.7408 -0.5559 -0.6928
 4821TIP3    H235879   1.537   5.432  15.160 -1.1835  0.1710  0.1022
 4822TIP3   OH235880   0.336   2.540  13.467  0.4929 -0.2528 -0.1367
 4822TIP3    H135881   0.325   2.483  13.543  0.4730  0.6195  0.5285
 4822TIP3    H235882   0.310   2.626  13.498  0.5228  0.1253 -1.1290
 4823TIP3   OH235883   4.785   3.651  15.592 -0.4223  0.5604  0.6333
 4823TIP3    H135884   4.707   3.607  15.626 -1.0177  0.5298 -0.7105
 4823TIP3    H235885   4.752   3.734  15.555  0.0588  0.2515 -0.5434
 4824TIP3   OH235886   1.047   3.696  11.171 -0.4549  0.2023  0.2803
 4824TIP3    H135887   1.138   3.718  11.194 -0.3930  1.1773 -0.7625
 4824TIP3    H235888   1.053   3.611  11.127 -0.5946 -1.7624  3.7170
 4825TIP3   OH235889   1.853   3.214  14.234  0.1510 -0.1425  0.7342
 4825TIP3    H135890   1.927   3.183  14.287 -0.6917 -0.0917  1.9809
 4825TIP3    H235891   1.802   3.269  14.293  0.6883  2.2911 -0.9423
 4826TIP3   OH235892   3.368   4.655  15.227  0.1882 -1.0257 -0.2181
 4826TIP3    H135893   3.435   4.645  15.159 -0.8469 -1.3809 -1.2086
 4826TIP3    H235894   3.326   4.739  15.208  0.1467 -0.9389  0.2344
 4827TIP3   OH235895   5.521   3.102   1.087 -0.4280  1.2119 -0.0026
 4827TIP3    H135896   5.590   3.093   1.022 -0.3459  2.7000 -0.1480
 4827TIP3    H235897   5.567   3.112   1.170 -0.5352 -1.5463  0.4788
 4828TIP3   OH235898   5.227   4.061   4.579  0.4997 -0.3243  0.0028
 4828TIP3    H135899   5.213   4.075   4.485  1.2250  0.9832  0.0622
 4828TIP3    H235900   5.316   4.026   4.584  0.8554  0.6161  0.2732
 4829TIP3   OH235901   3.919   4.459  11.156  0.1991 -0.0143  0.2457
 4829TIP3    H135902   3.974   4.537  11.149  0.0128  0.1741  0.8679
 4829TIP3    H235903   3.889   4.444  11.066 -0.5863  1.2328  0.2655
 4830TIP3   OH235904   2.055   0.268   2.663 -0.2886 -0.0436  0.4756
 4830TIP3    H135905   2.061   0.304   2.751  1.3976 -1.6915  1.1050
 4830TIP3    H235906   2.139   0.223   2.649 -1.7373 -2.6513 -0.6710
 4831TIP3   OH235907   5.806   4.776   6.027  0.0601 -0.4454  0.2763
 4831TIP3    H135908   5.854   4.852   6.061 -0.1711  0.0759 -0.5422
 4831TIP3    H235909   5.794   4.795   5.934  1.2754 -2.1422 -0.2794
 4832TIP3   OH235910   0.115   0.985  11.669 -0.3667  0.0416  0.6419
 4832TIP3    H135911   0.043   1.034  11.628 -0.5849 -0.4347  0.4412
 4832TIP3    H235912   0.109   0.898  11.629  0.4660  0.0690  0.4553
 4833TIP3   OH235913   0.947   5.742   1.505  0.3213  1.0660 -0.0500
 4833TIP3    H135914   0.870   5.799   1.497  1.2852  2.5855  0.8475
 4833TIP3    H235915   1.012   5.797   1.548  1.2446 -0.8153  1.0825
 4834TIP3   OH235916   1.053   5.648   2.641 -0.1183 -0.1872  0.1352
 4834TIP3    H135917   1.106   5.692   2.707 -2.6516  2.9724  0.3397
 4834TIP3    H235918   1.116   5.620   2.575  2.0103  1.2903  1.3994
 4835TIP3   OH235919   4.252   1.473   4.000 -0.5210  0.2962 -0.3352
 4835TIP3    H135920   4.292   1.427   3.926 -0.4901  1.4110 -1.0255
 4835TIP3    H235921   4.158   1.455   3.991 -0.4926  0.2238 -0.4941
 4836TIP3   OH235922   2.685   3.200  12.619  0.0534  0.5091  0.4815
 4836TIP3    H135923   2.638   3.196  12.536 -1.0821 -0.0886  1.1175
 4836TIP3    H235924   2.736   3.281  12.615 -1.6605  1.6132  0.0678
 4837TIP3   OH235925   6.056   3.313  16.963 -0.1822 -0.0868 -0.0199
 4837TIP3    H135926   6.143   3.275  16.972 -0.4642 -1.0118 -0.9785
 4837TIP3    H235927   6.028   3.288  16.875 -2.1575 -1.3799  0.9022
 4838TIP3   OH235928   1.958   1.242  12.609 -0.4861  0.7200 -0.0871
 4838TIP3    H135929   1.991   1.159  12.573 -0.1057 -0.0400  1.8483
 4838TIP3    H235930   1.899   1.276  12.542 -0.4385 -0.9944 -1.0581
 4839TIP3   OH235931   0.690   2.622   5.337 -0.1152  0.0887 -0.4151
 4839TIP3    H135932   0.667   2.640   5.428  2.3364  0.4375  0.2145
 4839TIP3    H235933   0.672   2.528   5.326 -0.5880  0.0790  0.3720
 4840TIP3   OH235934   1.229   2.392   0.714  0.0389 -0.5621 -0.0444
 4840TIP3    H135935   1.296   2.395   0.782  0.5479 -2.8098 -0.3728
 4840TIP3    H235936   1.181   2.311   0.731 -2.3357  0.7207 -0.1123
 4841TIP3   OH235937   6.212   3.820  12.121 -0.4251  0.3819  0.0037
 4841TIP3    H135938   6.238   3.837  12.212 -0.7703 -0.8432  0.3494
 4841TIP3    H235939   6.287   3.774  12.083 -0.5421  0.3073 -0.1380
 4842TIP3   OH235940   2.874   2.055   4.023 -0.0360 -0.0290  0.3672
 4842TIP3    H135941   2.827   2.126   4.066  1.5117  1.2855  0.0009
 4842TIP3    H235942   2.868   1.982   4.084 -1.4474  0.4842  0.8805
 4843TIP3   OH235943   4.691   4.554   3.206 -0.2922 -0.1236 -0.4100
 4843TIP3    H135944   4.621   4.493   3.229 -1.4328  1.1258 -0.4932
 4843TIP3    H235945   4.730   4.580   3.290 -1.1055  0.5357 -0.2298
 4844TIP3   OH235946   2.058   5.552   1.330  0.4861  0.2065 -0.1775
 4844TIP3    H135947   2.101   5.534   1.414  0.3211  2.4463  0.4394
 4844TIP3    H235948   2.113   5.508   1.265 -0.2987 -3.0757  1.1282
 4845TIP3   OH235949   3.082   5.083   0.479  0.0082 -0.1713 -0.0789
 4845TIP3    H135950   3.014   5.028   0.442 -0.2629  0.2174 -0.1639
 4845TIP3    H235951   3.035   5.159   0.515  0.5502  1.1423 -1.9904
 4846TIP3   OH235952   0.427   0.102  16.089  0.4988  0.1972  0.3969
 4846TIP3    H135953   0.481   0.032  16.124  1.4189  1.7715  2.3970
 4846TIP3    H235954   0.342   0.090  16.131  0.6950  0.3213  0.8409
 4847TIP3   OH235955   5.272   5.485  13.234 -0.7824  0.1549 -0.1487
 4847TIP3    H135956   5.214   5.561  13.238 -2.4287 -0.8921 -2.1116
 4847TIP3    H235957   5.359   5.522  13.219 -1.0199  1.7363  2.0408
 4848TIP3   OH235958   0.561   0.111  12.424 -0.2890 -0.3106 -0.8069
 4848TIP3    H135959   0.638   0.059  12.400 -0.4473 -1.6482  1.3035
 4848TIP3    H235960   0.525   0.141  12.341  2.3977  0.2308 -1.8790
 4849TIP3   OH235961   3.738   0.719   4.074 -0.1669 -0.2982  0.0408
 4849TIP3    H135962   3.691   0.783   4.021 -0.2268 -3.1677 -3.8624
 4849TIP3    H235963   3.678   0.645   4.082  0.3272 -0.5053  3.3415
 4850TIP3   OH235964   4.565   3.217   0.390 -0.1719  0.0097 -0.6039
 4850TIP3    H135965   4.528   3.172   0.467 -2.4747  0.4540 -1.3800
 4850TIP3    H235966   4.531   3.167   0.316 -0.3807  1.3191 -1.4013
 4851TIP3   OH235967   2.931   5.938   1.694 -0.3243 -0.3877  0.4045
 4851TIP3    H135968   2.849   5.986   1.702 -0.8801 -1.1456 -0.4877
 4851TIP3    H235969   2.911   5.852   1.733  0.1416 -0.4691  0.4612
 4852TIP3   OH235970   5.719   0.633   4.221 -0.3332 -0.7336  0.6019
 4852TIP3    H135971   5.812   0.649   4.209 -0.2664 -1.6854 -0.3274
 4852TIP3    H235972   5.705   0.545   4.186 -1.4315 -0.9419  1.4925
 4853TIP3   OH235973   1.310   0.665  14.502  0.0122  0.5006 -0.2591
 4853TIP3    H135974   1.235   0.701  14.454 -1.1794  0.7101  1.6331
 4853TIP3    H235975   1.386   0.704  14.460 -1.0576  2.1303 -0.8096
 4854TIP3   OH235976   4.131   1.182   4.103 -0.2051 -0.1805  0.1928
 4854TIP3    H135977   4.147   1.255   4.042  2.5359 -0.5558  0.3535
 4854TIP3    H235978   4.171   1.211   4.185 -2.9610 -0.1094  1.6260
 4855TIP3   OH235979   1.382   6.280   1.141  0.2404 -0.0211 -0.6291
 4855TIP3    H135980   1.378   6.292   1.047 -0.0505  3.4191 -0.2947
 4855TIP3    H235981   1.302   6.320   1.174  1.4737  1.0716  1.2175
 4856TIP3   OH235982   5.968   5.945  13.873 -0.2732 -0.2647 -0.2286
 4856TIP3    H135983   6.041   5.941  13.811  0.0062  0.8391  0.0035
 4856TIP3    H235984   5.898   5.895  13.831 -0.8806  2.2813 -2.5305
 4857TIP3   OH235985   6.077   2.829  16.934  0.7450 -0.1680 -0.0830
 4857TIP3    H135986   6.004   2.791  16.983  0.6257  0.3575  0.1471
 4857TIP3    H235987   6.100   2.908  16.982  1.3706 -0.2485 -0.2383
 4858TIP3   OH235988   2.016   3.417  12.560  0.2745 -0.4874  0.0016
 4858TIP3    H135989   1.953   3.455  12.621 -0.6260 -0.9059 -0.6443
 4858TIP3    H235990   1.972   3.421  12.475  2.4358  2.3035 -1.1122
 4859TIP3   OH235991   1.017   4.653   0.912  0.3154 -0.2184  0.5706
 4859TIP3    H135992   1.085   4.617   0.969 -1.1402 -0.9546  1.8834
 4859TIP3    H235993   1.001   4.584   0.848  0.5038 -0.2009  0.5024
 4860TIP3   OH235994   2.246   0.123   5.861 -0.0340 -0.5088 -0.2108
 4860TIP3    H135995   2.154   0.136   5.838 -0.3840  1.2957  1.8279
 4860TIP3    H235996   2.295   0.163   5.789 -0.8347 -1.0056 -1.0561
 4861TIP3   OH235997   3.212   3.379   0.317 -0.0303 -0.1144  0.3469
 4861TIP3    H135998   3.147   3.313   0.342  0.1029  0.6389  2.9647
 4861TIP3    H235999   3.296   3.334   0.325  0.0870  0.3786  2.4947
 4862TIP3   OH236000   4.433   1.887   5.293 -0.3396  0.0103 -0.1319
 4862TIP3    H136001   4.395   1.818   5.239  0.9834 -0.9101  0.0671
 4862TIP3    H236002   4.398   1.968   5.257 -1.9668 -0.7555 -0.3412
 4863TIP3   OH236003   0.982   6.592  12.208  0.4051  0.8255 -0.3715
 4863TIP3    H136004   1.055   6.643  12.242  1.2786 -1.7422  1.8809
 4863TIP3    H236005   1.019   6.542  12.135  0.0775  1.7606 -1.2019
 4864TIP3   OH236006   3.311   6.074   5.829 -0.0104 -0.0559 -0.2462
 4864TIP3    H136007   3.322   6.097   5.736  0.9216 -0.9606 -0.3794
 4864TIP3    H236008   3.384   6.116   5.873 -1.3702  1.7755  0.3745
 4865TIP3   OH236009   6.091   1.075  14.006  0.3384  0.0605  0.6733
 4865TIP3    H136010   6.090   0.999  13.949  1.0271  1.1104 -0.8068
 4865TIP3    H236011   6.075   1.040  14.094 -1.8055 -1.4848 -0.2531
 4866TIP3   OH236012   2.423   5.806  13.331  0.0297 -0.4708  0.1009
 4866TIP3    H136013   2.427   5.723  13.285  1.3176  0.0711 -0.8242
 4866TIP3    H236014   2.495   5.801  13.395  2.3855  1.1697 -2.2305
 4867TIP3   OH236015   3.550   5.709  16.439 -0.4176  1.1845 -0.7154
 4867TIP3    H136016   3.516   5.713  16.529 -0.0636  0.6454 -0.5507
 4867TIP3    H236017   3.480   5.667  16.390  0.0603 -0.1097 -0.3364
 4868TIP3   OH236018   5.868   4.291  16.398  0.6777 -0.2201 -0.0886
 4868TIP3    H136019   5.789   4.307  16.450 -0.3988 -1.0731 -1.3897
 4868TIP3    H236020   5.919   4.371  16.408 -0.1265  0.1792  1.1590
 4869TIP3   OH236021   1.077   4.881  15.099  0.1834 -0.4453  0.0725
 4869TIP3    H136022   1.170   4.869  15.078  0.1108 -0.3540 -0.3115
 4869TIP3    H236023   1.037   4.905  15.015  0.2165  1.9899  0.6839
 4870TIP3   OH236024   5.270   0.834   2.629  0.3870  0.4262  0.0295
 4870TIP3    H136025   5.186   0.803   2.595 -0.3027  2.2748 -0.0844
 4870TIP3    H236026   5.264   0.820   2.724  0.3922 -0.4059 -0.0854
 4871TIP3   OH236027   2.739   2.276   3.710 -0.5149 -0.2509  0.0488
 4871TIP3    H136028   2.775   2.199   3.666  2.1186  0.5466  0.6197
 4871TIP3    H236029   2.793   2.349   3.679 -1.0656  0.9180  1.6894
 4872TIP3   OH236030   5.021   2.270   2.400  0.0794  0.0895 -0.7419
 4872TIP3    H136031   4.927   2.278   2.384  0.0525  0.8392 -0.2868
 4872TIP3    H236032   5.058   2.243   2.316 -0.6246 -0.9355 -0.7359
 4873TIP3   OH236033   3.266   1.196   4.550 -0.3111  0.3524 -0.5678
 4873TIP3    H136034   3.360   1.212   4.539  0.6539 -2.1559  2.5599
 4873TIP3    H236035   3.241   1.144   4.473  0.8893  0.8280 -1.3106
 4874TIP3   OH236036   4.465   4.805   5.210  0.8885 -0.5857  0.1517
 4874TIP3    H136037   4.475   4.815   5.305  0.3281  0.6022  0.1020
 4874TIP3    H236038   4.382   4.849   5.191 -0.9842 -3.9722 -0.3695
 4875TIP3   OH236039   5.454   4.997  17.414 -0.1167 -0.0777 -0.5270
 4875TIP3    H136040   5.414   5.083  17.421  0.3969  0.0086  2.2662
 4875TIP3    H236041   5.546   5.011  17.435  0.6389 -0.9193 -2.8857
 4876TIP3   OH236042   2.425   1.899   2.441 -0.1023  0.4603  0.4872
 4876TIP3    H136043   2.409   1.906   2.535  1.3720  1.2288  0.7114
 4876TIP3    H236044   2.443   1.988   2.413  1.8439 -0.0328 -0.0276
 4877TIP3   OH236045   5.359   3.027   1.291  1.3788  0.7510 -0.4791
 4877TIP3    H136046   5.411   3.005   1.213  0.4634  0.9516 -1.1555
 4877TIP3    H236047   5.339   2.942   1.330  2.6534  0.6863  0.1048
 4878TIP3   OH236048   1.200   1.583   3.505  0.1522  0.7830  0.1606
 4878TIP3    H136049   1.152   1.621   3.431  0.0736 -1.0634 -0.7943
 4878TIP3    H236050   1.288   1.569   3.471 -0.1989 -1.2144 -0.0581
 4879TIP3   OH236051   3.437   0.712  11.783 -0.6115  0.5573  0.3317
 4879TIP3    H136052   3.364   0.689  11.726  0.8091  1.6385 -2.0554
 4879TIP3    H236053   3.509   0.655  11.755  0.2553  1.4286  0.7115
 4880TIP3   OH236054   2.725   1.554   0.966  0.2444 -0.7885 -0.1672
 4880TIP3    H136055   2.728   1.637   1.014 -2.9299 -0.9200  0.5156
 4880TIP3    H236056   2.738   1.578   0.875  0.8723  0.2384  0.1768
 4881TIP3   OH236057   4.095   1.963   0.173 -0.2325  0.7881  0.3548
 4881TIP3    H136058   4.011   1.917   0.170 -0.1855  0.7264 -0.0837
 4881TIP3    H236059   4.124   1.955   0.264 -0.6276  0.6751  0.4697
 4882TIP3   OH236060   4.791   5.302  14.063 -0.7563  0.0018  0.0720
 4882TIP3    H136061   4.795   5.394  14.089 -0.2894 -0.6389  2.5077
 4882TIP3    H236062   4.699   5.277  14.076 -0.5941 -0.2317  0.7838
 4883TIP3   OH236063   4.288   1.878  14.556 -0.1273 -0.1559 -0.1890
 4883TIP3    H136064   4.311   1.863  14.465  0.6254 -1.7713  0.2359
 4883TIP3    H236065   4.268   1.972  14.560 -0.5957 -0.1371 -2.0822
 4884TIP3   OH236066   1.829   2.030   2.750  0.3006 -0.2626 -0.1992
 4884TIP3    H136067   1.758   1.971   2.777 -2.6915  3.0261 -0.1619
 4884TIP3    H236068   1.887   2.034   2.826 -0.3601 -1.7912  0.4191
 4885TIP3   OH236069   2.283   4.749   1.407 -0.2480 -1.1206 -0.3056
 4885TIP3    H136070   2.356   4.697   1.376  0.2891  0.3087 -1.5602
 4885TIP3    H236071   2.311   4.840   1.396 -1.7682 -0.5342  0.2699
 4886TIP3   OH236072   3.295   1.245   5.193 -0.6097  0.1774 -0.1600
 4886TIP3    H136073   3.375   1.286   5.225  0.8389 -1.8575 -0.9861
 4886TIP3    H236074   3.322   1.198   5.113 -2.6893 -0.3038 -0.6409
 4887TIP3   OH236075   2.009   4.784   0.391 -0.5368  0.4049 -0.0217
 4887TIP3    H136076   1.956   4.730   0.332  0.9276 -1.0904 -0.0442
 4887TIP3    H236077   1.991   4.874   0.363 -0.6591 -0.2034 -2.1020
 4888TIP3   OH236078   4.677   1.978  12.047 -0.5783  0.0600 -0.1044
 4888TIP3    H136079   4.662   2.026  11.965  2.3335 -0.3908 -1.0292
 4888TIP3    H236080   4.599   1.995  12.100 -1.7660  1.8352 -2.2591
 4889TIP3   OH236081   2.321   0.228   6.157  0.2129  0.0560  0.3414
 4889TIP3    H136082   2.319   0.193   6.068  1.6460  2.2855 -0.6843
 4889TIP3    H236083   2.414   0.235   6.178 -0.1090 -0.8113  2.2114
 4890TIP3   OH236084   3.214   1.737  15.692 -0.5169  0.3035  0.1071
 4890TIP3    H136085   3.260   1.772  15.615 -1.2373  0.8456 -0.0902
 4890TIP3    H236086   3.267   1.765  15.766 -1.0191  1.7906 -0.0499
 4891TIP3   OH236087   1.521   1.897  14.402  0.4746 -0.1759  0.3415
 4891TIP3    H136088   1.564   1.944  14.331  1.4777  0.4082  1.2957
 4891TIP3    H236089   1.427   1.911  14.387  0.7176  1.2206 -0.0293
 4892TIP3   OH236090   1.082   4.982   1.196  0.9081 -0.4481  0.3948
 4892TIP3    H136091   1.104   4.941   1.279  0.2465  1.9180  1.8027
 4892TIP3    H236092   1.104   5.074   1.207 -0.4048  0.1752 -1.6002
 4893TIP3   OH236093   6.206   3.451  11.805 -0.2331 -0.2381  0.1196
 4893TIP3    H136094   6.171   3.363  11.822 -1.1854  0.4235  1.8535
 4893TIP3    H236095   6.267   3.439  11.732 -1.5834 -2.0444 -0.8014
 4894TIP3   OH236096   0.232   4.112  14.087  0.3914  0.3007  0.0664
 4894TIP3    H136097   0.181   4.185  14.124 -0.7743 -0.1885 -0.5477
 4894TIP3    H236098   0.168   4.059  14.040  1.6884  0.4314 -1.9363
 4895TIP3   OH236099   1.576   4.279  13.658 -0.3051  0.2773 -0.4626
 4895TIP3    H136100   1.587   4.354  13.599 -0.2538  0.5772 -0.0762
 4895TIP3    H236101   1.657   4.278  13.710  0.2962 -0.8563 -1.3720
 4896TIP3   OH236102   1.452   5.598   6.593 -0.1735 -0.2358  0.2936
 4896TIP3    H136103   1.367   5.570   6.561 -0.0681  0.7091 -0.8870
 4896TIP3    H236104   1.449   5.694   6.590  0.3338 -0.1387  1.8814
 4897TIP3   OH236105   2.835   3.869   2.090 -0.5652  0.8506  0.3269
 4897TIP3    H136106   2.894   3.902   2.022 -0.6756 -1.0365 -0.7513
 4897TIP3    H236107   2.893   3.842   2.161 -0.1988  0.0617 -0.2577
 4898TIP3   OH236108   5.383   5.200  12.597  0.2796 -0.4426 -0.1039
 4898TIP3    H136109   5.477   5.192  12.615  0.0114 -0.9055  1.2107
 4898TIP3    H236110   5.342   5.198  12.684 -1.0729 -2.0565 -0.7216
 4899TIP3   OH236111   4.371   4.800  14.997  0.1201  0.1352  0.0510
 4899TIP3    H136112   4.337   4.887  15.022  2.7790  1.4342 -0.5105
 4899TIP3    H236113   4.455   4.794  15.043  1.0810 -1.1290 -1.7833
 4900TIP3   OH236114   6.584   2.305   1.437  0.1803 -0.0572 -0.2227
 4900TIP3    H136115   6.532   2.249   1.493  0.4547  1.2639  1.4435
 4900TIP3    H236116   6.654   2.338   1.494  1.5421 -0.0415 -1.8091
 4901TIP3   OH236117   0.090   0.665   2.150  0.0607  0.2852 -0.0657
 4901TIP3    H136118   0.038   0.697   2.224 -0.5530  0.2413 -0.4633
 4901TIP3    H236119   0.161   0.615   2.189 -0.2687  0.2531  0.4934
 4902TIP3   OH236120   5.810   0.492  15.594 -0.0644  0.1657  0.2901
 4902TIP3    H136121   5.840   0.433  15.525  0.0444 -0.2192  0.6660
 4902TIP3    H236122   5.741   0.444  15.639 -0.6481  0.7001 -0.0053
 4903TIP3   OH236123   2.058   0.824  13.239 -0.4080 -0.0979 -0.0264
 4903TIP3    H136124   2.139   0.804  13.192 -1.1236 -0.3311 -1.2145
 4903TIP3    H236125   2.074   0.909  13.279  0.7509 -0.5672  0.5607
 4904TIP3   OH236126   1.725   4.839   1.272  0.2789  0.1217 -0.4424
 4904TIP3    H136127   1.664   4.849   1.344 -1.3332  1.0034 -1.8556
 4904TIP3    H236128   1.803   4.888   1.299  0.7286 -1.6352  1.6984
 4905TIP3   OH236129   1.090   3.497   1.123  0.3787 -0.5184 -0.0942
 4905TIP3    H136130   1.000   3.496   1.090 -0.0637  0.9388  0.9653
 4905TIP3    H236131   1.142   3.464   1.050 -0.8213  0.2296 -1.3428
 4906TIP3   OH236132   3.475   1.756   0.103  0.3301 -0.6015 -0.5377
 4906TIP3    H136133   3.405   1.740   0.039  0.2183 -0.0384 -0.5592
 4906TIP3    H236134   3.429   1.774   0.184  0.4176  0.7490 -0.7734
 4907TIP3   OH236135   6.146   3.494   3.817  0.1212 -0.2090 -0.2012
 4907TIP3    H136136   6.204   3.436   3.767 -0.5701 -0.7459 -0.3904
 4907TIP3    H236137   6.095   3.540   3.751  1.0085  1.0079 -0.0754
 4908TIP3   OH236138   0.277   3.491  13.099  0.1359 -0.3594 -0.0181
 4908TIP3    H136139   0.348   3.553  13.115 -1.0452  1.0082  0.0577
 4908TIP3    H236140   0.238   3.475  13.185 -1.5231  1.2520 -0.4103
 4909TIP3   OH236141   3.001   1.098  13.970  0.4926  0.0989  0.5812
 4909TIP3    H136142   3.000   1.112  13.876  2.1276  1.8304  0.7679
 4909TIP3    H236143   2.926   1.040  13.987  0.2060 -0.2846 -1.7540
 4910TIP3   OH236144   2.553   4.530  14.417  0.0636  0.8326  0.0718
 4910TIP3    H136145   2.641   4.540  14.453  0.0691 -0.3878  0.4493
 4910TIP3    H236146   2.567   4.506  14.326  0.1443  0.3599  0.2027
 4911TIP3   OH236147   6.440   3.803   6.036  0.2811  0.5095  0.4848
 4911TIP3    H136148   6.457   3.791   5.943 -1.5569 -0.2227  0.1913
 4911TIP3    H236149   6.346   3.787   6.045 -0.1993  3.4969  1.9841
 4912TIP3   OH236150   6.439   4.997   1.101 -0.2659  0.2463 -0.1519
 4912TIP3    H136151   6.483   5.030   1.023  0.2391  2.5339  1.0043
 4912TIP3    H236152   6.357   5.048   1.106  0.3379  1.1376  1.4705
 4913TIP3   OH236153   0.070   2.108  16.415 -0.2523  0.2017 -0.3921
 4913TIP3    H136154   0.163   2.110  16.395  0.3934  0.8954  2.3186
 4913TIP3    H236155   0.044   2.017  16.401  0.2599  0.3806 -3.1410
 4914TIP3   OH236156   2.351   4.889  11.672 -0.8112  0.1980  0.0247
 4914TIP3    H136157   2.343   4.979  11.640  0.0710 -0.1791 -1.3629
 4914TIP3    H236158   2.413   4.848  11.612  1.6312 -0.3799  2.6779
 4915TIP3   OH236159   3.265   3.305   2.344 -0.0651  0.2228  0.2171
 4915TIP3    H136160   3.202   3.374   2.322  0.2313  1.7194  3.4505
 4915TIP3    H236161   3.214   3.239   2.391  0.3614  0.3728  0.9103
 4916TIP3   OH236162   1.551   3.690   4.459 -0.0793  0.6249  0.7333
 4916TIP3    H136163   1.522   3.599   4.465  1.9017 -0.1689 -0.4899
 4916TIP3    H236164   1.506   3.724   4.382 -0.2599  0.4481  0.7589
 4917TIP3   OH236165   2.514   4.352   3.545 -0.1120 -0.4818 -0.3512
 4917TIP3    H136166   2.483   4.442   3.542 -0.1241 -0.4198  1.0171
 4917TIP3    H236167   2.496   4.317   3.457 -1.4302  0.4040 -0.4631
 4918TIP3   OH236168   6.060   4.469  14.436 -0.2854  0.0552 -0.1646
 4918TIP3    H136169   5.994   4.506  14.495  0.1471  0.3729  0.1380
 4918TIP3    H236170   6.064   4.531  14.363 -0.2410  0.0958 -0.1280
 4919TIP3   OH236171   0.765   2.829  11.902  0.2740  0.0843 -0.0408
 4919TIP3    H136172   0.693   2.820  11.964  1.4374  0.9313  1.5124
 4919TIP3    H236173   0.792   2.739  11.882 -0.9714 -0.2268 -0.4041
 4920TIP3   OH236174   6.680   3.908  15.828 -0.4582  0.6428  0.1202
 4920TIP3    H136175   6.646   3.991  15.863 -0.0687  0.5986  0.6188
 4920TIP3    H236176   6.632   3.840  15.876  0.9504  0.5674  1.5237
 4921TIP3   OH236177   2.989   4.842  16.419  0.1037  0.0590 -0.2324
 4921TIP3    H136178   3.061   4.823  16.479  1.7756  2.4276 -1.3426
 4921TIP3    H236179   3.024   4.822  16.333 -1.2797 -0.5610 -0.6824
 4922TIP3   OH236180   0.425   0.907  12.421  0.3555 -0.4364  0.3156
 4922TIP3    H136181   0.369   0.831  12.411  1.2641 -1.0458 -0.2455
 4922TIP3    H236182   0.503   0.874  12.465  0.6227  0.2332  0.3599
 4923TIP3   OH236183   5.247   5.688   3.857 -0.4634 -0.1163  0.1786
 4923TIP3    H136184   5.182   5.718   3.920 -1.8161 -0.9395 -0.7727
 4923TIP3    H236185   5.294   5.618   3.903 -0.5635  0.1632  0.7126
 4924TIP3   OH236186   5.334   0.516  12.433  0.0985 -0.5620  0.8383
 4924TIP3    H136187   5.327   0.446  12.367 -1.7690 -0.0777  0.4391
 4924TIP3    H236188   5.425   0.514  12.462  0.3353 -2.4718  0.0834
 4925TIP3   OH236189   3.956   0.744  12.161 -0.3204  0.3111  0.2938
 4925TIP3    H136190   3.959   0.749  12.065  1.3154  0.9152  0.3354
 4925TIP3    H236191   3.900   0.817  12.187  0.6195  1.2268 -0.1632
 4926TIP3   OH236192   6.642   4.595  12.161  0.3738  0.1579 -0.7220
 4926TIP3    H136193   6.655   4.523  12.099 -0.5390  0.2394 -1.0120
 4926TIP3    H236194   6.690   4.567  12.239  1.7316  0.1564 -1.5143
 4927TIP3   OH236195   3.321   0.614   1.443 -0.0169  0.5303  0.0098
 4927TIP3    H136196   3.335   0.529   1.402 -1.5034  0.3817 -0.2668
 4927TIP3    H236197   3.332   0.677   1.372  0.4122  0.5250  0.0673
 4928TIP3   OH236198   3.075   4.576  17.144  0.1790 -0.0728  0.7534
 4928TIP3    H136199   3.002   4.539  17.092 -0.8044  1.7541  0.7516
 4928TIP3    H236200   3.148   4.516  17.128 -0.7542 -0.8657 -0.8821
 4929TIP3   OH236201   2.227   0.316   4.310  0.2443 -0.1468 -0.0270
 4929TIP3    H136202   2.178   0.243   4.348 -0.8717 -0.2089 -1.5104
 4929TIP3    H236203   2.161   0.383   4.293  1.2108  1.1006  1.0131
 4930TIP3   OH236204   3.347   1.689  14.112 -1.0283  0.6245  0.0956
 4930TIP3    H136205   3.396   1.736  14.044 -1.1458 -0.2410 -0.5957
 4930TIP3    H236206   3.258   1.724  14.105 -1.3985 -0.5009 -1.2076
 4931TIP3   OH236207   2.199   5.296  11.873  0.1068  0.3077  0.0652
 4931TIP3    H136208   2.292   5.314  11.861  0.6830 -1.4670  1.3757
 4931TIP3    H236209   2.171   5.357  11.942  0.0955  1.3242 -0.8196
 4932TIP3   OH236210   4.091   5.571   5.202  0.1537 -0.4899 -0.4973
 4932TIP3    H136211   3.998   5.554   5.213  0.1317 -0.7993 -1.1161
 4932TIP3    H236212   4.106   5.563   5.108  0.5754  0.7699 -0.5597
 4933TIP3   OH236213   3.782   3.006  11.847 -0.1713 -0.1023  0.4307
 4933TIP3    H136214   3.735   3.079  11.887 -0.6436  0.7245 -1.5343
 4933TIP3    H236215   3.716   2.960  11.796  0.9148  0.5863 -1.6997
 4934TIP3   OH236216   3.569   4.305   1.201 -0.2911  0.1838 -0.3264
 4934TIP3    H136217   3.611   4.389   1.217 -0.0322 -0.1651  0.9971
 4934TIP3    H236218   3.509   4.321   1.128 -1.2930  1.8891  0.7893
 4935TIP3   OH236219   1.707   3.624  12.061  0.0003 -0.1518  0.3529
 4935TIP3    H136220   1.743   3.710  12.085 -0.4328 -0.3834  1.8907
 4935TIP3    H236221   1.687   3.633  11.968 -2.1710  2.2239  0.9245
 4936TIP3   OH236222   3.874   2.015   2.241  0.6633 -0.8087 -0.2770
 4936TIP3    H136223   3.863   2.059   2.156  0.4026  0.3378  0.3251
 4936TIP3    H236224   3.786   2.014   2.279  0.9981 -0.0451  0.5660
 4937TIP3   OH236225   3.010   0.998   6.460  0.1460 -0.2302 -0.2666
 4937TIP3    H136226   2.938   1.016   6.401  0.7773  0.9943 -0.6999
 4937TIP3    H236227   3.037   0.908   6.439 -0.3419 -0.1973 -1.0592
 4938TIP3   OH236228   4.897   0.882  14.084 -0.3415  0.0650  0.2969
 4938TIP3    H136229   4.869   0.791  14.081  1.0297 -0.3734  0.3702
 4938TIP3    H236230   4.846   0.920  14.156  1.6148 -1.5692  2.7359
 4939TIP3   OH236231   0.380   2.114  16.665  0.1837  0.5154 -0.2285
 4939TIP3    H136232   0.306   2.059  16.641 -0.3076  1.5697 -1.2438
 4939TIP3    H236233   0.454   2.079  16.615  0.7239 -1.2741  1.6635
 4940TIP3   OH236234   2.525   6.365  17.349  0.2713  0.0473 -0.5579
 4940TIP3    H136235   2.484   6.281  17.369  1.3179 -0.3947 -0.2530
 4940TIP3    H236236   2.617   6.353  17.369  0.7071  0.7927 -2.0129
 4941TIP3   OH236237   3.252   3.045   1.780  0.7306 -0.1101 -0.5550
 4941TIP3    H136238   3.218   3.095   1.706 -0.8868 -1.7974 -0.9989
 4941TIP3    H236239   3.299   2.972   1.741  1.7311  0.1531  0.1004
 4942TIP3   OH236240   1.859   6.448  14.399 -0.4357  0.7140  0.3785
 4942TIP3    H136241   1.857   6.493  14.483  0.7277 -0.9982  1.4010
 4942TIP3    H236242   1.952   6.445  14.376 -0.8133  2.6551 -1.9058
 4943TIP3   OH236243   0.232   3.318   2.936  0.1790  0.1169 -0.0743
 4943TIP3    H136244   0.174   3.379   2.982  0.3479 -0.6646  1.2345
 4943TIP3    H236245   0.216   3.335   2.843  0.5799  2.5076  0.2186
 4944TIP3   OH236246   5.526   2.168   5.602 -0.5604 -0.3341 -0.2630
 4944TIP3    H136247   5.498   2.143   5.690 -0.0380 -0.8311 -0.2297
 4944TIP3    H236248   5.568   2.254   5.614 -2.4603  0.6500 -0.3963
 4945TIP3   OH236249   5.294   2.390   4.557 -0.0101 -0.6063  0.3251
 4945TIP3    H136250   5.328   2.369   4.470  0.3459 -0.3047  0.3893
 4945TIP3    H236251   5.239   2.467   4.543 -0.3733 -0.8742  0.2810
 4946TIP3   OH236252   0.644   6.406  16.358 -0.4372  0.1572  0.5263
 4946TIP3    H136253   0.735   6.407  16.330 -0.6103 -0.3933 -0.0907
 4946TIP3    H236254   0.636   6.328  16.412 -0.6931 -0.1740  0.0213
 4947TIP3   OH236255   4.616   1.565  15.587 -0.1447  0.5273  0.2117
 4947TIP3    H136256   4.706   1.575  15.619  0.6455  0.6178 -1.8785
 4947TIP3    H236257   4.619   1.597  15.497 -2.5579  1.5918  0.4418
 4948TIP3   OH236258   3.415   0.450  13.777  0.1240  0.4920 -0.1082
 4948TIP3    H136259   3.356   0.490  13.840 -0.4014 -2.2159  1.2555
 4948TIP3    H236260   3.481   0.406  13.830  0.3879 -0.8432 -1.4722
 4949TIP3   OH236261   2.648   1.284  13.538  1.0534 -0.3188 -0.0740
 4949TIP3    H136262   2.660   1.295  13.444  1.0594 -0.0964 -0.0483
 4949TIP3    H236263   2.611   1.368  13.567  0.7813 -0.4877  0.0760
 4950TIP3   OH236264   0.878   2.210  16.428  0.1607 -0.0816 -0.4231
 4950TIP3    H136265   0.876   2.288  16.373  0.4768 -0.2690 -0.6979
 4950TIP3    H236266   0.935   2.149  16.383 -0.0889 -0.4796 -0.2113
 4951TIP3   OH236267   2.699   4.673   6.043  0.4560 -0.4732 -0.0744
 4951TIP3    H136268   2.741   4.642   5.962  0.6585 -0.1134 -0.1082
 4951TIP3    H236269   2.614   4.706   6.014  0.0062 -1.4908  0.0370
 4952TIP3   OH236270   6.583   5.957   0.647  0.0410 -0.3735  0.0120
 4952TIP3    H136271   6.667   5.951   0.693  1.1363  0.2216 -1.7746
 4952TIP3    H236272   6.571   5.871   0.608 -0.4495 -0.6165  0.6953
 4953TIP3   OH236273   0.518   2.665   0.065 -0.4067 -0.5496 -0.0001
 4953TIP3    H136274   0.574   2.690   0.138  0.0531  0.5907 -0.7177
 4953TIP3    H236275   0.564   2.696  -0.013 -0.8085 -1.8858 -0.8120
 4954TIP3   OH236276   2.333   2.212   2.878  0.3663 -0.3597 -0.3645
 4954TIP3    H136277   2.276   2.137   2.896 -1.2374  0.5234 -1.4296
 4954TIP3    H236278   2.365   2.196   2.789  2.0732 -0.9852  0.3293
 4955TIP3   OH236279   3.611   1.828   5.464 -0.1382  0.2293 -0.4702
 4955TIP3    H136280   3.682   1.788   5.514 -2.3081 -1.7205  1.3055
 4955TIP3    H236281   3.652   1.902   5.419  2.4214  0.9857  2.7172
 4956TIP3   OH236282   6.437   0.319  16.892 -0.5293 -0.0969 -0.0688
 4956TIP3    H136283   6.476   0.353  16.811 -1.6330 -0.7996 -0.9340
 4956TIP3    H236284   6.485   0.238  16.909 -0.1624  0.1519  0.1023
 4957TIP3   OH236285   2.250   3.275  13.685  0.0380  0.0092  0.4535
 4957TIP3    H136286   2.327   3.243  13.731  0.2240  0.0005  0.1341
 4957TIP3    H236287   2.274   3.274  13.593 -0.6181 -0.7914  0.2662
 4958TIP3   OH236288   3.321   1.097  16.028  0.4513 -0.3375  0.1414
 4958TIP3    H136289   3.366   1.169  16.070 -2.2762  0.4216  2.0672
 4958TIP3    H236290   3.293   1.132  15.943 -1.1074  1.1152  1.1709
 4959TIP3   OH236291   3.796   5.837  12.951  0.3508  0.2281  0.1879
 4959TIP3    H136292   3.762   5.911  12.901  1.5500  0.2161 -0.6887
 4959TIP3    H236293   3.859   5.877  13.011  0.3617  0.0139  0.3162
 4960TIP3   OH236294   5.355   1.558   4.956  0.1445 -0.0889 -0.1111
 4960TIP3    H136295   5.450   1.557   4.965  0.2379 -3.9753 -0.0618
 4960TIP3    H236296   5.322   1.541   5.044 -0.4028 -2.0669 -0.6540
 4961TIP3   OH236297   6.070   2.848   4.944 -0.2171 -0.4752  0.2682
 4961TIP3    H136298   6.158   2.852   4.908 -0.0949 -2.5771  0.2273
 4961TIP3    H236299   6.081   2.806   5.030 -1.2117 -1.2459  0.0363
 4962TIP3   OH236300   1.481   2.210   2.901  0.4606 -0.7229  0.5355
 4962TIP3    H136301   1.575   2.219   2.916  0.4691 -0.6980  0.4684
 4962TIP3    H236302   1.442   2.219   2.988  0.4857 -0.2248  0.4988
 4963TIP3   OH236303   2.537   6.372   2.006  0.4150  0.3330 -0.2185
 4963TIP3    H136304   2.565   6.304   2.067 -1.3995 -0.1890  0.0987
 4963TIP3    H236305   2.542   6.453   2.057 -1.2978 -0.1256  0.7531
 4964TIP3   OH236306   5.161   4.999   0.293  0.2711 -0.4589 -0.4986
 4964TIP3    H136307   5.100   4.933   0.260 -0.1760  0.4795 -1.5988
 4964TIP3    H236308   5.126   5.024   0.378 -0.3310 -0.6478 -0.6864
 4965TIP3   OH236309   4.606   5.906  15.612  0.5151  0.4891  0.0219
 4965TIP3    H136310   4.568   5.993  15.600 -1.8432 -0.5598 -0.5778
 4965TIP3    H236311   4.631   5.903  15.704 -1.6144  0.9923  0.6665
 4966TIP3   OH236312   4.826   3.079  11.851  0.0549  1.1594  0.2143
 4966TIP3    H136313   4.766   3.007  11.873 -0.3630  0.3473 -3.0196
 4966TIP3    H236314   4.807   3.147  11.916  1.6996 -2.0790  4.6392
 4967TIP3   OH236315   4.901   1.712   4.146 -0.2753  0.2269 -0.2876
 4967TIP3    H136316   4.926   1.751   4.229 -1.6617  2.2454 -0.7501
 4967TIP3    H236317   4.806   1.723   4.141 -0.3592 -0.7882 -1.6807
 4968TIP3   OH236318   4.740   2.308   3.845  0.1558 -0.5512  0.0630
 4968TIP3    H136319   4.678   2.349   3.784  1.4264 -0.0723 -0.9814
 4968TIP3    H236320   4.715   2.341   3.931  0.0665  1.1037 -0.5509
 4969TIP3   OH236321   4.172   3.177   4.710 -0.0610  0.5851 -0.0346
 4969TIP3    H136322   4.266   3.165   4.721  0.0191 -1.0221 -1.9642
 4969TIP3    H236323   4.133   3.138   4.789  0.8143 -0.3593 -0.0575
 4970TIP3   OH236324   4.759   6.208  12.747  0.3825  0.2235 -0.2088
 4970TIP3    H136325   4.804   6.275  12.797 -1.3075  1.0127  0.3295
 4970TIP3    H236326   4.713   6.255  12.678 -2.5865  0.0352  1.4293
 4971TIP3   OH236327   0.241   3.837  13.163  0.0392 -0.3946 -0.5727
 4971TIP3    H136328   0.307   3.781  13.122  0.2999 -0.7708  0.3219
 4971TIP3    H236329   0.160   3.784  13.161 -0.2198  0.0291 -1.5834
 4972TIP3   OH236330   2.578   0.589  13.110 -0.9301 -0.4103  0.5434
 4972TIP3    H136331   2.585   0.630  13.196  0.7133  0.1138  0.1998
 4972TIP3    H236332   2.630   0.510  13.116 -1.0963 -0.5566  0.1273
 4973TIP3   OH236333   2.323   2.165   2.581 -0.0447  0.4637  0.0440
 4973TIP3    H136334   2.286   2.077   2.568  3.8643 -1.2039 -1.2568
 4973TIP3    H236335   2.338   2.197   2.492 -1.2329  2.4791  0.5120
 4974TIP3   OH236336   3.686   1.160   5.156  0.2368  0.1512 -0.5094
 4974TIP3    H136337   3.651   1.173   5.068 -2.0125 -2.7404 -0.2114
 4974TIP3    H236338   3.638   1.223   5.210  0.4507  0.8234 -1.0852
 4975TIP3   OH236339   4.945   2.613  10.661  0.7715 -0.3943 -0.1676
 4975TIP3    H136340   4.860   2.600  10.619  1.0774 -2.7496 -0.2007
 4975TIP3    H236341   4.989   2.679  10.607 -0.7531  0.3450 -0.5450
 4976TIP3   OH236342   5.513   0.119  13.855  0.4433  0.1417 -0.3923
 4976TIP3    H136343   5.572   0.044  13.859  0.5624  0.2745  0.3953
 4976TIP3    H236344   5.426   0.082  13.873 -0.0214 -0.3478 -3.1942
 4977TIP3   OH236345   3.921   1.588  13.417  0.6179  0.0178  0.1332
 4977TIP3    H136346   3.977   1.599  13.340  1.0482 -0.1629  0.4140
 4977TIP3    H236347   3.847   1.537  13.387 -0.1163  1.4369 -0.5862
 4978TIP3   OH236348   3.202   3.056   2.871  0.5659  0.6009 -0.4641
 4978TIP3    H136349   3.199   3.048   2.966  1.4373 -0.9034 -0.5323
 4978TIP3    H236350   3.122   3.104   2.848 -0.2358 -0.0184  0.9158
 4979TIP3   OH236351   5.127   5.029   3.982  0.4353  0.3349 -0.2116
 4979TIP3    H136352   5.151   5.048   3.892 -0.4027 -0.7335 -0.6797
 4979TIP3    H236353   5.037   5.059   3.991  0.6835  0.9254  0.4395
 4980TIP3   OH236354   4.845   4.971  12.517  0.1801 -0.3355 -0.4284
 4980TIP3    H136355   4.940   4.981  12.517  0.1801 -0.3376  0.1134
 4980TIP3    H236356   4.811   5.056  12.545  0.1341 -1.2081  2.5388
 4981TIP3   OH236357   5.670   4.261  15.283  0.6866 -0.1036 -0.3114
 4981TIP3    H136358   5.618   4.332  15.321 -0.6015 -0.9705 -0.3810
 4981TIP3    H236359   5.761   4.289  15.294  0.2581  0.8718  0.9800
 4982TIP3   OH236360   2.771   6.335   5.080 -0.7275 -0.1709  0.3445
 4982TIP3    H136361   2.779   6.242   5.102 -1.8306 -0.6950 -1.3104
 4982TIP3    H236362   2.795   6.341   4.988 -0.4539  1.2383  0.4757
 4983TIP3   OH236363   3.813   4.565   5.232  0.8830 -0.0474  0.6961
 4983TIP3    H136364   3.769   4.586   5.314  0.0090  1.8388 -0.1791
 4983TIP3    H236365   3.905   4.584   5.248  0.7006  0.4104  1.2220
 4984TIP3   OH236366   5.663   5.402   4.020 -0.1388 -0.9340  0.4391
 4984TIP3    H136367   5.568   5.394   4.027 -0.2028 -0.3244  0.3575
 4984TIP3    H236368   5.697   5.323   4.063 -0.6786 -1.1598  0.4644
 4985TIP3   OH236369   3.617   6.597   0.354 -0.3805  0.6884 -0.8540
 4985TIP3    H136370   3.576   6.524   0.307  0.0570  0.4955 -0.9429
 4985TIP3    H236371   3.690   6.556   0.402 -0.4972  0.9714 -0.4354
 4986TIP3   OH236372   1.093   3.677  12.418 -0.1775 -0.6960  0.2335
 4986TIP3    H136373   1.027   3.612  12.441  1.5787 -1.9735  2.0927
 4986TIP3    H236374   1.098   3.674  12.322 -1.9806 -1.3565  0.1283
 4987TIP3   OH236375   0.773   4.756  15.352 -0.6999 -0.2898  0.6890
 4987TIP3    H136376   0.740   4.691  15.414 -0.5474 -0.2808  0.7811
 4987TIP3    H236377   0.749   4.840  15.390  0.2267 -0.2532  1.2213
 4988TIP3   OH236378   5.306   3.744  12.872 -0.3829  0.1692 -0.1359
 4988TIP3    H136379   5.213   3.723  12.873 -0.0640 -1.3869  0.2741
 4988TIP3    H236380   5.346   3.676  12.927  0.7430  2.1218  1.6114
 4989TIP3   OH236381   4.932   4.046  12.874 -0.2067 -0.1669 -0.1319
 4989TIP3    H136382   5.020   4.007  12.875 -0.9811 -2.0842 -0.9104
 4989TIP3    H236383   4.896   4.025  12.960 -0.6772 -1.3857 -0.6029
 4990TIP3   OH236384   4.042   5.511  12.749 -0.1727  0.0106 -0.1898
 4990TIP3    H136385   4.097   5.492  12.825 -1.2632  1.1485  0.9433
 4990TIP3    H236386   3.956   5.476  12.773 -0.3547 -0.2879 -1.2349
 4991TIP3   OH236387   5.980   0.560   4.480  0.7485  0.5977  0.6770
 4991TIP3    H136388   5.989   0.651   4.509  0.5232  0.0621  2.5687
 4991TIP3    H236389   6.055   0.546   4.421  1.3192  1.7381  1.1098
 4992TIP3   OH236390   3.401   1.730  12.772 -0.2840  0.3117  0.2510
 4992TIP3    H136391   3.419   1.738  12.866 -1.7748 -0.3861  0.6246
 4992TIP3    H236392   3.415   1.638  12.753 -1.1481  0.2067  0.0692
 4993TIP3   OH236393   0.539   5.818   0.378  0.0110  0.0062  0.1802
 4993TIP3    H136394   0.516   5.904   0.341  0.3793  0.9752  2.1105
 4993TIP3    H236395   0.588   5.838   0.457  1.0994 -2.0185  0.0753
 4994TIP3   OH236396   0.299   6.029  15.318 -0.2700 -0.4901  0.1908
 4994TIP3    H136397   0.264   6.091  15.254 -1.3684 -1.2347  0.0378
 4994TIP3    H236398   0.252   6.050  15.399 -1.0906 -1.4777 -0.0065
 4995TIP3   OH236399   6.479   4.731   0.980  0.0672 -0.2687 -1.6861
 4995TIP3    H136400   6.544   4.754   0.914  0.6573 -0.1166 -1.0604
 4995TIP3    H236401   6.467   4.811   1.031 -2.0243  0.2948 -2.9421
 4996TIP3   OH236402   4.788   4.833  16.774  0.1545 -0.0589 -0.1098
 4996TIP3    H136403   4.811   4.866  16.687  1.7701 -0.0726  0.2914
 4996TIP3    H236404   4.693   4.847  16.780  0.4072  2.5375 -0.7856
 4997TIP3   OH236405   5.696   1.501  12.898 -0.4900 -0.6149  0.4139
 4997TIP3    H136406   5.742   1.481  12.816 -0.3198 -0.3242  0.4370
 4997TIP3    H236407   5.691   1.597  12.900 -0.7461 -0.6318  0.6054
 4998TIP3   OH236408   0.101   0.091  13.739  0.3997  0.1783 -0.4296
 4998TIP3    H136409   0.068   0.130  13.821 -0.4406  0.8210 -1.0461
 4998TIP3    H236410   0.049   0.012  13.728 -1.0184  1.1960 -1.4059
 4999TIP3   OH236411   4.567   4.500   4.641  0.1434  0.5109 -0.0363
 4999TIP3    H136412   4.473   4.519   4.643 -0.3828 -1.5525 -1.4450
 4999TIP3    H236413   4.579   4.434   4.709  0.3093 -0.1231 -0.6694
 5000TIP3   OH236414   5.280   1.762   0.697 -0.4702 -0.2471 -0.3056
 5000TIP3    H136415   5.285   1.706   0.620 -0.5700 -0.8104  0.0936
 5000TIP3    H236416   5.337   1.836   0.676 -0.0753 -0.6583 -0.7020
 5001TIP3   OH236417   1.096   0.538   3.798 -0.2710  0.3449  0.4680
 5001TIP3    H136418   1.120   0.517   3.707 -0.8279  0.9496  0.1721
 5001TIP3    H236419   1.054   0.624   3.792 -0.3059  0.3897  1.3044
 5002TIP3   OH236420   6.086   2.782  13.498 -0.6352  0.0989 -0.2016
 5002TIP3    H136421   6.032   2.859  13.478 -0.8057 -0.3617 -1.7039
 5002TIP3    H236422   6.091   2.779  13.593 -2.9489  0.3936 -0.0134
 5003TIP3   OH236423   5.384   3.089   1.800  0.1558 -0.0253  0.0728
 5003TIP3    H136424   5.289   3.084   1.811 -0.0017 -1.6827 -1.4338
 5003TIP3    H236425   5.419   3.037   1.873 -0.1142  0.2747  0.4187
 5004TIP3   OH236426   3.234   4.166  14.279  0.0488 -0.6924 -0.2970
 5004TIP3    H136427   3.261   4.082  14.315  0.7422 -0.2451  0.2611
 5004TIP3    H236428   3.287   4.177  14.201 -1.6652 -1.7985 -1.6780
 5005TIP3   OH236429   5.332   2.151  17.148 -0.1099  0.3549 -0.2060
 5005TIP3    H136430   5.269   2.082  17.166  1.9856 -1.8765 -0.9099
 5005TIP3    H236431   5.357   2.183  17.235 -1.0677  0.2265  0.1281
 5006TIP3   OH236432   6.466   3.645  12.325  0.2574 -0.2452 -0.2390
 5006TIP3    H136433   6.531   3.633  12.395  1.3962  0.9849 -1.0344
 5006TIP3    H236434   6.411   3.716  12.355 -0.6014 -1.1273  0.3268
 5007TIP3   OH236435   0.539   5.204  17.175 -0.1822  0.7264  0.6141
 5007TIP3    H136436   0.567   5.200  17.084  0.1307 -0.0371  0.7354
 5007TIP3    H236437   0.477   5.276  17.178  0.9133  1.7304  0.1048
 5008TIP3   OH236438   2.136   2.232   4.989  0.6157  0.2280 -0.8014
 5008TIP3    H136439   2.160   2.148   4.949 -0.0151 -0.0843 -0.5429
 5008TIP3    H236440   2.132   2.214   5.083  1.6536  0.8534 -0.6251
 5009TIP3   OH236441   6.094   5.421  14.842  0.0669 -0.4966 -0.0521
 5009TIP3    H136442   6.097   5.419  14.938  0.1459  1.2198 -0.0003
 5009TIP3    H236443   6.180   5.455  14.816 -0.6792  1.0005 -0.6388
 5010TIP3   OH236444   0.897   0.453   1.181  0.2557  0.7366  0.2559
 5010TIP3    H136445   0.901   0.505   1.100 -0.0547  2.1260  1.0971
 5010TIP3    H236446   0.826   0.391   1.165  1.6456 -0.5619 -1.3694
 5011TIP3   OH236447   6.441   0.346  14.008 -0.2537 -0.5015 -0.0712
 5011TIP3    H136448   6.376   0.408  13.974 -1.8651 -2.3660 -0.5320
 5011TIP3    H236449   6.453   0.372  14.100  0.6571  1.6990 -0.7474
 5012TIP3   OH236450   3.717   2.831  17.194  0.3267 -0.1287 -0.2465
 5012TIP3    H136451   3.624   2.811  17.196  0.6292 -1.6783 -0.6155
 5012TIP3    H236452   3.723   2.921  17.227 -1.1340 -0.5611  1.3458
 5013TIP3   OH236453   4.322   5.357  11.997 -0.6263 -0.5603 -0.2773
 5013TIP3    H136454   4.372   5.426  11.953 -1.9121  0.8647  0.3935
 5013TIP3    H236455   4.388   5.300  12.036  0.5563 -1.4223 -3.2732
 5014TIP3   OH236456   1.957   3.114   1.632 -0.7211  0.4507 -0.1894
 5014TIP3    H136457   1.912   3.190   1.669 -1.4120 -0.1941  0.3142
 5014TIP3    H236458   1.891   3.046   1.630 -0.1495 -0.0967 -0.7982
 5015TIP3   OH236459   4.077   0.167   5.167  0.2867 -0.0201 -0.2752
 5015TIP3    H136460   4.109   0.176   5.078  1.9868 -0.7990  0.2163
 5015TIP3    H236461   4.123   0.234   5.217  0.0188 -0.1667  0.1790
 5016TIP3   OH236462   3.680   2.629   0.209  0.4898  0.5256 -0.0787
 5016TIP3    H136463   3.600   2.675   0.237  1.0260  1.3851  0.0654
 5016TIP3    H236464   3.747   2.658   0.270  1.2742  1.0360 -1.1595
 5017TIP3   OH236465   2.962   2.308  13.804  0.6884  0.0983  0.4351
 5017TIP3    H136466   2.949   2.226  13.851  1.9057 -0.3469  0.0571
 5017TIP3    H236467   2.998   2.281  13.719 -0.1742  0.9560 -0.2160
 5018TIP3   OH236468   5.438   5.339   4.948 -0.1615 -0.3106  0.2619
 5018TIP3    H136469   5.350   5.303   4.959 -1.5476  2.4566 -0.8634
 5018TIP3    H236470   5.457   5.383   5.031  1.3013 -2.8682  1.4254
 5019TIP3   OH236471   1.638   2.592  15.223  0.4745 -0.2032  0.5383
 5019TIP3    H136472   1.581   2.525  15.186 -0.2061  0.1974  0.8488
 5019TIP3    H236473   1.639   2.574  15.317  0.7983 -0.1543  0.5464
 5020TIP3   OH236474   3.358   4.634   3.895 -0.3207 -0.6773 -0.1360
 5020TIP3    H136475   3.313   4.556   3.862 -1.4540  0.0535 -0.3830
 5020TIP3    H236476   3.447   4.605   3.914  0.1533 -1.3708 -2.9542
 5021TIP3   OH236477   5.005   6.407   1.743  0.1781  0.1800 -0.3726
 5021TIP3    H136478   5.088   6.437   1.705  0.9924 -0.4555  0.8150
 5021TIP3    H236479   4.951   6.385   1.668  1.5269 -0.5122 -1.1869
 5022TIP3   OH236480   5.654   2.162   2.089  0.1284 -0.3317 -0.1736
 5022TIP3    H136481   5.750   2.173   2.089  0.0602  0.3119 -0.2955
 5022TIP3    H236482   5.638   2.097   2.158  0.7296 -1.2486 -0.8855
 5023TIP3   OH236483   4.968   2.069   5.855  0.2194  0.8472  0.4087
 5023TIP3    H136484   4.956   2.007   5.783  2.1226  1.7993 -0.8185
 5023TIP3    H236485   4.958   2.155   5.813  1.3736  1.4187  1.2723
 5024TIP3   OH236486   4.740   6.411   4.383 -0.0498  0.2581 -0.2111
 5024TIP3    H136487   4.733   6.373   4.470  2.4785  1.3104  0.5540
 5024TIP3    H236488   4.661   6.465   4.373 -0.3014  0.2623  1.5012
 5025TIP3   OH236489   3.070   1.984   0.227 -0.2955  0.3723  0.4434
 5025TIP3    H136490   3.074   2.016   0.317  1.0265 -1.4897  1.0959
 5025TIP3    H236491   3.107   1.896   0.231  2.3440  1.1751 -2.3381
 5026TIP3   OH236492   1.009   4.282  14.744  0.2875  0.0813 -0.1638
 5026TIP3    H136493   0.986   4.348  14.679 -0.0777 -1.1273 -1.3181
 5026TIP3    H236494   0.928   4.232  14.757  1.2058 -1.8311 -1.3777
 5027TIP3   OH236495   5.753   4.705   0.580 -0.5291  0.3833  0.2737
 5027TIP3    H136496   5.750   4.636   0.513 -1.6869 -0.7032  1.3960
 5027TIP3    H236497   5.775   4.659   0.661  0.4835  1.6266  0.7347
 5028TIP3   OH236498   3.045   4.606   0.716 -0.3705  0.0310  0.5197
 5028TIP3    H136499   3.091   4.670   0.770 -1.7604  1.4837  0.0658
 5028TIP3    H236500   3.114   4.559   0.669  0.7413  0.3599  1.7629
 5029TIP3   OH236501   2.134   5.994   1.498 -0.1470 -0.0972 -0.1018
 5029TIP3    H136502   2.088   5.996   1.581 -0.2521  0.8629 -0.1711
 5029TIP3    H236503   2.065   5.985   1.432 -0.1706  0.5205 -0.1611
 5030TIP3   OH236504   4.630   3.135   4.158 -0.2257  0.4000 -0.1927
 5030TIP3    H136505   4.540   3.146   4.190  0.0812  0.1543  0.7901
 5030TIP3    H236506   4.674   3.217   4.180  0.2329 -0.1146  0.9022
 5031TIP3   OH236507   5.689   2.635   3.734  0.0740 -0.0576  0.7496
 5031TIP3    H136508   5.615   2.649   3.793 -0.4561 -1.0564  0.3472
 5031TIP3    H236509   5.663   2.678   3.652  1.1646  2.0755  1.4386
 5032TIP3   OH236510   4.261   2.862   2.563 -0.1904 -0.0034 -0.0735
 5032TIP3    H136511   4.220   2.802   2.626 -0.3774  0.8298  0.6172
 5032TIP3    H236512   4.191   2.885   2.502  0.0318 -0.9416 -0.7081
 5033TIP3   OH236513   1.417   6.431   1.410  1.0289 -0.2376 -0.1027
 5033TIP3    H136514   1.373   6.379   1.477  0.9777 -0.3953 -0.2567
 5033TIP3    H236515   1.356   6.430   1.335  0.0367  1.8102  0.6066
 5034TIP3   OH236516   3.408   2.002  12.405 -0.0622  0.0929 -0.2399
 5034TIP3    H136517   3.395   1.963  12.318  0.6822  0.2566 -0.4404
 5034TIP3    H236518   3.495   2.043  12.399  0.6535 -1.1329  1.0372
 5035TIP3   OH236519   4.829   4.807   4.121  0.2576 -0.7519  0.4451
 5035TIP3    H136520   4.856   4.880   4.177  0.6150 -0.0765 -0.5907
 5035TIP3    H236521   4.895   4.802   4.052 -2.2611  1.1746 -2.3641
 5036TIP3   OH236522   0.411   1.625   2.770  0.1964  0.2736 -0.2092
 5036TIP3    H136523   0.346   1.694   2.785  0.8053  1.0180 -0.8868
 5036TIP3    H236524   0.392   1.559   2.837  0.3071  1.6046  1.2006
 5037TIP3   OH236525   5.493   3.229  15.020 -0.3546  0.4822 -0.0958
 5037TIP3    H136526   5.557   3.164  14.991 -0.7870  0.2160 -0.4593
 5037TIP3    H236527   5.423   3.224  14.956 -2.1170 -1.2578  1.8075
 5038TIP3   OH236528   3.388   5.465  11.541  0.3573  0.1758 -0.3101
 5038TIP3    H136529   3.402   5.497  11.630 -0.4172  1.3417 -0.5940
 5038TIP3    H236530   3.419   5.535  11.485 -0.0135 -0.1731 -0.9612
 5039TIP3   OH236531   5.655   0.956   1.841  0.4586  0.7343 -0.1584
 5039TIP3    H136532   5.705   1.035   1.864  0.6414  0.7384 -0.5591
 5039TIP3    H236533   5.688   0.889   1.901  1.0666  0.6949 -0.5297
 5040TIP3   OH236534   5.298   2.397  14.646 -0.1351  0.0802 -0.0363
 5040TIP3    H136535   5.214   2.377  14.604 -0.5163  1.8526 -0.1832
 5040TIP3    H236536   5.278   2.468  14.706  1.2405  0.4007  0.0579
 5041TIP3   OH236537   1.678   1.374   3.240  0.5018  0.0592 -0.2694
 5041TIP3    H136538   1.681   1.317   3.317  0.4132 -0.7837 -0.8742
 5041TIP3    H236539   1.592   1.356   3.201  1.0870 -0.5339 -1.3093
 5042TIP3   OH236540   1.227   3.053  11.942  0.2702  0.3064 -0.3387
 5042TIP3    H136541   1.171   2.976  11.958 -0.6705  1.3375  1.6762
 5042TIP3    H236542   1.278   3.029  11.865 -0.0790 -2.2909  0.1393
 5043TIP3   OH236543   2.094   4.238   1.237 -0.6172  0.1552 -0.4192
 5043TIP3    H136544   2.021   4.277   1.285  0.7195  0.6656  1.2778
 5043TIP3    H236545   2.171   4.286   1.266  0.9268 -2.7300  0.6874
 5044TIP3   OH236546   1.245   3.271  16.346 -0.4974 -0.0924  0.6418
 5044TIP3    H136547   1.291   3.196  16.307  0.4989 -0.4930  2.4620
 5044TIP3    H236548   1.154   3.242  16.352 -0.5349 -0.3092 -0.6074
 5045TIP3   OH236549   6.677   0.702  10.798 -0.0312  0.1203  0.7248
 5045TIP3    H136550   6.583   0.707  10.813 -0.2702 -1.1134 -0.2142
 5045TIP3    H236551   6.698   0.781  10.748 -0.8899 -0.4422 -0.5658
 5046TIP3   OH236552   5.619   0.850  14.309  0.1295 -0.2966 -0.2365
 5046TIP3    H136553   5.695   0.871  14.254 -0.0554 -0.4777 -0.5690
 5046TIP3    H236554   5.656   0.809  14.387  0.3366 -1.0112 -0.6990
 5047TIP3   OH236555   3.966   0.637   3.204 -0.3134 -0.0309  0.1870
 5047TIP3    H136556   4.034   0.703   3.209 -1.0300  0.6658  1.0475
 5047TIP3    H236557   3.985   0.589   3.123  0.5180  0.8872 -0.1810
 5048TIP3   OH236558   5.033   2.188  15.745 -0.1469  0.4297  0.5360
 5048TIP3    H136559   5.074   2.191  15.658 -0.0777  1.1991  0.5817
 5048TIP3    H236560   5.068   2.110  15.786  1.2906  1.0544  0.5666
 5049TIP3   OH236561   0.104   4.235  15.353 -0.3113  0.2134 -0.6382
 5049TIP3    H136562   0.023   4.196  15.384  0.1989 -0.5216 -0.2059
 5049TIP3    H236563   0.168   4.164  15.354  0.3396  0.7726 -0.9897
 5050TIP3   OH236564   0.353   0.095  13.887  0.2374 -0.3944  0.5264
 5050TIP3    H136565   0.321   0.005  13.883  0.0285 -0.3131  0.3632
 5050TIP3    H236566   0.339   0.129  13.799 -0.0642 -0.0703  0.6974
 5051TIP3   OH236567   0.251   4.276  16.648 -0.4552  0.0596  0.1700
 5051TIP3    H136568   0.210   4.338  16.708  0.0478 -0.8830  1.5443
 5051TIP3    H236569   0.271   4.200  16.703  1.0039 -0.4221 -0.9813
 5052TIP3   OH236570   4.622   2.728   1.620  0.5214  0.6627  0.1633
 5052TIP3    H136571   4.652   2.737   1.710  5.6007  0.2368 -1.2088
 5052TIP3    H236572   4.630   2.816   1.583 -1.2693  0.7799 -0.0341
 5053TIP3   OH236573   0.487   5.964   0.147  0.3382  0.6125  0.0249
 5053TIP3    H136574   0.426   6.024   0.105 -1.6258 -1.5068 -0.3085
 5053TIP3    H236575   0.447   5.878   0.139  2.4192 -0.6215  1.6236
 5054TIP3   OH236576   2.595   0.861  12.192 -0.4338  0.4868  0.2578
 5054TIP3    H136577   2.570   0.855  12.100 -3.0597  2.0587  0.7769
 5054TIP3    H236578   2.592   0.771  12.225 -0.5109  0.0448 -0.9336
 5055TIP3   OH236579   4.168   5.958   0.093  0.5577  0.1583 -0.5400
 5055TIP3    H136580   4.110   5.909   0.035  1.1089 -0.3460 -0.6762
 5055TIP3    H236581   4.216   6.017   0.034  2.0282 -1.2336 -0.8104
 5056TIP3   OH236582   3.559   4.382  11.182 -0.0578 -0.1307  0.3122
 5056TIP3    H136583   3.646   4.363  11.219 -0.0144  0.1982  0.3788
 5056TIP3    H236584   3.504   4.310  11.212  0.6499 -1.4314 -1.3585
 5057TIP3   OH236585   2.393   4.355  12.109 -0.1970  0.1947  0.0730
 5057TIP3    H136586   2.316   4.342  12.164  0.8073 -0.4339  1.4231
 5057TIP3    H236587   2.369   4.426  12.050 -2.4285 -1.1865 -0.8162
 5058TIP3   OH236588   0.683   3.930   3.125 -0.1811 -0.0734  0.0440
 5058TIP3    H136589   0.634   3.886   3.195  0.4438 -0.4025  0.2857
 5058TIP3    H236590   0.622   3.995   3.090 -0.0603  1.0691  1.8304
 5059TIP3   OH236591   2.423   0.576  12.160 -0.3536 -0.3591 -0.2904
 5059TIP3    H136592   2.414   0.506  12.224 -0.8172  0.8806  1.0523
 5059TIP3    H236593   2.335   0.586  12.123 -0.1938 -0.7465 -0.7930
 5060TIP3   OH236594   0.566   6.484  14.530 -0.1666 -0.5135 -0.3780
 5060TIP3    H136595   0.632   6.488  14.460 -2.1198 -0.2235 -2.3051
 5060TIP3    H236596   0.616   6.494  14.610  1.9240  1.8012 -1.8304
 5061TIP3   OH236597   3.617   4.303   5.721 -0.7637  0.3770  0.1407
 5061TIP3    H136598   3.635   4.209   5.720  2.3446  0.8531 -1.4737
 5061TIP3    H236599   3.595   4.325   5.630 -0.9270  1.2967  0.3858
 5062TIP3   OH236600   3.640   2.745   1.766  0.0319 -0.0567 -0.4234
 5062TIP3    H136601   3.624   2.824   1.715  0.0205 -1.1804 -2.2597
 5062TIP3    H236602   3.559   2.729   1.813 -0.4802  0.2160 -1.2039
 5063TIP3   OH236603   2.362   0.754   1.571 -0.1232  0.0295 -0.1763
 5063TIP3    H136604   2.327   0.842   1.559 -1.3267 -0.3401  0.5182
 5063TIP3    H236605   2.322   0.722   1.651 -1.5244 -2.0159 -1.5863
 5064TIP3   OH236606   4.583   1.652  12.423 -0.1674  0.0841  0.3453
 5064TIP3    H136607   4.626   1.737  12.418 -1.4828  0.7153 -1.9385
 5064TIP3    H236608   4.651   1.589  12.399  0.6936  0.4999  1.5878
 5065TIP3   OH236609   2.396   3.272  16.696  0.5675 -0.4104  0.0218
 5065TIP3    H136610   2.340   3.278  16.618  0.8876 -0.4761 -0.2152
 5065TIP3    H236611   2.411   3.178  16.707  2.7529 -0.3131 -1.4587
 5066TIP3   OH236612   0.377   0.842  11.484 -1.0064 -0.4207  0.0950
 5066TIP3    H136613   0.413   0.840  11.396 -2.7916 -0.6676 -0.6697
 5066TIP3    H236614   0.284   0.859  11.471 -1.5461 -1.8155  1.8656
 5067TIP3   OH236615   1.062   6.279   6.329 -0.2826 -0.0655 -0.1552
 5067TIP3    H136616   0.981   6.233   6.347 -1.3910  1.3553 -1.2987
 5067TIP3    H236617   1.091   6.312   6.414 -1.4716  0.3018  0.1164
 5068TIP3   OH236618   0.994   5.920  13.398  0.1551 -0.4212  0.1515
 5068TIP3    H136619   0.969   5.913  13.306 -0.8181  0.7391  0.3026
 5068TIP3    H236620   1.082   5.958  13.396  0.0971 -0.3016 -0.2947
 5069TIP3   OH236621   0.167   1.496  13.810 -0.2445  0.6288 -0.1457
 5069TIP3    H136622   0.156   1.478  13.903 -1.2218  0.8114 -0.2101
 5069TIP3    H236623   0.176   1.592  13.805  0.1035  0.5937 -0.2151
 5070TIP3   OH236624   4.678   3.349   1.689 -0.0577  0.5111 -0.8129
 5070TIP3    H136625   4.610   3.303   1.638 -0.0123 -0.3448 -0.1187
 5070TIP3    H236626   4.665   3.442   1.667  0.2458  0.1536 -2.7215
 5071TIP3   OH236627   1.397   5.027  13.476 -1.0138 -0.1148 -0.9714
 5071TIP3    H136628   1.376   5.060  13.388  0.7247  2.9392 -0.3709
 5071TIP3    H236629   1.341   5.078  13.534  1.4059  1.6654 -0.0351
 5072TIP3   OH236630   3.079   2.251   1.929 -0.1097  0.8985 -0.0144
 5072TIP3    H136631   3.134   2.295   1.994  0.2435  0.3671  0.0532
 5072TIP3    H236632   3.131   2.252   1.848  0.4531 -0.4911  0.2942
 5073TIP3   OH236633   3.615   4.054   0.248 -0.4400  0.8430  0.2913
 5073TIP3    H136634   3.627   3.969   0.207 -1.7371  1.2499 -1.0187
 5073TIP3    H236635   3.684   4.059   0.314  0.9950 -0.3268 -1.0554
 5074TIP3   OH236636   5.939   0.611  15.010  0.0354  0.0759  0.3678
 5074TIP3    H136637   5.850   0.605  14.978  0.0757 -1.1937  0.4283
 5074TIP3    H236638   5.981   0.678  14.956 -1.3359  1.7836  1.3210
 5075TIP3   OH236639   4.083   1.287  17.461 -0.1143 -0.2829 -0.1103
 5075TIP3    H136640   4.153   1.323  17.407  1.0644 -0.9076  0.9539
 5075TIP3    H236641   4.011   1.271  17.400 -0.2012  2.4968 -0.8779
 5076TIP3   OH236642   4.046   5.225  17.214  0.0257 -0.1089 -0.3160
 5076TIP3    H136643   4.069   5.278  17.137  0.4858 -0.2738 -0.2958
 5076TIP3    H236644   4.015   5.142  17.177 -2.6307  0.8379 -0.4327
 5077TIP3   OH236645   5.933   4.096   1.544  0.0605  0.7414 -0.1271
 5077TIP3    H136646   5.971   4.148   1.615  0.3213 -2.3358  2.2035
 5077TIP3    H236647   6.001   4.032   1.523 -1.2940 -0.5614 -0.7322
 5078TIP3   OH236648   0.698   3.884  10.899  0.6597 -0.1177 -0.1874
 5078TIP3    H136649   0.647   3.804  10.911  0.0008  0.5500  1.7902
 5078TIP3    H236650   0.704   3.894  10.804 -1.6896 -0.9933 -0.4931
 5079TIP3   OH236651   3.609   3.726  17.053 -0.0480  0.3159  0.1448
 5079TIP3    H136652   3.633   3.819  17.062  0.9845  0.2049 -1.0703
 5079TIP3    H236653   3.523   3.719  17.094  0.9694  1.2561  2.6236
 5080TIP3   OH236654   5.277   4.847  14.507 -0.3394  0.0543  0.1800
 5080TIP3    H136655   5.239   4.817  14.425 -0.6584  0.9851 -0.0261
 5080TIP3    H236656   5.348   4.905  14.480  0.0104 -0.1893  0.5651
 5081TIP3   OH236657   5.040   4.775  16.549 -0.5855 -0.0112 -0.1086
 5081TIP3    H136658   5.034   4.788  16.644  0.2847  0.4853 -0.1103
 5081TIP3    H236659   5.102   4.842  16.520 -0.9115 -0.1007 -1.0470
 5082TIP3   OH236660   2.905   2.719  15.231  0.2761  0.1003 -0.1811
 5082TIP3    H136661   2.938   2.738  15.319  0.4482  0.2857 -0.2861
 5082TIP3    H236662   2.855   2.797  15.206  0.3130  0.0900 -0.2889
 5083TIP3   OH236663   6.685   6.483   2.308 -0.3241  0.1191 -0.9758
 5083TIP3    H136664   6.699   6.395   2.342 -0.0260  0.3658 -0.4501
 5083TIP3    H236665   6.774   6.515   2.288 -0.1670  1.1923  1.1045
 5084TIP3   OH236666   6.465   6.028   3.178 -0.3920 -0.2031  0.1157
 5084TIP3    H136667   6.420   5.983   3.105  1.0807 -0.1785 -0.8472
 5084TIP3    H236668   6.545   5.977   3.192 -0.0680  0.5026  0.9185
 5085TIP3   OH236669   3.962   4.263  17.224  0.4240 -1.1775  0.2192
 5085TIP3    H136670   3.972   4.279  17.130 -0.7696 -0.6794  0.1623
 5085TIP3    H236671   4.052   4.260  17.258  0.8536 -1.0605 -0.8816
 5086TIP3   OH236672   1.714   0.012   0.762  0.2025  0.4323 -0.5970
 5086TIP3    H136673   1.693   0.099   0.728 -0.9584  0.1607 -0.6206
 5086TIP3    H236674   1.679  -0.049   0.697 -1.7233 -0.0959  0.8428
 5087TIP3   OH236675   5.726   5.866   1.589 -0.1870 -0.3219 -0.7322
 5087TIP3    H136676   5.806   5.817   1.607  0.2880  0.2001 -1.3956
 5087TIP3    H236677   5.698   5.899   1.674 -0.9976 -2.4363 -0.1040
 5088TIP3   OH236678   3.816   6.466  14.525 -0.0656  0.0603 -0.0455
 5088TIP3    H136679   3.766   6.411  14.464 -1.4874  0.8337  0.3674
 5088TIP3    H236680   3.797   6.556  14.497  1.8595  0.3834 -0.4327
 5089TIP3   OH236681   5.230   2.200   1.247 -0.1234  0.5576  0.5997
 5089TIP3    H136682   5.304   2.246   1.286 -0.5492  0.5066  1.5045
 5089TIP3    H236683   5.258   2.108   1.246 -0.3582  0.4687  1.4119
 5090TIP3   OH236684   1.670   1.642  17.341 -0.6491  1.1071 -0.2828
 5090TIP3    H136685   1.576   1.631  17.326 -0.4026  0.4971 -1.5172
 5090TIP3    H236686   1.710   1.616  17.258  0.7452 -0.9415  0.9383
 5091TIP3   OH236687   4.762   0.393  12.747  0.4085  0.0817  0.2928
 5091TIP3    H136688   4.842   0.354  12.782 -0.0638 -0.4498  0.8070
 5091TIP3    H236689   4.792   0.466  12.693  1.1683  0.9867  1.8726
 5092TIP3   OH236690   4.726   0.811   2.530 -0.5813 -0.3718  0.6919
 5092TIP3    H136691   4.643   0.763   2.527 -0.7454 -0.1389  1.4364
 5092TIP3    H236692   4.775   0.778   2.455 -2.4368  1.5035 -1.5371
 5093TIP3   OH236693   0.194   4.125   1.568  0.0150  0.3658  0.1210
 5093TIP3    H136694   0.149   4.126   1.484 -2.7047  3.2803  1.3940
 5093TIP3    H236695   0.282   4.159   1.549  0.0877 -0.7425 -1.7491
 5094TIP3   OH236696   4.098   1.258   1.300  0.3195 -0.0512  0.1020
 5094TIP3    H136697   4.073   1.235   1.210 -1.4064 -1.9148  0.9792
 5094TIP3    H236698   4.031   1.216   1.354  0.7539  1.8524  2.2310
 5095TIP3   OH236699   4.193   6.616   2.175  0.6621 -0.6518  0.6665
 5095TIP3    H136700   4.126   6.550   2.188 -0.4892  0.4578  0.5677
 5095TIP3    H236701   4.206   6.618   2.080 -0.3621  0.2461  0.5273
 5096TIP3   OH236702   2.809   2.363  15.396  0.2010 -0.3509  0.4999
 5096TIP3    H136703   2.774   2.451  15.399  2.7865  1.0191 -2.7192
 5096TIP3    H236704   2.877   2.362  15.463  0.1810  0.1303  0.5310
 5097TIP3   OH236705   6.616   5.636   0.825 -0.2102 -0.1952 -0.3271
 5097TIP3    H136706   6.526   5.668   0.831  0.3826  1.7025 -0.9214
 5097TIP3    H236707   6.628   5.584   0.905 -2.0927 -1.2715 -0.6936
 5098TIP3   OH236708   4.546   2.878  12.662 -0.1674  0.1684  0.7289
 5098TIP3    H136709   4.502   2.868  12.746 -1.4608 -0.4018  0.0155
 5098TIP3    H236710   4.484   2.929  12.609 -0.1429 -0.9585 -0.4114
 5099TIP3   OH236711   1.517   1.267   1.531 -0.7835  0.8231 -0.0238
 5099TIP3    H136712   1.456   1.263   1.458 -0.5716 -1.0152 -0.1510
 5099TIP3    H236713   1.519   1.177   1.565  2.0295  0.7373 -0.1971
 5100TIP3   OH236714   1.163   4.234   4.730  0.3831 -0.2972 -0.0598
 5100TIP3    H136715   1.112   4.171   4.781 -1.6427 -1.1656 -2.9145
 5100TIP3    H236716   1.126   4.319   4.754  1.0534 -0.4147  1.5452
 5101TIP3   OH236717   4.469   2.523  16.592  0.2140  0.0815 -0.3047
 5101TIP3    H136718   4.522   2.602  16.581 -1.2125  1.2288  0.6982
 5101TIP3    H236719   4.448   2.496  16.503 -1.7716  2.6100 -0.7019
 5102TIP3   OH236720   5.065   2.468  13.230  0.0426  0.5802  0.4905
 5102TIP3    H136721   4.999   2.510  13.176 -0.4100  0.5190  0.9907
 5102TIP3    H236722   5.024   2.458  13.316  0.9621  1.2524  1.0348
 5103TIP3   OH236723   2.715   3.168  14.458 -0.3420 -0.5902  0.1831
 5103TIP3    H136724   2.652   3.211  14.401 -0.3207 -2.5712 -1.4546
 5103TIP3    H236725   2.663   3.104  14.507 -0.1183  0.1101  1.3731
 5104TIP3   OH236726   5.142   4.580   6.444 -0.6759  0.0330  0.0428
 5104TIP3    H136727   5.148   4.485   6.431  2.0383  0.2146 -0.6455
 5104TIP3    H236728   5.229   4.613   6.420 -1.7284  2.7852 -0.3579
 5105TIP3   OH236729   0.943   0.993   2.174  0.4569  0.3754  0.3070
 5105TIP3    H136730   0.867   0.935   2.178  0.5252  0.2976  0.4603
 5105TIP3    H236731   1.013   0.945   2.217  1.2993 -0.6263 -1.9860
 5106TIP3   OH236732   4.195   0.334  14.738  0.1566 -0.4656  0.0432
 5106TIP3    H136733   4.237   0.303  14.658  1.6012 -0.6742  0.8485
 5106TIP3    H236734   4.247   0.410  14.764  0.7728 -1.4007  1.6757
 5107TIP3   OH236735   3.060   3.460   4.849  0.0008 -0.5132  0.0789
 5107TIP3    H136736   3.155   3.468   4.841  0.0113 -0.5394  0.1670
 5107TIP3    H236737   3.038   3.381   4.800 -0.2128  0.5006 -1.5242
 5108TIP3   OH236738   3.595   6.419  14.355 -0.6998 -0.5187  0.0368
 5108TIP3    H136739   3.508   6.380  14.343 -1.3567  0.6098  0.9778
 5108TIP3    H236740   3.579   6.513  14.362  0.4378 -0.4141  1.6613
 5109TIP3   OH236741   1.221   6.371   4.770 -0.7465  0.1756  0.0127
 5109TIP3    H136742   1.155   6.403   4.709 -0.1433 -0.2863 -0.9113
 5109TIP3    H236743   1.179   6.297   4.814 -1.5338  1.1245  0.8957
 5110TIP3   OH236744   0.958   0.848   6.261  0.5814  0.5148  0.0323
 5110TIP3    H136745   1.042   0.878   6.296  0.2854  2.4400 -0.7504
 5110TIP3    H236746   0.943   0.905   6.185 -1.6881  0.5855  0.4758
 5111TIP3   OH236747   1.660   2.673   3.663  0.1435 -0.0949 -0.1969
 5111TIP3    H136748   1.676   2.622   3.742 -0.7361 -0.9423 -0.5357
 5111TIP3    H236749   1.710   2.754   3.675  3.2121 -1.8019 -0.4902
 5112TIP3   OH236750   1.797   5.519   2.808  0.2386 -0.4206 -0.8585
 5112TIP3    H136751   1.826   5.594   2.755  0.4958  0.4169  0.4220
 5112TIP3    H236752   1.878   5.479   2.839  0.1204  0.4894  0.7579
 5113TIP3   OH236753   4.999   0.130   5.223 -0.3721 -0.4363 -0.1785
 5113TIP3    H136754   4.973   0.184   5.149 -0.4120 -0.2450 -0.0275
 5113TIP3    H236755   4.949   0.165   5.297  0.7510  0.3336  0.2522
 5114TIP3   OH236756   4.008   2.123  14.511  0.4674  0.1592  0.2189
 5114TIP3    H136757   3.988   2.198  14.455  0.6925 -2.3500 -3.5754
 5114TIP3    H236758   4.103   2.129  14.526  0.4961  0.5990 -0.1290
 5115TIP3   OH236759   5.629   3.301   3.607 -0.2596 -0.0438  0.2432
 5115TIP3    H136760   5.618   3.340   3.693 -0.2952 -1.1196  0.7408
 5115TIP3    H236761   5.647   3.208   3.624  0.7385 -0.0808 -0.8594
 5116TIP3   OH236762   2.815   5.299   1.164 -0.1914 -0.0154 -0.4761
 5116TIP3    H136763   2.775   5.352   1.096  0.8653 -1.5901 -2.4156
 5116TIP3    H236764   2.909   5.309   1.151  0.0290 -0.7766  0.3903
 5117TIP3   OH236765   2.406   4.983  11.932 -0.2683 -0.3135 -0.4243
 5117TIP3    H136766   2.438   4.900  11.969 -0.1422 -0.8687 -1.7114
 5117TIP3    H236767   2.399   4.965  11.838 -0.1745  1.1647 -0.7279
 5118TIP3   OH236768   4.501   4.946  13.794 -0.0144 -0.2891  0.5641
 5118TIP3    H136769   4.428   5.008  13.791 -0.1748 -0.4999  0.0967
 5118TIP3    H236770   4.566   4.989  13.850  0.5711  1.0856 -1.1007
 5119TIP3   OH236771   2.197   2.452   0.770 -0.1456 -0.4819  0.2618
 5119TIP3    H136772   2.287   2.445   0.737  0.4887 -1.0622  2.0175
 5119TIP3    H236773   2.150   2.383   0.723  0.7760 -1.4178  0.6583
 5120TIP3   OH236774   3.550   5.640  12.280 -0.1063  0.3499 -0.1871
 5120TIP3    H136775   3.486   5.570  12.279 -0.2627  0.4816 -1.2203
 5120TIP3    H236776   3.622   5.607  12.334 -0.6048 -0.1989  0.1456
 5121TIP3   OH236777   0.303   1.425   5.069 -0.1198 -0.3707  0.1709
 5121TIP3    H136778   0.220   1.452   5.107 -0.1785 -0.3590  0.0356
 5121TIP3    H236779   0.365   1.430   5.142  0.2311  1.7769 -0.2013
 5122TIP3   OH236780   5.519   5.718   5.229 -0.9594  0.4326  0.5145
 5122TIP3    H136781   5.448   5.759   5.179 -0.4496  1.5543  0.6656
 5122TIP3    H236782   5.514   5.760   5.315 -0.6520 -0.1139  0.8063
 5123TIP3   OH236783   3.580   5.946  16.240 -0.4170  0.1411 -0.1471
 5123TIP3    H136784   3.599   5.885  16.311  0.8101  0.1137 -0.4850
 5123TIP3    H236785   3.623   5.909  16.164  0.2492  1.3581 -0.3900
 5124TIP3   OH236786   1.302   2.680  12.420 -0.4002 -0.1500 -0.4685
 5124TIP3    H136787   1.310   2.682  12.325 -0.4537  0.2206 -0.4675
 5124TIP3    H236788   1.349   2.759  12.450 -0.4666 -0.2123 -0.1980
 5125TIP3   OH236789   3.523   2.853   2.655 -0.7762 -0.6197 -0.2932
 5125TIP3    H136790   3.543   2.874   2.563 -2.8623  0.0723 -0.6465
 5125TIP3    H236791   3.514   2.758   2.656 -0.6806 -0.6405 -0.7979
 5126TIP3   OH236792   5.557   1.516  13.157  0.1358 -0.6933 -0.0352
 5126TIP3    H136793   5.623   1.567  13.202 -0.1199 -1.2115  0.9499
 5126TIP3    H236794   5.586   1.514  13.065  1.5631 -1.0467  0.4003
 5127TIP3   OH236795   0.748   3.928  17.463 -0.5584 -0.1737 -0.2062
 5127TIP3    H136796   0.661   3.943  17.498 -0.1484  1.1305  0.2938
 5127TIP3    H236797   0.800   4.003  17.493  0.9317 -1.3036  0.1765
 5128TIP3   OH236798   1.503   0.824  16.987  0.0544 -0.0653  0.3687
 5128TIP3    H136799   1.458   0.872  17.056  0.3373  0.2345  0.3490
 5128TIP3    H236800   1.468   0.859  16.906 -1.0795 -1.1740  0.3366
 5129TIP3   OH236801   2.936   2.796   1.247  0.9572  0.6371 -0.0929
 5129TIP3    H136802   2.855   2.841   1.271  0.7037 -0.7537  1.8880
 5129TIP3    H236803   2.942   2.723   1.309  1.1389 -2.3059 -3.2812
 5130TIP3   OH236804   5.628   3.934   4.918 -0.4588  0.0573  0.1312
 5130TIP3    H136805   5.591   3.954   5.004 -2.1750 -1.4804 -0.2105
 5130TIP3    H236806   5.579   3.990   4.858 -0.3999 -0.0842 -0.0463
 5131TIP3   OH236807   4.052   2.293  14.990 -0.0725 -0.0822  0.2219
 5131TIP3    H136808   4.085   2.240  14.917 -1.3144 -0.5554 -0.0200
 5131TIP3    H236809   4.057   2.234  15.065  1.2035  0.4042  0.5467
 5132TIP3   OH236810   0.957   6.528   3.136  0.0102  0.1189  0.2970
 5132TIP3    H136811   0.898   6.514   3.210  0.8182 -1.4753  0.6952
 5132TIP3    H236812   0.902   6.568   3.068 -1.0053  0.5786  1.3612
 5133TIP3   OH236813   3.403   1.632  15.426 -0.1530 -0.3251  0.0221
 5133TIP3    H136814   3.473   1.697  15.420  0.0782 -0.4790  0.9074
 5133TIP3    H236815   3.334   1.666  15.369  0.0000  0.6588  0.4011
 5134TIP3   OH236816   5.492   6.104  11.239 -0.2899 -0.0381 -0.1234
 5134TIP3    H136817   5.435   6.030  11.219  0.0102 -0.1676 -0.5189
 5134TIP3    H236818   5.466   6.172  11.177  0.2778 -0.2535 -0.6142
 5135TIP3   OH236819   2.073   3.030   3.504 -0.0115  0.3826  0.5659
 5135TIP3    H136820   1.991   3.063   3.467 -0.3063 -0.5475  0.3648
 5135TIP3    H236821   2.125   3.109   3.521 -0.8912  0.9743  0.5722
 5136TIP3   OH236822   5.666   5.425   3.509  0.4788 -0.2140  0.4956
 5136TIP3    H136823   5.651   5.392   3.597 -1.3973  0.3558  0.4372
 5136TIP3    H236824   5.675   5.519   3.519  1.4836 -0.2693  0.1985
 5137TIP3   OH236825   1.461   3.308  15.872  0.1498 -0.2544  0.0471
 5137TIP3    H136826   1.455   3.227  15.821  0.5669  0.2040 -0.7444
 5137TIP3    H236827   1.502   3.371  15.813  0.6916  0.2814  0.9763
 5138TIP3   OH236828   2.374   4.208   4.684  0.4545 -0.0738  0.0892
 5138TIP3    H136829   2.405   4.230   4.772 -0.5006 -2.3284  1.0641
 5138TIP3    H236830   2.365   4.293   4.640  0.1307  1.2016  2.4366
 5139TIP3   OH236831   3.765   5.207  17.047  0.1953  0.2034 -0.4983
 5139TIP3    H136832   3.710   5.211  16.969 -0.5399 -1.7715 -0.1531
 5139TIP3    H236833   3.706   5.181  17.117  1.2013 -0.0002  0.3030
 5140TIP3   OH236834   4.749   3.666  16.845 -0.3588 -0.5600  0.1044
 5140TIP3    H136835   4.672   3.709  16.882 -0.6841 -0.7285 -0.3649
 5140TIP3    H236836   4.767   3.716  16.765  1.0425  0.5478  1.0442
 5141TIP3   OH236837   0.190   0.764  15.694  0.2232  0.4180 -0.2845
 5141TIP3    H136838   0.243   0.722  15.626 -1.8206  0.6325 -2.1215
 5141TIP3    H236839   0.242   0.839  15.723  1.2964  0.1220 -1.3765
 5142TIP3   OH236840   1.791   1.978   6.309 -0.1201 -0.4202 -0.5162
 5142TIP3    H136841   1.806   1.890   6.343  0.5680  0.1080  0.5899
 5142TIP3    H236842   1.850   2.034   6.360 -2.9074  1.1867  1.1443
 5143TIP3   OH236843   4.920   1.248  11.453 -0.3337  0.3556  0.3009
 5143TIP3    H136844   4.892   1.336  11.479 -0.1830  1.1892 -2.0662
 5143TIP3    H236845   4.935   1.255  11.359  0.1402 -2.1142  0.1248
 5144TIP3   OH236846   1.209   3.579  11.851 -0.0455  0.2038  0.1217
 5144TIP3    H136847   1.146   3.538  11.792  1.3330 -1.2063 -0.4378
 5144TIP3    H236848   1.278   3.612  11.794  2.7889 -3.7226  0.8691
 5145TIP3   OH236849   0.150   1.224  16.787 -0.1020 -0.3882 -0.3921
 5145TIP3    H136850   0.057   1.222  16.808  0.1566 -1.8009  0.8291
 5145TIP3    H236851   0.180   1.135  16.804  1.7535  0.3763  0.6755
 5146TIP3   OH236852   3.327   2.446  13.340  0.2235 -0.2235 -0.3343
 5146TIP3    H136853   3.344   2.509  13.270 -1.1396  0.0083 -0.4848
 5146TIP3    H236854   3.335   2.497  13.420  2.8020 -0.7038 -0.1850
 5147TIP3   OH236855   0.045   3.276  16.200 -0.2159 -0.5101 -0.0054
 5147TIP3    H136856  -0.044   3.256  16.228 -0.8439  2.0463  0.0366
 5147TIP3    H236857   0.090   3.307  16.279  0.1346 -0.0150 -0.3879
 5148TIP3   OH236858   3.002   0.519   3.690  0.5375  0.3022  0.1362
 5148TIP3    H136859   2.972   0.608   3.676 -0.5641  0.0247  0.6656
 5148TIP3    H236860   3.092   0.528   3.720  0.7543  1.1820 -0.7350
 5149TIP3   OH236861   1.017   4.172   2.622  1.1029  0.4997  0.1446
 5149TIP3    H136862   1.101   4.166   2.576  0.7672 -0.8849 -0.3363
 5149TIP3    H236863   0.959   4.113   2.573  0.2217  0.4165  1.2623
 5150TIP3   OH236864   1.077   1.696   2.108 -0.3723 -0.7790  0.1425
 5150TIP3    H136865   1.066   1.789   2.128  1.9773 -0.7180  1.5993
 5150TIP3    H236866   1.169   1.679   2.127 -0.6880 -3.3623 -0.3291
 5151TIP3   OH236867   1.874   6.685  13.903 -0.1117 -0.0741  0.4778
 5151TIP3    H136868   1.906   6.695  13.814  1.7555  0.1912  1.1255
 5151TIP3    H236869   1.792   6.735  13.906  0.1757  0.5097 -0.8801
 5152TIP3   OH236870   4.598   4.350   0.206 -0.2468 -0.7153 -0.7196
 5152TIP3    H136871   4.557   4.278   0.157  0.6407 -2.4480  0.9696
 5152TIP3    H236872   4.644   4.401   0.139 -2.0689 -0.8501 -2.1444
 5153TIP3   OH236873   5.076   4.401  15.894 -0.0806 -0.1820  0.0363
 5153TIP3    H136874   5.020   4.437  15.963 -0.2722 -1.9482  0.8618
 5153TIP3    H236875   5.021   4.337  15.849  0.6899 -0.5733 -0.3797
 5154TIP3   OH236876   6.574   5.574   1.695 -0.2288  0.3686 -0.1694
 5154TIP3    H136877   6.551   5.647   1.638 -0.8092 -0.9526 -1.7355
 5154TIP3    H236878   6.635   5.522   1.643  0.8596  0.1807  1.2515
 5155TIP3   OH236879   2.923   3.494   6.615  0.3959 -0.0996 -0.4296
 5155TIP3    H136880   2.950   3.582   6.640 -1.3509  0.7186 -1.2589
 5155TIP3    H236881   2.969   3.436   6.676  1.1637  1.3980  0.4676
 5156TIP3   OH236882   3.517   1.023  12.345  0.3732  0.0064 -0.4924
 5156TIP3    H136883   3.583   1.079  12.304  1.5148 -0.9779 -0.0604
 5156TIP3    H236884   3.483   0.970  12.273 -0.0273  0.5786 -0.7312
 5157TIP3   OH236885   3.589   2.023   1.434 -0.0265 -0.4290 -0.2951
 5157TIP3    H136886   3.575   2.037   1.527 -1.7601  0.9268 -0.7099
 5157TIP3    H236887   3.517   2.070   1.391 -0.1534 -2.2275 -2.2672
 5158TIP3   OH236888   5.582   0.907   4.321 -0.2178  0.4102  0.3928
 5158TIP3    H136889   5.673   0.937   4.318 -0.2352  0.4180 -0.3643
 5158TIP3    H236890   5.587   0.818   4.356 -0.0816  0.9649  1.8230
 5159TIP3   OH236891   0.032   3.914  14.228 -0.8238 -0.0015 -0.3346
 5159TIP3    H136892   0.010   3.866  14.149 -2.2682 -0.2741  0.2050
 5159TIP3    H236893   0.021   4.006  14.205 -2.0173 -0.1081 -0.2514
 5160TIP3   OH236894   6.007   2.163  11.985  0.3292  0.4593  0.3797
 5160TIP3    H136895   6.087   2.113  11.994 -1.6598 -3.1805 -0.1726
 5160TIP3    H236896   5.983   2.154  11.893 -1.0794  0.7694  0.6806
 5161TIP3   OH236897   1.122   4.015   5.535  0.1232  0.3405 -0.7681
 5161TIP3    H136898   1.110   3.921   5.550  1.2201  0.0264 -1.7297
 5161TIP3    H236899   1.183   4.043   5.602 -1.0118  0.6134  0.1841
 5162TIP3   OH236900   1.583   4.679  15.672 -0.0778  0.3206  0.4213
 5162TIP3    H136901   1.574   4.623  15.595  0.6685 -1.1272  1.3292
 5162TIP3    H236902   1.677   4.679  15.691 -0.1601  1.2585  0.9098
 5163TIP3   OH236903   2.769   4.167  12.809 -0.3512 -0.2001 -0.5333
 5163TIP3    H136904   2.743   4.236  12.869 -0.4424  0.0064 -0.8074
 5163TIP3    H236905   2.777   4.089  12.864  0.6332  0.2141 -0.0743
 5164TIP3   OH236906   6.344   0.393   2.092 -0.3076  0.6984  0.5041
 5164TIP3    H136907   6.365   0.486   2.098 -1.5275  0.9984  0.2296
 5164TIP3    H236908   6.418   0.355   2.044 -0.4687  1.7710 -0.6286
 5165TIP3   OH236909   1.445   0.947   0.854 -0.1441 -0.6218  0.6983
 5165TIP3    H136910   1.513   0.881   0.840 -0.1752 -0.6218  0.5460
 5165TIP3    H236911   1.405   0.959   0.767  0.4657  0.2624  0.5224
 5166TIP3   OH236912   6.129   1.266   4.638  0.4858 -0.1048 -0.1001
 5166TIP3    H136913   6.105   1.287   4.728  0.5486 -1.5035  0.2674
 5166TIP3    H236914   6.050   1.283   4.587  0.9493  2.4494 -0.1319
 5167TIP3   OH236915   0.051   1.700   0.904 -0.0461 -0.2630 -0.2408
 5167TIP3    H136916   0.090   1.776   0.945 -0.8612  0.0811 -0.0785
 5167TIP3    H236917   0.049   1.721   0.810  0.6431 -0.5079 -0.3103
 5168TIP3   OH236918   3.498   4.265  12.970 -0.0858 -0.0228  0.5619
 5168TIP3    H136919   3.436   4.324  12.927  0.8815  0.3215 -0.4192
 5168TIP3    H236920   3.478   4.179  12.934  0.7447  0.2695 -0.6831
 5169TIP3   OH236921   4.238   6.519   0.136  0.1639 -0.2903  0.0473
 5169TIP3    H136922   4.169   6.579   0.108  0.0851 -0.1277  0.5906
 5169TIP3    H236923   4.315   6.544   0.084  0.0806  0.1582  0.1403
 5170TIP3   OH236924   1.209   3.491  11.339  0.1749  0.0178  0.3226
 5170TIP3    H136925   1.239   3.470  11.251  0.4032  2.7509 -0.3257
 5170TIP3    H236926   1.288   3.512  11.388 -0.0081 -0.8726  1.0482
 5171TIP3   OH236927   0.897   0.049   3.997  0.8007 -0.0936  0.3501
 5171TIP3    H136928   0.861   0.029   4.084 -1.3127 -0.4285 -0.5256
 5171TIP3    H236929   0.819   0.066   3.943  2.1174  2.4051 -0.9587
 5172TIP3   OH236930   5.375   0.306   0.640 -0.0350 -0.0010  0.8440
 5172TIP3    H136931   5.382   0.317   0.735 -1.4035  1.1901  0.8420
 5172TIP3    H236932   5.295   0.354   0.616  0.8362  0.6042 -1.0490
 5173TIP3   OH236933   4.521   6.664   1.732 -0.2721 -0.1260 -0.7832
 5173TIP3    H136934   4.440   6.716   1.734  0.2159  0.6527  1.3336
 5173TIP3    H236935   4.556   6.677   1.644 -1.3927  1.2083 -1.0651
 5174TIP3   OH236936   4.634   4.362   1.822 -0.6170 -0.3907  0.2536
 5174TIP3    H136937   4.615   4.392   1.733  2.7743  1.1213 -0.1038
 5174TIP3    H236938   4.648   4.268   1.814  0.2180 -0.1846 -0.9588
 5175TIP3   OH236939   5.337   4.966  13.553 -0.3294 -0.2515 -0.2028
 5175TIP3    H136940   5.375   4.921  13.477  0.1061 -1.5111  0.7271
 5175TIP3    H236941   5.243   4.953  13.544 -0.2009 -1.5721  0.1525
 5176TIP3   OH236942   4.452   0.065   5.594  0.3895  0.1717  0.3447
 5176TIP3    H136943   4.492   0.152   5.599  0.2612  0.3729 -1.4598
 5176TIP3    H236944   4.388   0.072   5.523 -2.7327 -0.2234  2.8946
 5177TIP3   OH236945   1.554   3.339  15.102  0.0789  0.4963 -0.5732
 5177TIP3    H136946   1.560   3.316  15.194 -0.6241  0.4211 -0.5457
 5177TIP3    H236947   1.626   3.291  15.061 -1.0731 -1.4093 -0.4537
 5178TIP3   OH236948   5.103   1.831  14.527  0.2274 -0.2207 -0.3280
 5178TIP3    H136949   5.192   1.796  14.528  0.3212 -0.0663 -1.4571
 5178TIP3    H236950   5.113   1.924  14.548  0.1874 -0.4599  0.7808
 5179TIP3   OH236951   0.025   2.948  13.656  0.0868  0.1969 -0.1066
 5179TIP3    H136952   0.024   2.955  13.561  0.8030 -0.8699 -0.1987
 5179TIP3    H236953  -0.038   2.879  13.676  1.9941 -1.6245 -0.0275
 5180TIP3   OH236954   4.585   4.464   3.594  0.2151 -0.8200 -0.7474
 5180TIP3    H136955   4.516   4.476   3.528  0.3065  0.1138 -0.6757
 5180TIP3    H236956   4.666   4.462   3.544  0.1909 -1.3436 -0.7740
 5181TIP3   OH236957   0.568   2.154  13.525  0.6481 -0.1363  0.2572
 5181TIP3    H136958   0.589   2.079  13.468 -0.3396  0.2029 -0.5970
 5181TIP3    H236959   0.567   2.229  13.466  0.5466  0.3798  0.9038
 5182TIP3   OH236960   3.234   3.974   5.723  0.0900 -0.3473 -0.3071
 5182TIP3    H136961   3.257   3.929   5.804 -0.5381 -1.1754 -0.5730
 5182TIP3    H236962   3.183   4.049   5.751 -0.9020 -1.1288  0.0344
 5183TIP3   OH236963   6.305   3.660  11.510  0.6712 -0.2012 -0.5401
 5183TIP3    H136964   6.233   3.690  11.455 -0.1028 -1.6784 -0.3790
 5183TIP3    H236965   6.378   3.648  11.448 -0.4751 -2.8558 -1.5396
 5184TIP3   OH236966   4.882   1.451   1.075  0.1048  0.5080 -0.8166
 5184TIP3    H136967   4.835   1.534   1.079 -1.2666 -0.2866  0.6424
 5184TIP3    H236968   4.871   1.422   0.984  0.2180  1.6901 -1.2255
 5185TIP3   OH236969   1.608   0.685  11.726 -0.4425  0.2385 -0.4861
 5185TIP3    H136970   1.637   0.651  11.641 -0.2682  0.9073 -0.7023
 5185TIP3    H236971   1.670   0.648  11.789  0.4178  1.0221 -0.8500
 5186TIP3   OH236972   2.120   3.625   1.407  0.1104  0.4480 -0.3201
 5186TIP3    H136973   2.156   3.567   1.340 -1.8426 -2.2585  0.8237
 5186TIP3    H236974   2.186   3.694   1.416  2.2766 -1.2224 -2.1989
 5187TIP3   OH236975   2.608   1.736  13.284 -0.1349  0.3842 -0.2653
 5187TIP3    H136976   2.657   1.699  13.211 -1.9287 -0.1007 -1.2928
 5187TIP3    H236977   2.668   1.731  13.358  1.5536  0.3856 -1.5689
 5188TIP3   OH236978   1.214   2.251   1.845  0.2438 -0.1630 -0.0092
 5188TIP3    H136979   1.205   2.184   1.777  0.9986 -3.8725  3.1821
 5188TIP3    H236980   1.126   2.260   1.883  0.3253 -0.0383  0.1547
 5189TIP3   OH236981   6.446   1.517  15.382 -0.3196  0.0965  0.3350
 5189TIP3    H136982   6.370   1.480  15.337 -1.1655  1.3208  0.7057
 5189TIP3    H236983   6.462   1.458  15.455 -1.3952  0.2123  0.6855
 5190TIP3   OH236984   3.974   2.853   0.801 -0.1856 -0.0903  0.0531
 5190TIP3    H136985   4.011   2.839   0.888  0.9922 -0.3655 -0.4646
 5190TIP3    H236986   3.928   2.771   0.781  2.6962 -1.5789 -1.0450
 5191TIP3   OH236987   0.699   5.488  17.513 -0.7451  0.3059  0.2969
 5191TIP3    H136988   0.737   5.401  17.497 -0.8226  0.2133  0.5948
 5191TIP3    H236989   0.617   5.487  17.464 -0.2236  0.6213 -0.5999
 5192TIP3   OH236990   1.842   5.762   3.923  0.9946 -0.0306 -0.3475
 5192TIP3    H136991   1.801   5.676   3.926  0.7940  0.0290 -1.0232
 5192TIP3    H236992   1.909   5.760   3.991 -0.7295  0.1976  1.4481
 5193TIP3   OH236993   4.939   4.642   0.783 -0.0260 -0.0809  0.0053
 5193TIP3    H136994   4.850   4.608   0.785  0.1140 -0.6683 -1.8371
 5193TIP3    H236995   4.955   4.661   0.690  1.4458  0.8596  0.4284
 5194TIP3   OH236996   3.134   4.955  12.452 -0.1781  0.6334 -0.3618
 5194TIP3    H136997   3.124   4.913  12.367  1.4470  0.2452 -0.3957
 5194TIP3    H236998   3.144   4.882  12.514 -1.8792  0.8968  0.2578
 5195TIP3   OH236999   3.312   3.851   3.511  0.4155 -0.9207 -0.3126
 5195TIP3    H137000   3.360   3.916   3.459  2.2316 -1.7352  0.2410
 5195TIP3    H237001   3.239   3.899   3.548  0.5321  0.2900 -1.5604
 5196TIP3   OH237002   4.289   2.181  15.879 -0.5940  0.2340 -0.0973
 5196TIP3    H137003   4.275   2.265  15.922  0.7789  1.0909 -1.2125
 5196TIP3    H237004   4.255   2.193  15.791 -0.8034 -0.5404 -0.1292
 5197TIP3   OH237005   6.479   3.332   1.712  0.4338  0.1955  1.1501
 5197TIP3    H137006   6.553   3.367   1.662  1.4630 -1.8413  1.1521
 5197TIP3    H237007   6.514   3.315   1.799 -0.4622  0.6269  1.6112
 5198TIP3   OH237008   0.320   1.463  16.825  0.4057 -0.0745  0.1317
 5198TIP3    H137009   0.251   1.504  16.878  1.2522  3.0859 -0.9941
 5198TIP3    H237010   0.275   1.430  16.748 -0.1143  0.3385  0.2527
 5199TIP3   OH237011   3.842   0.559  13.292  0.1099 -0.2435  0.2416
 5199TIP3    H137012   3.835   0.609  13.373 -1.5655  0.1124 -0.0943
 5199TIP3    H237013   3.752   0.541  13.267  0.5924 -0.2811 -1.5998
 5200TIP3   OH237014   0.918   2.088   4.667  0.7254 -0.0687 -0.5091
 5200TIP3    H137015   0.873   2.158   4.619 -0.4933 -0.4310  0.0703
 5200TIP3    H237016   0.928   2.123   4.756  0.7774 -0.3353 -0.4109
 5201TIP3   OH237017   2.156   0.884  11.157 -0.3090 -0.1968 -0.3758
 5201TIP3    H137018   2.198   0.853  11.077  0.8452  0.0655  0.1037
 5201TIP3    H237019   2.222   0.939  11.199 -1.0648  0.0602  0.5230
 5202TIP3   OH237020   1.054   6.585  14.431 -0.0839 -0.0308 -0.5036
 5202TIP3    H137021   1.149   6.576  14.440 -0.3940 -2.4404  1.4477
 5202TIP3    H237022   1.042   6.641  14.354  2.9066  1.7849  0.2097
 5203TIP3   OH237023   2.417   5.662   3.797 -0.3684 -0.2635 -0.5714
 5203TIP3    H137024   2.483   5.652   3.728 -0.1780 -2.2284 -0.1564
 5203TIP3    H237025   2.465   5.654   3.879 -0.9410 -0.5134 -0.2482
 5204TIP3   OH237026   6.203   3.888   3.552  0.0215 -0.2867 -0.2718
 5204TIP3    H137027   6.231   3.798   3.573 -0.4311 -0.3412  0.1070
 5204TIP3    H237028   6.108   3.884   3.552 -0.0397 -0.3921 -2.8356
 5205TIP3   OH237029   1.105   3.582   0.771 -0.7532  0.1365 -0.3336
 5205TIP3    H137030   1.138   3.498   0.802 -1.3246  0.3591  0.9486
 5205TIP3    H237031   1.023   3.594   0.820  0.1355  2.1929  0.7230
 5206TIP3   OH237032   3.085   2.697  12.290  1.5059  0.1234  0.1297
 5206TIP3    H137033   3.173   2.668  12.313  1.3099 -0.1112  0.5920
 5206TIP3    H237034   3.034   2.684  12.369  0.0253 -3.7790 -1.2448
 5207TIP3   OH237035   5.278   1.774  11.431 -0.4953  0.1401  0.6419
 5207TIP3    H137036   5.258   1.751  11.341  0.4478 -0.9242  0.6761
 5207TIP3    H237037   5.246   1.864  11.441 -0.8089  0.1938 -0.6778
 5208TIP3   OH237038   3.119   2.781  14.717  0.0394  0.2545 -0.2333
 5208TIP3    H137039   3.170   2.786  14.798 -1.7829  1.3314  0.9425
 5208TIP3    H237040   3.180   2.748  14.652  1.1402 -2.3914  1.9344
 5209TIP3   OH237041   4.723   4.127   2.639 -0.3051 -0.0391 -0.4480
 5209TIP3    H137042   4.803   4.130   2.691  0.1562 -0.5006 -1.1230
 5209TIP3    H237043   4.752   4.111   2.550 -0.9693  2.3608 -1.1709
 5210TIP3   OH237044   0.315   0.439  12.556 -0.1254  0.0857 -0.3286
 5210TIP3    H137045   0.274   0.482  12.632  1.6221  0.8367  0.2211
 5210TIP3    H237046   0.335   0.351  12.588 -0.0840  0.1508 -0.1737
 5211TIP3   OH237047   4.122   4.075   3.735 -0.0140 -0.4438  0.0433
 5211TIP3    H137048   4.156   4.123   3.811 -1.0705  0.2223  0.1142
 5211TIP3    H237049   4.185   4.005   3.721  1.4589  0.8190  0.0933
 5212TIP3   OH237050   5.733   5.561  15.162 -0.4096  0.3484 -0.4216
 5212TIP3    H137051   5.685   5.641  15.183 -1.5572 -0.3638 -0.2445
 5212TIP3    H237052   5.782   5.541  15.242 -0.7746  0.4186 -0.1771
 5213TIP3   OH237053   6.016   1.146   5.342 -0.1064 -0.3919 -0.3684
 5213TIP3    H137054   6.044   1.137   5.433  0.6936  2.7563 -0.1853
 5213TIP3    H237055   6.075   1.089   5.293  0.8390 -0.5345  0.8857
 5214TIP3   OH237056   3.769   0.889   5.191  0.0948 -0.0506 -0.1389
 5214TIP3    H137057   3.726   0.972   5.169  1.9879  0.9347 -0.2902
 5214TIP3    H237058   3.746   0.874   5.283  0.4469  1.1419  0.1732
 5215TIP3   OH237059   3.468   3.241   4.826 -0.3988  0.3578  0.4571
 5215TIP3    H137060   3.542   3.183   4.809 -0.3628  0.7330 -0.7712
 5215TIP3    H237061   3.461   3.295   4.747  0.6112  3.2005  2.1686
 5216TIP3   OH237062   2.067   6.664  14.949 -0.3052 -0.4962  0.1866
 5216TIP3    H137063   2.038   6.755  14.957 -1.4829 -0.5955 -1.9379
 5216TIP3    H237064   2.004   6.614  15.000  0.2610 -0.1476  1.2430
 5217TIP3   OH237065   1.780   0.827  12.494 -0.7163  0.0701 -0.6494
 5217TIP3    H137066   1.787   0.909  12.445 -1.8723  0.5669 -0.0458
 5217TIP3    H237067   1.866   0.787  12.487  0.1248  1.7159 -0.3110
 5218TIP3   OH237068   2.850   1.547  15.292 -0.0733 -0.6732 -0.1348
 5218TIP3    H137069   2.838   1.620  15.233  1.9601 -1.1340 -1.1982
 5218TIP3    H237070   2.816   1.471  15.244  0.8519 -0.9244 -0.4040
 5219TIP3   OH237071   0.074   2.974   0.253  0.1236 -0.3367  0.1210
 5219TIP3    H137072  -0.018   2.953   0.268  0.0972  0.6378  1.5526
 5219TIP3    H237073   0.074   3.066   0.227  0.7108 -0.2318  0.4646
 5220TIP3   OH237074   2.464   0.887  17.358  0.5330  0.1873  0.0417
 5220TIP3    H137075   2.390   0.908  17.301  1.0888  2.0748 -0.0382
 5220TIP3    H237076   2.541   0.922  17.313  1.2653 -0.2085  0.9410
 5221TIP3   OH237077   5.810   5.853  13.531  0.2306 -0.3059  0.5340
 5221TIP3    H137078   5.862   5.788  13.484  0.2032 -0.0172  0.0870
 5221TIP3    H237079   5.844   5.937  13.500 -1.6766 -0.0690 -1.2079
 5222TIP3   OH237080   5.592   0.732   3.198  0.3538  0.3075 -0.5034
 5222TIP3    H137081   5.656   0.802   3.198  0.8031 -0.0909  0.3076
 5222TIP3    H237082   5.644   0.652   3.193 -0.1808  0.0263 -2.3452
 5223TIP3   OH237083   5.109   0.955  13.904  0.0713 -0.4777 -0.0973
 5223TIP3    H137084   5.112   1.023  13.970  0.8745 -1.8932  1.3986
 5223TIP3    H237085   5.017   0.928  13.901 -0.3885  1.0846 -1.2120
 5224TIP3   OH237086   6.479   5.646  16.727  0.3782  0.2949  0.0178
 5224TIP3    H137087   6.491   5.687  16.812 -0.0533 -0.1340  0.2910
 5224TIP3    H237088   6.549   5.683  16.672  1.0508  0.1051  0.7291
 5225TIP3   OH237089   0.993   4.657  15.212  0.4065 -0.3094 -1.0306
 5225TIP3    H137090   0.906   4.668  15.251  1.1576 -1.5101  1.0952
 5225TIP3    H237091   1.011   4.742  15.171 -1.0927  0.5091 -0.0926
 5226TIP3   OH237092   2.252   4.603   3.064  0.2590 -0.2770  0.0450
 5226TIP3    H137093   2.254   4.683   3.013 -0.5385 -1.0152 -1.1873
 5226TIP3    H237094   2.159   4.581   3.072  0.4915 -1.4042 -0.1854
 5227TIP3   OH237095   0.396   2.362   1.122 -0.0139 -0.0629  0.9377
 5227TIP3    H137096   0.438   2.448   1.127  1.1408 -0.4545 -1.0048
 5227TIP3    H237097   0.389   2.345   1.028  0.5063 -2.4503  1.2895
 5228TIP3   OH237098   0.000   1.586  14.561 -0.2147 -0.2307 -0.2963
 5228TIP3    H137099  -0.031   1.625  14.642 -0.9960 -0.3751 -0.5191
 5228TIP3    H237100   0.006   1.659  14.499 -0.8032 -0.3115 -0.4544
 5229TIP3   OH237101   0.977   1.502  16.734 -0.1300  0.5924 -0.6382
 5229TIP3    H137102   0.887   1.479  16.759 -0.4572  1.7307 -0.7039
 5229TIP3    H237103   1.014   1.544  16.812 -0.8905  3.4224 -1.6601
 5230TIP3   OH237104   3.611   4.006  17.037 -0.0085  0.2945 -0.2317
 5230TIP3    H137105   3.608   4.087  17.089  2.3800  1.8336 -2.2685
 5230TIP3    H237106   3.572   4.031  16.953 -0.4956 -1.1054 -0.4416
 5231TIP3   OH237107   2.868   6.266  14.933 -0.5924 -0.1875  0.4154
 5231TIP3    H137108   2.863   6.174  14.957  0.4264 -0.4779 -0.3785
 5231TIP3    H237109   2.955   6.275  14.893 -1.3450  0.7398 -1.0803
 5232TIP3   OH237110   3.196   0.770  11.624  0.1370 -0.1027  0.2333
 5232TIP3    H137111   3.209   0.683  11.586 -0.2928  0.5901 -1.6354
 5232TIP3    H237112   3.211   0.830  11.551  0.9675  1.4425  1.6091
 5233TIP3   OH237113   0.769   6.225  15.310 -0.4434  0.4079 -0.2590
 5233TIP3    H137114   0.738   6.184  15.391 -1.5227  0.7870 -0.4659
 5233TIP3    H237115   0.833   6.163  15.275  0.9000  0.7519  1.4458
 5234TIP3   OH237116   0.207   1.430  17.555 -0.3881  0.2583  0.5871
 5234TIP3    H137117   0.268   1.487  17.602  0.4562 -0.0878 -0.0698
 5234TIP3    H237118   0.212   1.346  17.602  0.7494 -0.2069 -0.3077
 5235TIP3   OH237119   2.505   0.864  15.425  0.0732  0.1702  0.5055
 5235TIP3    H137120   2.517   0.770  15.407  0.1022  0.0913  0.9120
 5235TIP3    H237121   2.514   0.906  15.340 -0.1500 -0.2175  0.2847
 5236TIP3   OH237122   4.209   5.279   5.055  0.3755 -0.1433 -0.2274
 5236TIP3    H137123   4.233   5.367   5.024  1.7517 -0.1777  0.6713
 5236TIP3    H237124   4.177   5.234   4.977 -0.5685  1.2183 -0.6690
 5237TIP3   OH237125   3.898   6.287   5.387  1.0039 -0.3814  0.6252
 5237TIP3    H137126   3.878   6.251   5.473 -0.7063 -0.6762  0.1409
 5237TIP3    H237127   3.834   6.246   5.328  0.4957  1.6422 -0.3398
 5238TIP3   OH237128   2.965   5.100  11.614 -0.2196 -0.4030 -0.0943
 5238TIP3    H137129   2.930   5.087  11.702  0.3770 -0.9766  0.0731
 5238TIP3    H237130   2.898   5.066  11.556 -0.4645 -0.3530  0.1598
 5239TIP3   OH237131   6.143   4.902   5.910  0.2733 -0.1145 -0.3745
 5239TIP3    H137132   6.114   4.848   5.837 -0.5270  0.4662 -0.5130
 5239TIP3    H237133   6.097   4.985   5.897  0.1450  0.0090  0.7675
 5240TIP3   OH237134   5.878   0.226   5.677  0.4272 -0.2767 -0.9100
 5240TIP3    H137135   5.950   0.237   5.739  0.4631 -0.2142 -0.9624
 5240TIP3    H237136   5.849   0.316   5.658  1.5018 -0.1860 -2.2653
 5241TIP3   OH237137   4.017   4.557  14.143  0.1177 -0.1329 -0.5849
 5241TIP3    H137138   4.100   4.510  14.139  0.2629  0.1279 -0.6925
 5241TIP3    H237139   3.963   4.507  14.203 -0.3760 -1.4576 -2.0688
 5242TIP3   OH237140   5.479   5.483  12.721 -0.0859  0.8382  0.0124
 5242TIP3    H137141   5.550   5.546  12.733 -0.6533  1.8070 -1.4002
 5242TIP3    H237142   5.410   5.533  12.678 -0.0940 -0.9942 -2.3363
 5243TIP3   OH237143   4.546   2.483   1.224  0.3457 -0.7300  0.0570
 5243TIP3    H137144   4.549   2.528   1.309 -1.0343 -1.7284  0.6671
 5243TIP3    H237145   4.547   2.554   1.160 -0.6382  0.1430  0.9616
 5244TIP3   OH237146   3.399   2.633  11.673 -0.0238  0.0346  0.3015
 5244TIP3    H137147   3.368   2.563  11.730 -1.1217  1.4530  1.5382
 5244TIP3    H237148   3.346   2.625  11.594  0.7822 -1.3066 -0.1389
 5245TIP3   OH237149   1.668   6.209   1.924 -0.1736 -0.7787 -0.0650
 5245TIP3    H137150   1.673   6.263   1.845  0.6995  0.6877  0.9480
 5245TIP3    H237151   1.698   6.123   1.897 -2.2088 -1.0046 -1.8807
 5246TIP3   OH237152   4.369   0.822  14.857 -0.3523  0.1891 -0.3119
 5246TIP3    H137153   4.340   0.867  14.937  1.5320 -1.2366  1.2766
 5246TIP3    H237154   4.437   0.879  14.820  1.7132 -0.9918  1.4491
 5247TIP3   OH237155   1.980   3.640   4.610  0.3597 -0.2746  1.0165
 5247TIP3    H137156   1.894   3.680   4.612  0.8532  0.9167 -0.0164
 5247TIP3    H237157   1.963   3.546   4.600 -0.8213  0.0629 -0.5289
 5248TIP3   OH237158   5.779   2.882   4.971  0.1547 -0.4101 -0.1492
 5248TIP3    H137159   5.865   2.909   4.938  0.3947  0.0862  0.8262
 5248TIP3    H237160   5.792   2.873   5.066 -1.2481  1.2661  0.2482
 5249TIP3   OH237161   5.607   6.172   2.062  0.4095 -0.1944 -0.1835
 5249TIP3    H137162   5.613   6.231   2.137 -1.0724  0.2496 -0.3770
 5249TIP3    H237163   5.698   6.151   2.040  0.9657  1.7996  0.0476
 5250TIP3   OH237164   5.180   4.894  15.374  0.0625  0.4512  0.2357
 5250TIP3    H137165   5.133   4.820  15.412  0.2137  0.1075 -0.2398
 5250TIP3    H237166   5.267   4.859  15.354  0.3272  0.9164  0.5525
 5251TIP3   OH237167   4.377   3.055   1.486  0.1675  0.0818  0.6930
 5251TIP3    H137168   4.398   3.011   1.404  0.3812  1.3308  0.0522
 5251TIP3    H237169   4.290   3.023   1.509 -0.1895  0.2288 -0.3864
 5252TIP3   OH237170   6.607   4.735  17.263  0.2909 -0.1077 -0.4178
 5252TIP3    H137171   6.579   4.812  17.215  0.3620 -0.3462 -0.8433
 5252TIP3    H237172   6.538   4.671  17.248  0.3162 -0.1862 -0.2078
 5253TIP3   OH237173   4.717   0.965  15.555  0.5830 -0.4766  0.0386
 5253TIP3    H137174   4.764   1.049  15.553 -0.0736 -0.0642  1.0584
 5253TIP3    H237175   4.649   0.978  15.622  0.9037 -2.0531  0.6969
 5254TIP3   OH237176   2.286   3.332  12.477 -0.6319  0.3052 -0.1800
 5254TIP3    H137177   2.304   3.387  12.401 -2.0014  1.8380  0.5202
 5254TIP3    H237178   2.191   3.339  12.489 -0.6510 -1.1181  0.7911
 5255TIP3   OH237179   2.968   1.522  16.225 -0.1702  0.0849 -0.2000
 5255TIP3    H137180   2.924   1.439  16.208  0.6887 -0.8382  1.7030
 5255TIP3    H237181   2.903   1.575  16.271 -0.0584 -0.3902  0.5275
 5256TIP3   OH237182   3.178   1.471   4.461  0.7670  0.0498  0.1650
 5256TIP3    H137183   3.164   1.435   4.374 -2.4836  1.3167  0.0108
 5256TIP3    H237184   3.196   1.395   4.516 -0.5246 -1.2217 -1.0695
 5257TIP3   OH237185   5.280   0.888  13.700  0.0958 -0.3611 -0.6219
 5257TIP3    H137186   5.226   0.933  13.765 -1.6780 -0.6659 -1.8422
 5257TIP3    H237187   5.335   0.829  13.752 -1.0962 -0.4114  0.6345
 5258TIP3   OH237188   4.631   2.804  12.370 -0.8528 -0.5175 -0.1924
 5258TIP3    H137189   4.641   2.803  12.466  2.0067  0.0361 -0.3958
 5258TIP3    H237190   4.686   2.732  12.340 -1.1395 -0.2115 -1.4847
 5259TIP3   OH237191   6.582   3.011   2.060 -0.0032  0.3538  0.4414
 5259TIP3    H137192   6.592   2.920   2.089  0.3260 -0.2591 -1.5093
 5259TIP3    H237193   6.653   3.057   2.105  0.6811 -0.6238  0.4108
 5260TIP3   OH237194   5.724   2.152   6.105  0.3911 -0.1884 -0.3691
 5260TIP3    H137195   5.806   2.201   6.112  0.7056 -0.8440  1.0382
 5260TIP3    H237196   5.745   2.066   6.142 -0.7800 -0.5612 -0.5278
 5261TIP3   OH237197   5.607   0.067   5.065  0.3676 -0.1361 -0.0067
 5261TIP3    H137198   5.567  -0.016   5.041 -1.3039  0.5204  0.3492
 5261TIP3    H237199   5.681   0.043   5.122 -1.9101 -1.3445  2.6712
 5262TIP3   OH237200   2.232   2.730   5.632  0.0941  0.0398  0.5706
 5262TIP3    H137201   2.166   2.712   5.698  0.5351 -0.4558  0.8827
 5262TIP3    H237202   2.315   2.713   5.676  0.4455  0.8980  0.2584
 5263TIP3   OH237203   5.301   6.468   2.712 -0.2070 -0.6837 -0.3932
 5263TIP3    H137204   5.357   6.411   2.659  0.3566 -1.5251  1.0710
 5263TIP3    H237205   5.222   6.416   2.727 -0.7650 -0.0805 -1.1792
 5264TIP3   OH237206   1.530   5.658   1.523  0.0538 -0.4544 -0.0538
 5264TIP3    H137207   1.543   5.710   1.444  1.9618  0.1648  0.6214
 5264TIP3    H237208   1.607   5.675   1.577 -0.8955 -1.3408  1.6898
 5265TIP3   OH237209   3.161   6.521   4.338  0.3217  0.0840  0.3651
 5265TIP3    H137210   3.148   6.459   4.410  1.3463 -0.2978  0.2288
 5265TIP3    H237211   3.073   6.538   4.305 -0.0584 -0.5347  1.0403
 5266TIP3   OH237212   4.596   0.899   0.096  0.6345 -0.3628  0.1165
 5266TIP3    H137213   4.509   0.892   0.058  0.2562 -4.0396  1.3168
 5266TIP3    H237214   4.653   0.855   0.033  1.7060  1.8599 -0.5747
 5267TIP3   OH237215   5.843   5.297  15.460 -0.9479  0.2309 -0.0958
 5267TIP3    H137216   5.886   5.225  15.507 -1.6850  0.4846  0.9860
 5267TIP3    H237217   5.756   5.264  15.438 -0.9100  0.4193 -0.5566
 5268TIP3   OH237218   0.522   6.514   3.274  0.0851 -0.2899  0.2063
 5268TIP3    H137219   0.430   6.486   3.274  0.0826 -0.4150  2.0265
 5268TIP3    H237220   0.570   6.437   3.243 -0.4588  0.0012 -1.4282
 5269TIP3   OH237221   2.638   3.411  12.191  0.3305 -0.0915 -0.2353
 5269TIP3    H137222   2.691   3.369  12.122  0.4323 -0.1758 -0.1059
 5269TIP3    H237223   2.702   3.448  12.251  0.2420 -0.2522 -0.0431
 5270TIP3   OH237224   4.118   5.588   4.020  0.5284 -0.3306  0.0821
 5270TIP3    H137225   4.062   5.538   3.960 -0.7668  1.5991 -0.4231
 5270TIP3    H237226   4.106   5.680   3.993  1.7081  0.3946  1.8374
 5271TIP3   OH237227   0.286   0.843   6.941  0.1801 -0.5705 -0.1585
 5271TIP3    H137228   0.298   0.938   6.930 -0.9873 -0.5437 -1.4702
 5271TIP3    H237229   0.196   0.827   6.914  0.1384 -1.9766  0.7250
 5272TIP3   OH237230   5.258   2.601  15.206  0.2697  0.2466  0.1665
 5272TIP3    H137231   5.166   2.589  15.182  0.3035  0.6299 -0.1674
 5272TIP3    H237232   5.289   2.513  15.229 -0.4944  0.2906  1.4400
 5273TIP3   OH237233   4.500   4.032  12.426  0.5256  0.1688  0.0226
 5273TIP3    H137234   4.458   4.053  12.342 -3.3179 -1.4190  1.3019
 5273TIP3    H237235   4.494   4.112  12.477  0.2720  0.3365 -0.2684
 5274TIP3   OH237236   3.436   4.382   4.607 -0.0754 -0.0704  0.1215
 5274TIP3    H137237   3.526   4.414   4.612  0.1191 -0.5508 -0.2300
 5274TIP3    H237238   3.389   4.433   4.673  0.6810 -0.5466  1.0497
 5275TIP3   OH237239   4.819   5.824  13.758 -0.0567 -0.4571  0.3225
 5275TIP3    H137240   4.770   5.896  13.796  0.0058 -1.3408  2.1827
 5275TIP3    H237241   4.824   5.845  13.665  0.9965  2.5266  0.9476
 5276TIP3   OH237242   5.120   5.617   5.546  0.7324 -0.0208  0.1863
 5276TIP3    H137243   5.110   5.686   5.480  3.2192  0.1212 -0.1359
 5276TIP3    H237244   5.151   5.663   5.624  1.1225 -0.6075  0.3854
 5277TIP3   OH237245   0.753   6.262  12.669  0.1759 -0.6635  0.6384
 5277TIP3    H137246   0.784   6.260  12.760  0.7755  0.5556  0.4815
 5277TIP3    H237247   0.708   6.178  12.657 -0.4291 -0.6044  2.2376
 5278TIP3   OH237248   5.207   5.337  13.689 -0.2856  0.2350  0.1004
 5278TIP3    H137249   5.179   5.329  13.598  0.0554  2.1012 -0.1960
 5278TIP3    H237250   5.276   5.271  13.698  0.0451  0.3881 -1.1489
 5279TIP3   OH237251   0.967   0.971   0.428  0.2306 -0.1789 -0.7004
 5279TIP3    H137252   1.011   0.903   0.378 -0.4941 -1.7764  0.7302
 5279TIP3    H237253   0.897   1.002   0.371 -0.0184 -1.3170 -1.0204
 5280TIP3   OH237254   2.333   4.761   4.382 -0.3136 -0.2457 -0.0747
 5280TIP3    H137255   2.321   4.843   4.335  0.0722 -0.1494 -0.0120
 5280TIP3    H237256   2.428   4.755   4.395 -0.4534 -0.0157  1.1431
 5281TIP3   OH237257   6.174   5.908   2.589 -0.0027 -0.9737  0.0971
 5281TIP3    H137258   6.106   5.895   2.655 -0.7746 -0.5236 -0.5859
 5281TIP3    H237259   6.241   5.960   2.633  1.2713 -3.7619  1.6467
 5282TIP3   OH237260   2.795   4.885  14.204 -0.4422 -0.3391  0.5692
 5282TIP3    H137261   2.746   4.835  14.269 -2.3251  1.2707  0.4788
 5282TIP3    H237262   2.839   4.954  14.254  0.0440 -0.5330  0.4128
 5283TIP3   OH237263   2.844   5.240  16.290  0.3815  0.7897  0.2013
 5283TIP3    H137264   2.830   5.307  16.357  2.4532  0.9763  0.5095
 5283TIP3    H237265   2.915   5.186  16.323 -0.3240 -0.7640 -0.6778
 5284TIP3   OH237266   2.950   2.322   5.469 -0.1617  0.0863  0.1053
 5284TIP3    H137267   2.956   2.267   5.547 -1.0015 -1.1381 -0.6712
 5284TIP3    H237268   3.033   2.370   5.468  0.0575 -0.2168  1.4903
 5285TIP3   OH237269   0.002   3.269   0.291 -0.1551  0.7023 -0.3829
 5285TIP3    H137270  -0.020   3.359   0.314  0.2763  0.6094  0.4139
 5285TIP3    H237271  -0.005   3.220   0.373  0.0298  0.0906 -0.7217
 5286TIP3   OH237272   0.469   0.135   2.288  0.0763  0.6107  0.8039
 5286TIP3    H137273   0.374   0.128   2.281 -0.2775  1.8783  3.1318
 5286TIP3    H237274   0.502   0.112   2.201 -2.3885  0.9643 -0.3070
 5287TIP3   OH237275   3.042   4.356   2.126 -0.8659 -0.2778  0.1272
 5287TIP3    H137276   2.987   4.382   2.200 -1.0014 -1.0350  0.2975
 5287TIP3    H237277   2.982   4.351   2.051 -0.9590 -0.7428  0.2340
 5288TIP3   OH237278   5.528   4.981   3.183 -0.1396  0.6145 -0.1511
 5288TIP3    H137279   5.537   4.898   3.137  1.9642  0.7503 -0.0621
 5288TIP3    H237280   5.571   4.967   3.268 -1.6733  1.1620  0.7636
 5289TIP3   OH237281   5.937   4.489  12.935 -0.0637  0.1485  0.2937
 5289TIP3    H137282   5.972   4.470  12.848 -0.0816 -0.2420  0.3703
 5289TIP3    H237283   5.842   4.482  12.925 -0.0264 -1.0326  0.5985
 5290TIP3   OH237284   0.712   3.483  12.458 -0.2200  0.1276  0.1909
 5290TIP3    H137285   0.746   3.529  12.535  2.4498 -0.7506 -0.3667
 5290TIP3    H237286   0.620   3.467  12.479  0.0332  1.2602  2.5158
 5291TIP3   OH237287   4.977   6.660   4.537  0.3088  0.7244  0.1767
 5291TIP3    H137288   4.886   6.671   4.508  0.0451 -1.3108  0.0411
 5291TIP3    H237289   4.970   6.637   4.630  0.5864 -0.2873 -0.0349
 5292TIP3   OH237290   1.416   4.637  12.213 -0.0795  1.1259  0.2490
 5292TIP3    H137291   1.340   4.695  12.202 -0.4333  0.8326  1.1027
 5292TIP3    H237292   1.460   4.640  12.128  1.0063  4.1329  0.7762
 5293TIP3   OH237293   5.856   1.815  13.821 -0.0783 -0.6303 -0.3122
 5293TIP3    H137294   5.903   1.733  13.808  0.5238 -0.0511 -2.0785
 5293TIP3    H237295   5.771   1.802  13.778 -0.4015 -0.6564  0.3078
 5294TIP3   OH237296   1.665   1.601  12.874 -0.1960  0.9608  0.4210
 5294TIP3    H137297   1.598   1.581  12.808 -1.0009  1.0613  1.1823
 5294TIP3    H237298   1.747   1.602  12.825 -0.7088  0.5207 -0.4864
 5295TIP3   OH237299   0.256   4.910   3.477 -0.0418 -0.5997 -0.4280
 5295TIP3    H137300   0.342   4.920   3.435  0.3690 -2.6594 -0.1672
 5295TIP3    H237301   0.193   4.917   3.405  0.3825 -0.0120 -0.7574
 5296TIP3   OH237302   0.770   5.857  16.206 -0.1332  0.4245  0.4066
 5296TIP3    H137303   0.777   5.837  16.112  2.0781 -1.9878  0.9577
 5296TIP3    H237304   0.860   5.855  16.237 -0.9562 -1.5222  3.0416
 5297TIP3   OH237305   4.632   4.547  16.802  0.1552 -0.0976 -0.1692
 5297TIP3    H137306   4.700   4.614  16.794  1.0373 -1.1027 -1.4563
 5297TIP3    H237307   4.676   4.472  16.842 -0.0562 -0.8956 -1.3634
 5298TIP3   OH237308   1.583   5.230  17.127 -0.2812 -0.1280 -0.2511
 5298TIP3    H137309   1.596   5.274  17.211 -0.0287 -1.2238  0.3068
 5298TIP3    H237310   1.568   5.139  17.150  0.1272 -0.5066 -1.4199
 5299TIP3   OH237311   3.374   0.287  13.135 -0.2032 -0.1357 -0.1736
 5299TIP3    H137312   3.398   0.376  13.110 -0.0700  0.2515  1.2367
 5299TIP3    H237313   3.296   0.268  13.083 -1.4959  1.6325  0.9636
 5300TIP3   OH237314   2.894   3.304  13.720 -0.7170 -0.6448  0.1824
 5300TIP3    H137315   2.878   3.250  13.798 -2.7595 -1.1898 -0.5531
 5300TIP3    H237316   2.881   3.394  13.750  1.0328 -0.6388  1.0261
 5301TIP3   OH237317   5.595   5.092   3.833  0.7484 -0.0918 -0.3282
 5301TIP3    H137318   5.685   5.124   3.838  1.4443 -1.7972 -1.0525
 5301TIP3    H237319   5.590   5.026   3.903 -0.0037  0.1438 -0.1612
 5302TIP3   OH237320   3.024   1.141  15.223 -0.4726 -0.9390  0.1097
 5302TIP3    H137321   2.963   1.213  15.204  1.1927  0.1323 -1.4127
 5302TIP3    H237322   3.097   1.182  15.269  0.1926 -1.7655 -0.1796
 5303TIP3   OH237323   5.299   1.170   1.302  0.5251 -0.2777 -0.1027
 5303TIP3    H137324   5.230   1.229   1.271 -0.0027 -0.2029  1.1490
 5303TIP3    H237325   5.329   1.209   1.385  0.7083 -1.3429  0.3589
 5304TIP3   OH237326   2.048   1.209   0.714  0.4606  0.5965  0.1982
 5304TIP3    H137327   1.972   1.202   0.657  1.9243 -1.0706 -1.7048
 5304TIP3    H237328   2.053   1.302   0.737 -2.2496  0.7002  0.6341
 5305TIP3   OH237329   0.970   1.321   1.753  0.1987  0.7925 -0.0631
 5305TIP3    H137330   1.005   1.245   1.799  0.6813  0.4066 -1.0473
 5305TIP3    H237331   0.883   1.293   1.724  0.9673  0.0531 -1.7433
 5306TIP3   OH237332   4.362   4.409  17.454 -0.4271 -0.4057 -0.4669
 5306TIP3    H137333   4.346   4.325  17.411  0.1135 -0.3082 -0.8634
 5306TIP3    H237334   4.275   4.441  17.478 -0.6512 -0.9606 -0.5392
 5307TIP3   OH237335   3.241   5.338   2.853  1.2118  0.2267  0.1043
 5307TIP3    H137336   3.285   5.365   2.935 -0.0389  0.1021  0.8388
 5307TIP3    H237337   3.291   5.261   2.824  1.2319 -0.1745  1.1499
 5308TIP3   OH237338   4.740   2.439   0.907 -0.4009  0.2623  0.3898
 5308TIP3    H137339   4.663   2.383   0.899  1.1701 -1.8079 -1.0844
 5308TIP3    H237340   4.755   2.444   1.002 -2.2835  0.7157  0.7154
 5309TIP3   OH237341   1.698   4.460  11.375  0.2781  0.1719 -0.1037
 5309TIP3    H137342   1.677   4.544  11.332 -3.2380 -1.4786 -2.0556
 5309TIP3    H237343   1.780   4.433  11.335 -0.3488  1.0913 -2.1687
 5310TIP3   OH237344   6.507   0.678  11.752  0.5795  0.2315 -0.7813
 5310TIP3    H137345   6.539   0.689  11.841  1.3976  1.4869 -1.2015
 5310TIP3    H237346   6.419   0.642  11.762  1.4185 -1.5679  0.4526
 5311TIP3   OH237347   4.652   6.492   1.353  0.2552 -0.1744 -0.4379
 5311TIP3    H137348   4.607   6.417   1.314  1.0462 -1.2288  0.6247
 5311TIP3    H237349   4.583   6.555   1.372 -1.1241 -2.3891  2.6717
 5312TIP3   OH237350   0.614   4.948   1.268 -0.0670 -0.1899  0.4050
 5312TIP3    H137351   0.531   4.996   1.264  0.0472  0.0177  0.5255
 5312TIP3    H237352   0.588   4.856   1.273 -0.2898 -0.1295  0.3688
 5313TIP3   OH237353   4.135   6.659   1.091  0.3982 -0.3527 -0.5310
 5313TIP3    H137354   4.153   6.726   1.156  0.1352 -0.9269  0.1519
 5313TIP3    H237355   4.122   6.707   1.009  1.0141  0.3578 -0.2224
 5314TIP3   OH237356   5.341   2.725   5.841 -0.0033  0.1990  0.3777
 5314TIP3    H137357   5.298   2.723   5.756 -2.5891 -0.1942  1.6005
 5314TIP3    H237358   5.357   2.818   5.858 -0.7369  0.3968  0.0401
 5315TIP3   OH237359   2.118   2.608   3.116 -0.3109  0.3935  0.3710
 5315TIP3    H137360   2.137   2.530   3.063 -1.2721  0.4099 -0.0159
 5315TIP3    H237361   2.023   2.618   3.112 -0.0895  2.7126 -1.2222
 5316TIP3   OH237362   2.643   5.919  16.263  0.7575 -0.0939 -0.2086
 5316TIP3    H137363   2.664   5.851  16.327  0.1505  0.3698  0.5093
 5316TIP3    H237364   2.711   5.986  16.278  0.2772  0.2749  0.3656
 5317TIP3   OH237365   2.573   3.462   0.325  0.2329  0.3078  0.3058
 5317TIP3    H137366   2.557   3.488   0.416  1.0968  0.8666  0.3026
 5317TIP3    H237367   2.604   3.542   0.282  1.4578 -0.3467 -0.0751
 5318TIP3   OH237368   2.040   1.932  14.686 -0.1645 -0.2787 -0.5911
 5318TIP3    H137369   2.082   1.849  14.663 -1.1867 -0.7346 -0.9165
 5318TIP3    H237370   1.980   1.948  14.613 -1.1312 -0.0774  0.2290
 5319TIP3   OH237371   5.480   2.148   1.796 -0.2768  0.8484 -0.2571
 5319TIP3    H137372   5.433   2.158   1.879  0.7412  2.8835  0.1273
 5319TIP3    H237373   5.515   2.059   1.799 -0.3494  0.8381  1.4534
 5320TIP3   OH237374   6.618   4.055   3.362  0.3760  0.5826  0.4008
 5320TIP3    H137375   6.554   4.088   3.425 -0.5423 -0.2427 -0.0789
 5320TIP3    H237376   6.591   3.964   3.346  2.4135 -0.2166  1.1725
 5321TIP3   OH237377   3.948   5.520  15.697 -0.0352 -0.0022 -0.8786
 5321TIP3    H137378   3.926   5.582  15.627 -0.5601  0.0424 -0.6695
 5321TIP3    H237379   3.915   5.436  15.665 -1.4510  0.2398 -0.1166
 5322TIP3   OH237380   6.073   5.230  13.878 -0.2297 -0.0526 -0.3936
 5322TIP3    H137381   6.126   5.309  13.868 -1.6608  0.7045 -2.5133
 5322TIP3    H237382   6.089   5.181  13.797 -2.1821 -0.1488 -0.7482
 5323TIP3   OH237383   3.812   4.313   0.539  0.3892  0.1830 -0.4008
 5323TIP3    H137384   3.734   4.279   0.494  1.0540  0.1731 -1.5922
 5323TIP3    H237385   3.788   4.314   0.631 -0.5751 -1.0351 -0.6116
 5324TIP3   OH237386   4.002   4.863   5.027  0.2755  0.0693 -0.0184
 5324TIP3    H137387   3.958   4.786   4.992  0.3529 -0.9653  1.9918
 5324TIP3    H237388   3.967   4.936   4.977 -3.7027 -0.6698  1.3176
 5325TIP3   OH237389   5.453   3.775   1.894 -1.1575 -0.0302  0.2616
 5325TIP3    H137390   5.457   3.757   1.800 -0.1460  0.2609  0.2400
 5325TIP3    H237391   5.365   3.809   1.908 -0.7814  1.5218 -0.8810
 5326TIP3   OH237392   2.867   0.109   2.017  0.1439  0.2728  0.5893
 5326TIP3    H137393   2.890   0.035   1.960 -0.7131  0.0218  0.5508
 5326TIP3    H237394   2.946   0.162   2.021  0.3538  0.0628 -0.4850
 5327TIP3   OH237395   5.561   5.219   4.468  0.0067 -0.4139 -0.2132
 5327TIP3    H137396   5.578   5.231   4.561  0.4528 -1.3600 -0.1623
 5327TIP3    H237397   5.524   5.131   4.461  1.2563 -0.8991 -1.0763
 5328TIP3   OH237398   2.252   1.304   5.777 -0.1650 -0.1931  0.4673
 5328TIP3    H137399   2.181   1.301   5.713  1.1508  0.7297 -1.1280
 5328TIP3    H237400   2.295   1.219   5.768  1.1681  0.5922 -1.3702
 5329TIP3   OH237401   5.642   0.800   2.115 -1.1825 -0.5952  0.2266
 5329TIP3    H137402   5.611   0.742   2.185 -0.7195 -1.8646 -0.5925
 5329TIP3    H237403   5.562   0.837   2.078 -1.4274  0.2936  1.5706
 5330TIP3   OH237404   6.035   6.605   1.934 -0.2470 -0.1205 -0.3284
 5330TIP3    H137405   6.117   6.579   1.976 -0.2310 -0.9662 -0.8544
 5330TIP3    H237406   5.967   6.565   1.988 -0.3484  0.9121  0.3378
 5331TIP3   OH237407   2.159   3.214  17.165  0.1780 -0.7325 -0.3958
 5331TIP3    H137408   2.182   3.261  17.085 -1.6824 -0.0758 -0.6065
 5331TIP3    H237409   2.066   3.235  17.179  0.6098 -0.2480  2.3057
 5332TIP3   OH237410   1.133   1.544  12.855 -0.3471 -0.9803 -0.2206
 5332TIP3    H137411   1.042   1.517  12.868 -0.2530 -1.2114 -0.0089
 5332TIP3    H237412   1.134   1.587  12.770 -0.4233 -2.0541 -0.7799
 5333TIP3   OH237413   1.954   0.289  14.983 -0.4056  0.1968 -0.0848
 5333TIP3    H137414   1.870   0.284  15.029 -0.8283  0.0306 -0.8558
 5333TIP3    H237415   2.019   0.302  15.052 -1.2255  1.9770  0.3816
 5334TIP3   OH237416   0.087   2.169  15.686 -1.0552  0.0330 -0.5573
 5334TIP3    H137417   0.120   2.218  15.762  0.6485 -1.3809 -0.3082
 5334TIP3    H237418   0.051   2.088  15.724  0.0829 -0.8221 -1.2344
 5335TIP3   OH237419   1.803   0.392   4.809 -0.1423 -0.0621  0.8351
 5335TIP3    H137420   1.760   0.338   4.876  0.3572 -1.6071 -0.0296
 5335TIP3    H237421   1.894   0.363   4.809  0.2576  1.1418  0.6615
 5336TIP3   OH237422   1.039   5.334   4.054 -0.0244 -0.6061  0.1734
 5336TIP3    H137423   1.134   5.336   4.041 -0.0479 -3.1839 -1.1328
 5336TIP3    H237424   1.006   5.402   3.996  1.0475  1.0296  1.4147
 5337TIP3   OH237425   1.153   3.280   0.540  0.1916 -0.3213 -0.1623
 5337TIP3    H137426   1.165   3.240   0.626  1.1484 -0.5372 -0.3869
 5337TIP3    H237427   1.227   3.248   0.488  0.5137  1.0876 -0.5901
 5338TIP3   OH237428   4.316   1.281   3.792 -0.6848 -0.3242  0.2652
 5338TIP3    H137429   4.398   1.278   3.742 -0.2260  0.9996  0.8975
 5338TIP3    H237430   4.248   1.291   3.726 -0.1980  0.1655 -0.1672
 5339TIP3   OH237431   4.231   2.373   2.726 -0.1851  0.3461  0.1906
 5339TIP3    H137432   4.251   2.319   2.650  1.0632 -0.7475  1.2541
 5339TIP3    H237433   4.247   2.463   2.697 -3.2390  0.3387 -1.8974
 5340TIP3   OH237434   2.281   3.276  17.419 -0.0549  0.2453 -0.0897
 5340TIP3    H137435   2.239   3.250  17.337 -0.3968 -0.8652  0.4207
 5340TIP3    H237436   2.255   3.367  17.432 -0.9564  0.0733 -0.6216
 5341TIP3   OH237437   3.479   0.744  13.836 -0.0751 -0.3636  0.0831
 5341TIP3    H137438   3.562   0.718  13.798 -0.0736 -0.5124  0.1894
 5341TIP3    H237439   3.477   0.839  13.826  1.5253  0.0839  2.8587
 5342TIP3   OH237440   0.957   3.721  15.811  0.1606  0.1527 -0.1238
 5342TIP3    H137441   1.036   3.674  15.837  0.3217  0.5281  0.0648
 5342TIP3    H237442   0.894   3.652  15.789  0.1219 -0.1691  0.9472
 5343TIP3   OH237443   1.461   3.926   2.621  0.3082 -0.0044  0.4058
 5343TIP3    H137444   1.532   3.976   2.662 -1.6349  2.1541  1.4089
 5343TIP3    H237445   1.436   3.861   2.687  1.1817 -0.6548  0.1173
 5344TIP3   OH237446   4.705   2.422   3.562  0.5968  0.0222  0.0016
 5344TIP3    H137447   4.705   2.514   3.586 -1.0515  0.0990 -0.1797
 5344TIP3    H237448   4.729   2.421   3.469  1.4247  0.1856  0.2080
 5345TIP3   OH237449   4.947   1.716   4.682 -0.2057 -0.8052 -0.6129
 5345TIP3    H137450   4.948   1.755   4.770 -0.1834 -1.9188 -0.1091
 5345TIP3    H237451   4.920   1.626   4.696  1.5249 -1.5054 -1.5362
 5346TIP3   OH237452   0.532   5.599  13.665  0.0568  0.0069  0.2553
 5346TIP3    H137453   0.466   5.565  13.605 -0.7222  0.0738  1.0512
 5346TIP3    H237454   0.492   5.677  13.703 -0.2005 -0.9975  2.1568
 5347TIP3   OH237455   5.298   2.688   5.568  0.1162 -0.5112  0.3064
 5347TIP3    H137456   5.326   2.631   5.497 -0.4702 -1.2716  0.6658
 5347TIP3    H237457   5.257   2.763   5.525 -0.7010 -1.2095 -0.1451
 5348TIP3   OH237458   4.809   1.980   2.236  0.2481  0.4556  0.1018
 5348TIP3    H137459   4.880   1.955   2.178  0.0362  0.9284 -0.3632
 5348TIP3    H237460   4.741   2.014   2.178  0.0964  1.0788  0.6404
 5349TIP3   OH237461   0.169   0.517  15.200  0.1369 -0.7284 -0.3061
 5349TIP3    H137462   0.172   0.456  15.274  0.8089 -0.5780 -0.2008
 5349TIP3    H237463   0.077   0.538  15.189 -0.1608 -2.1025 -0.6159
 5350TIP3   OH237464   4.870   6.621  14.361 -0.1478  0.1865 -0.0309
 5350TIP3    H137465   4.806   6.604  14.292  0.4327 -1.1804 -0.2654
 5350TIP3    H237466   4.872   6.716  14.369 -0.9897  0.3184 -1.1670
 5351TIP3   OH237467   5.159   4.534   0.872 -0.6388 -0.2595  0.5190
 5351TIP3    H137468   5.110   4.599   0.822 -1.2544  0.0180  1.4714
 5351TIP3    H237469   5.239   4.580   0.898 -0.4514 -0.3141  0.0567
 5352TIP3   OH237470   2.170   2.619  17.575  0.7779 -0.1049  0.0253
 5352TIP3    H137471   2.106   2.657  17.514  0.0019 -0.2683  0.7223
 5352TIP3    H237472   2.129   2.627  17.661  1.3203 -1.0269  0.3831
 5353TIP3   OH237473   4.373   0.792  14.544  0.1702 -0.0357  0.3168
 5353TIP3    H137474   4.440   0.815  14.607  1.1358 -0.0457 -0.6709
 5353TIP3    H237475   4.361   0.870  14.491  1.3784 -0.8253 -1.2134
 5354TIP3   OH237476   5.164   0.670  13.599  0.1585 -0.9404 -0.1751
 5354TIP3    H137477   5.229   0.612  13.559  0.6779 -0.9220  0.6348
 5354TIP3    H237478   5.215   0.737  13.644 -0.4303 -0.1828 -0.5976
 5355TIP3   OH237479   6.014   1.505   1.004 -0.0682  0.4597 -0.3467
 5355TIP3    H137480   5.970   1.420   1.000  1.0090 -0.1040 -0.5614
 5355TIP3    H237481   6.093   1.489   1.055  1.5851  0.6329 -2.6924
 5356TIP3   OH237482   4.807   4.734  14.965  0.7282 -0.7442  0.2903
 5356TIP3    H137483   4.836   4.773  14.883  3.3038 -1.3497  0.8239
 5356TIP3    H237484   4.754   4.659  14.938  1.1863 -0.6923 -0.8206
 5357TIP3   OH237485   1.618   0.870  16.333 -0.1613 -0.3084 -0.0689
 5357TIP3    H137486   1.556   0.943  16.332 -2.2655 -2.0152  0.1272
 5357TIP3    H237487   1.564   0.793  16.349  1.9233 -2.0051 -0.8467
 5358TIP3   OH237488   3.466   2.865  17.246  0.3328 -0.3932 -0.2743
 5358TIP3    H137489   3.388   2.811  17.233  0.1385 -0.0912 -0.3605
 5358TIP3    H237490   3.457   2.899  17.335  0.9374 -1.2821  0.1410
 5359TIP3   OH237491   5.923   5.665  14.931 -0.0050  0.3652 -0.1054
 5359TIP3    H137492   5.859   5.625  14.990 -0.1606  0.2110 -0.3751
 5359TIP3    H237493   5.951   5.593  14.875  0.7386  0.3304  0.2998
 5360TIP3   OH237494   0.991   6.287   2.382 -0.0314  0.1553  0.2834
 5360TIP3    H137495   0.975   6.298   2.289 -0.9665  0.2516  0.4368
 5360TIP3    H237496   1.080   6.319   2.397  0.4083 -0.5774 -0.6946
 5361TIP3   OH237497   6.435   0.471  14.262  0.1220 -1.0099  0.1379
 5361TIP3    H137498   6.525   0.471  14.295  0.3627  2.3636 -0.1686
 5361TIP3    H237499   6.381   0.475  14.341  0.3973  0.0655  0.2822
 5362TIP3   OH237500   5.907   1.544  16.348 -0.0478  0.4392  0.2412
 5362TIP3    H137501   5.858   1.493  16.284  1.3136 -2.0370  1.0248
 5362TIP3    H237502   5.974   1.589  16.297 -0.2214  0.0771 -0.3133
 5363TIP3   OH237503   4.874   3.016  14.388 -0.0985  0.2075  0.0236
 5363TIP3    H137504   4.929   2.939  14.376  1.3113  0.9610  1.2555
 5363TIP3    H237505   4.813   2.992  14.457 -1.4435 -0.6679 -1.4148
 5364TIP3   OH237506   3.947   1.571   1.861  0.0688  0.2627  0.1639
 5364TIP3    H137507   3.944   1.655   1.907 -0.3540  0.8917 -0.9823
 5364TIP3    H237508   3.966   1.594   1.770 -0.0244 -0.8874 -0.1591
 5365TIP3   OH237509   4.623   1.846  13.076 -0.8726 -0.5392  0.1425
 5365TIP3    H137510   4.688   1.822  13.010 -1.2235 -0.4847 -0.2270
 5365TIP3    H237511   4.596   1.763  13.115 -0.3773 -0.5400  0.4994
 5366TIP3   OH237512   2.340   0.692   4.825  0.7211  0.1136 -0.1790
 5366TIP3    H137513   2.377   0.690   4.914 -2.2983 -1.5526  1.1656
 5366TIP3    H237514   2.374   0.613   4.783 -0.0535 -0.6253  0.5359
 5367TIP3   OH237515   4.252   1.294  16.020  0.1240 -0.0981 -0.2872
 5367TIP3    H137516   4.292   1.246  16.093 -0.4283 -1.1766 -0.6632
 5367TIP3    H237517   4.212   1.371  16.061  0.4226 -0.3191  0.4472
 5368TIP3   OH237518   0.629   5.230  16.664 -0.4546 -0.0545 -0.1456
 5368TIP3    H137519   0.684   5.155  16.641  0.2803  0.6826 -0.8801
 5368TIP3    H237520   0.542   5.208  16.629 -0.3753 -0.7773  0.0993
 5369TIP3   OH237521   2.972   4.087  13.393  0.1082  0.0737  0.6665
 5369TIP3    H137522   3.067   4.076  13.382 -0.0138  0.1777 -0.6155
 5369TIP3    H237523   2.957   4.180  13.379 -0.3707 -0.2019 -0.8494
 5370TIP3   OH237524   0.318   3.757   4.723 -0.0209 -0.2127  0.0562
 5370TIP3    H137525   0.372   3.755   4.803  0.4563 -0.6813 -0.2649
 5370TIP3    H237526   0.231   3.779   4.753  0.2839  0.2147  0.6387
 5371TIP3   OH237527   0.329   3.808   1.470 -0.5992 -0.0638 -0.8031
 5371TIP3    H137528   0.334   3.846   1.382 -1.3954 -1.5987 -1.5589
 5371TIP3    H237529   0.242   3.831   1.501  0.4826  2.5003  0.6306
 5372TIP3   OH237530   5.537   5.807  13.884  0.5666 -0.0642  0.1920
 5372TIP3    H137531   5.628   5.785  13.861  0.9115  0.0562  1.3973
 5372TIP3    H237532   5.535   5.807  13.979 -0.8977 -0.8150  0.1849
 5373TIP3   OH237533   1.474   2.856  12.538 -0.2184 -0.0670  0.8276
 5373TIP3    H137534   1.430   2.883  12.618 -1.4439  0.0457  0.1440
 5373TIP3    H237535   1.516   2.936  12.505 -0.4573  0.0881  0.9000
 5374TIP3   OH237536   2.839   1.064   2.448  0.3459  0.6280 -0.2596
 5374TIP3    H137537   2.931   1.036   2.456  0.1693 -0.1410 -0.7523
 5374TIP3    H237538   2.819   1.053   2.355 -0.0137  1.5590 -0.2935
 5375TIP3   OH237539   5.131   1.885  16.351 -0.2834  0.3005  0.0489
 5375TIP3    H137540   5.202   1.853  16.406 -1.0287  1.3775  1.7533
 5375TIP3    H237541   5.166   1.885  16.262  1.0739 -1.2464  0.5551
 5376TIP3   OH237542   2.304   0.144  15.455  0.1526 -0.3000  0.9021
 5376TIP3    H137543   2.336   0.142  15.545  0.3606 -1.8938  0.8256
 5376TIP3    H237544   2.258   0.061  15.445  0.1034 -0.1242 -0.4523
 5377TIP3   OH237545   0.883   4.160  17.019 -0.7540 -0.2003  0.0123
 5377TIP3    H137546   0.904   4.067  17.018 -0.4007 -0.1217 -0.4393
 5377TIP3    H237547   0.788   4.163  17.011 -0.6947 -0.5068 -0.9354
 5378TIP3   OH237548   4.301   6.306   2.256  0.8806  0.1169  0.4131
 5378TIP3    H137549   4.323   6.292   2.348 -1.8169 -1.3055  0.9539
 5378TIP3    H237550   4.219   6.355   2.259  0.7127 -0.0216 -1.2257
 5379TIP3   OH237551   0.037   1.333  14.121 -0.1407 -0.6672 -0.0875
 5379TIP3    H137552  -0.053   1.368  14.115  0.6534  1.2227 -3.1077
 5379TIP3    H237553   0.067   1.360  14.208 -2.0393 -0.1372  0.4562
 5380TIP3   OH237554   2.705   2.059   5.591 -0.1373 -0.1720 -0.6459
 5380TIP3    H137555   2.656   2.116   5.650 -0.7651 -2.4908  1.2005
 5380TIP3    H237556   2.640   2.026   5.529 -0.1602 -0.3543 -0.5248
 5381TIP3   OH237557   4.146   3.564   4.989 -0.1181 -0.3528 -0.7146
 5381TIP3    H137558   4.083   3.493   4.976 -0.8910  0.1485  0.1900
 5381TIP3    H237559   4.117   3.609   5.068  0.2947  1.0390 -1.3096
 5382TIP3   OH237560   5.218   5.646   1.291  0.1358  0.2937 -0.3459
 5382TIP3    H137561   5.228   5.637   1.386  0.5645  1.8214 -0.2176
 5382TIP3    H237562   5.126   5.670   1.279 -0.5663 -2.2089 -0.5561
 5383TIP3   OH237563   0.496   3.315   1.466  0.3863  0.0688 -0.2802
 5383TIP3    H137564   0.416   3.301   1.516  1.0919  1.7668  1.4563
 5383TIP3    H237565   0.484   3.400   1.425  0.9607 -0.0533 -0.7077
 5384TIP3   OH237566   3.222   2.420   2.133  0.5349  0.7865  0.4839
 5384TIP3    H137567   3.270   2.496   2.099  1.5984  0.5738  1.4135
 5384TIP3    H237568   3.262   2.404   2.219  0.4063 -0.8905  0.2564
 5385TIP3   OH237569   5.735   1.816   0.823  0.3625 -0.4517 -0.0067
 5385TIP3    H137570   5.827   1.806   0.848  1.1419  0.4963 -2.2731
 5385TIP3    H237571   5.737   1.857   0.737 -2.2287  1.5358  0.7189
 5386TIP3   OH237572   0.387   0.652  15.256  0.1160  0.5905  0.1056
 5386TIP3    H137573   0.432   0.676  15.175  0.5056 -0.6476 -0.0685
 5386TIP3    H237574   0.333   0.577  15.232 -0.5851  0.8760  0.7586
 5387TIP3   OH237575   2.795   4.769   1.430 -0.3272 -0.0681 -0.1357
 5387TIP3    H137576   2.818   4.772   1.337  0.9603  0.1313  0.1628
 5387TIP3    H237577   2.878   4.787   1.475 -1.4471  2.8413  1.0067
 5388TIP3   OH237578   4.724   3.712   4.607  0.3350 -0.4322  0.1803
 5388TIP3    H137579   4.750   3.800   4.635  0.9767 -0.3304 -0.6809
 5388TIP3    H237580   4.645   3.726   4.555  0.9377 -0.2438 -0.7101
 5389TIP3   OH237581   6.324   5.857   0.080  0.2319  0.1663  0.0565
 5389TIP3    H137582   6.228   5.864   0.078  0.2993  0.8848 -0.9117
 5389TIP3    H237583   6.340   5.763   0.088 -0.5519 -0.0250 -0.4875
 5390TIP3   OH237584   2.711   1.683  10.707  0.1155 -0.2260  0.3301
 5390TIP3    H137585   2.794   1.642  10.733 -0.7607 -1.5595  1.1765
 5390TIP3    H237586   2.737   1.767  10.670  1.8163 -0.4015  0.9901
 5391TIP3   OH237587   5.549   1.133  17.602  0.0777  0.7157  0.0439
 5391TIP3    H137588   5.477   1.196  17.601  1.6314  2.6054  1.0609
 5391TIP3    H237589   5.605   1.159  17.529  0.0773 -0.3791 -0.3792
 5392TIP3   OH237590   2.251   6.567   5.103  0.0628  0.2974  0.0239
 5392TIP3    H137591   2.214   6.499   5.046  0.1296  0.4279 -0.1762
 5392TIP3    H237592   2.242   6.531   5.192  1.7575 -0.7679 -0.1965
 5393TIP3   OH237593   5.561   2.965   3.878 -0.2852 -0.5701  0.1802
 5393TIP3    H137594   5.610   2.972   3.796 -0.8458  1.0268 -0.0714
 5393TIP3    H237595   5.470   2.951   3.850 -0.6385  0.9692  0.4459
 5394TIP3   OH237596   0.689   5.822   1.430  0.0791  0.1823 -0.2290
 5394TIP3    H137597   0.658   5.776   1.352  1.3298 -1.2453  0.0645
 5394TIP3    H237598   0.733   5.900   1.395  1.8849 -1.1525 -1.1223
 5395TIP3   OH237599   5.273   2.198   5.025  0.5006 -0.1762  0.1557
 5395TIP3    H137600   5.263   2.116   4.977 -0.6166  0.5732 -0.9321
 5395TIP3    H237601   5.253   2.266   4.962  1.4923  0.9586  1.0242
 5396TIP3   OH237602   2.635   3.132   1.504  0.4477 -0.4777  0.5459
 5396TIP3    H137603   2.682   3.055   1.472  1.5224  0.2435  0.3495
 5396TIP3    H237604   2.704   3.189   1.539 -0.3263  0.4416  0.6005
 5397TIP3   OH237605   3.039   0.616  14.323  0.0802 -0.2556  0.3194
 5397TIP3    H137606   2.961   0.621  14.378  0.6859 -1.5282  1.3688
 5397TIP3    H237607   3.086   0.697  14.340 -1.1509  0.6774 -0.5893
 5398TIP3   OH237608   3.166   0.723   2.347 -0.3420 -0.0416 -0.0702
 5398TIP3    H137609   3.209   0.681   2.273 -0.8783 -0.7590  0.0191
 5398TIP3    H237610   3.096   0.663   2.372 -1.7353  1.3116 -0.5323
 5399TIP3   OH237611   4.331   0.002  15.719  0.3227 -0.4630  0.5836
 5399TIP3    H137612   4.375  -0.066  15.669  0.1799  0.4240 -0.8025
 5399TIP3    H237613   4.267   0.039  15.658  1.5377  2.0262  0.6736
 5400TIP3   OH237614   1.034   4.907  14.357 -0.1227  0.2216 -0.1729
 5400TIP3    H137615   1.095   4.885  14.287 -1.9530 -1.0803 -1.4488
 5400TIP3    H237616   1.018   5.001  14.348  1.6503  0.5973  0.2087
 5401TIP3   OH237617   6.646   3.638   4.584  0.0884  0.3294 -0.0681
 5401TIP3    H137618   6.575   3.651   4.521 -0.1467 -2.3837 -0.4934
 5401TIP3    H237619   6.722   3.616   4.530  0.0780 -1.2493  0.5037
 5402TIP3   OH237620   6.014   4.181  15.599  0.0929 -0.0868  0.7933
 5402TIP3    H137621   6.105   4.199  15.622  0.2375  0.4845 -0.1647
 5402TIP3    H237622   5.979   4.265  15.570 -1.1217 -0.0194  2.3017
 5403TIP3   OH237623   6.350   1.657  16.345 -0.1333  0.2048  0.3530
 5403TIP3    H137624   6.364   1.737  16.293 -2.0759  0.1805 -0.2905
 5403TIP3    H237625   6.393   1.588  16.294 -0.1507  0.5335 -0.1164
 5404TIP3   OH237626   4.804   6.332   1.574 -0.3016  0.0447 -0.3493
 5404TIP3    H137627   4.768   6.397   1.514  0.3166 -0.1910 -0.9861
 5404TIP3    H237628   4.727   6.293   1.615 -0.6996  0.7792 -0.3711
 5405TIP3   OH237629   2.248   6.065  16.043  0.2501 -0.0512 -0.1669
 5405TIP3    H137630   2.176   6.007  16.066 -0.2794  0.7952  0.3669
 5405TIP3    H237631   2.319   6.006  16.018 -0.7061 -0.8954 -0.9843
 5406TIP3   OH237632   0.047   3.324  11.802  0.0760 -0.1839  0.1342
 5406TIP3    H137633  -0.022   3.257  11.794  0.3975 -0.8352  2.2114
 5406TIP3    H237634   0.028   3.386  11.732 -2.0836 -0.8361  0.0586
 5407TIP3   OH237635   1.993   1.620   1.164 -0.2083 -0.0713  0.4635
 5407TIP3    H137636   1.905   1.595   1.136  0.8484 -1.4800 -1.9900
 5407TIP3    H237637   1.996   1.715   1.154 -0.9161 -0.1971 -1.3277
 5408TIP3   OH237638   2.131   6.324   5.001  0.5724 -0.3726 -1.1606
 5408TIP3    H137639   2.118   6.285   4.915  1.0601 -1.9542 -0.5538
 5408TIP3    H237640   2.137   6.249   5.061  0.7141  0.6708  0.1789
 5409TIP3   OH237641   4.444   6.706   2.981  0.0423 -0.5242  0.3063
 5409TIP3    H137642   4.421   6.640   2.916  2.0226 -0.8719 -0.1254
 5409TIP3    H237643   4.518   6.668   3.028  0.0764  0.6578  1.2541
 5410TIP3   OH237644   2.543   1.471   1.463 -0.3432  0.1229 -0.0613
 5410TIP3    H137645   2.461   1.520   1.475  0.7229  2.0170 -0.1591
 5410TIP3    H237646   2.529   1.423   1.381 -0.4949  2.4297 -1.5044
 5411TIP3   OH237647   5.245   1.022  16.018  0.2331  0.0086  0.1554
 5411TIP3    H137648   5.183   1.086  15.982  0.2870 -0.4345 -0.7405
 5411TIP3    H237649   5.272   0.970  15.943  2.4544  0.8102  0.3223
 5412TIP3   OH237650   0.525   1.844   1.294  0.2938 -1.1264  0.1616
 5412TIP3    H137651   0.605   1.824   1.342  1.1657  0.6622 -0.4622
 5412TIP3    H237652   0.456   1.843   1.360  1.3580  0.5908  1.3750
 5413TIP3   OH237653   4.994   6.215   3.620 -0.4151 -0.1468 -0.1106
 5413TIP3    H137654   5.077   6.214   3.572 -0.0474  2.2991  0.3713
 5413TIP3    H237655   4.938   6.156   3.570  0.7544  0.2989 -2.0604
 5414TIP3   OH237656   1.799   3.882  14.668  0.1195 -0.5475 -0.4724
 5414TIP3    H137657   1.792   3.799  14.620 -0.4790 -0.7087 -0.1179
 5414TIP3    H237658   1.743   3.870  14.745  0.5159 -0.0347 -0.0991
 5415TIP3   OH237659   2.047   1.582  13.540  0.1092  0.7850 -0.7467
 5415TIP3    H137660   1.957   1.590  13.506 -0.0864  1.2238 -0.1452
 5415TIP3    H237661   2.036   1.585  13.635  0.8883  2.3012 -0.6788
 5416TIP3   OH237662   5.495   6.287  12.118  0.3424 -0.1573 -0.2700
 5416TIP3    H137663   5.551   6.361  12.145 -1.2209  1.0259 -0.1506
 5416TIP3    H237664   5.423   6.328  12.070 -0.1879 -1.6928 -0.8218
 5417TIP3   OH237665   5.634   4.462   6.736 -0.7895 -0.4489 -0.0676
 5417TIP3    H137666   5.661   4.548   6.705  2.2715 -1.4116 -0.3831
 5417TIP3    H237667   5.551   4.445   6.692 -1.2734  2.1343 -0.2971
 5418TIP3   OH237668   3.290   5.684   4.681  0.6116  0.9309  0.4758
 5418TIP3    H137669   3.367   5.676   4.624  1.3023 -0.4349  1.5545
 5418TIP3    H237670   3.305   5.764   4.731  1.8122  0.2008  1.3288
 5419TIP3   OH237671   1.273   4.146   2.520 -0.1600 -0.2961  0.3069
 5419TIP3    H137672   1.342   4.081   2.533  0.0797  0.0682  0.8512
 5419TIP3    H237673   1.314   4.230   2.543 -0.1464  0.1997 -1.3723
 5420TIP3   OH237674   5.324   3.613   3.690 -0.0546  0.2500  0.0302
 5420TIP3    H137675   5.380   3.571   3.755 -0.5977 -0.9143 -0.2191
 5420TIP3    H237676   5.292   3.692   3.733  0.3682  0.0084  0.8120
 5421TIP3   OH237677   1.774   0.122   1.364 -0.4869  0.1097 -0.8620
 5421TIP3    H137678   1.757   0.146   1.455 -1.0597  0.2334 -0.9970
 5421TIP3    H237679   1.844   0.057   1.369 -0.9275 -0.3297 -0.2910
 5422TIP3   OH237680   6.089   2.241   3.688 -0.2265  0.1137  0.0081
 5422TIP3    H137681   6.086   2.151   3.656 -1.4748  0.9704 -2.6031
 5422TIP3    H237682   6.011   2.249   3.743  0.2504 -0.5432  0.8065
 5423TIP3   OH237683   4.474   4.232   1.409 -0.0657 -0.3911 -0.3145
 5423TIP3    H137684   4.520   4.297   1.463  1.1475 -0.3281 -1.3820
 5423TIP3    H237685   4.399   4.206   1.462  0.9006 -0.0861  1.2587
 5424TIP3   OH237686   1.246   4.952   1.565  0.2115  0.2614 -0.2990
 5424TIP3    H137687   1.174   4.980   1.621  0.1655 -0.4553  0.0111
 5424TIP3    H237688   1.203   4.906   1.493  0.3198  0.3927 -0.4458
 5425TIP3   OH237689   5.817   1.660  12.354 -0.3520  0.0032 -0.1615
 5425TIP3    H137690   5.822   1.753  12.373  0.5552 -0.0166 -0.2606
 5425TIP3    H237691   5.899   1.624  12.388 -0.9882 -0.8766  0.4822
 5426TIP3   OH237692   3.977   4.024  14.640  0.0557 -0.3059 -0.0242
 5426TIP3    H137693   3.963   4.044  14.547  2.5777 -0.2617 -0.4736
 5426TIP3    H237694   3.949   4.104  14.686  2.4897  1.3229 -1.1497
 5427TIP3   OH237695   3.851   2.528  15.284  0.0099  0.2180  0.2773
 5427TIP3    H137696   3.791   2.509  15.356 -0.5117  0.5898 -0.0541
 5427TIP3    H237697   3.796   2.529  15.206  0.2034  1.7510  0.1129
 5428TIP3   OH237698   1.703   1.527  17.107  0.3203  0.2366 -0.0454
 5428TIP3    H137699   1.639   1.576  17.055 -1.3872 -2.5024 -0.7546
 5428TIP3    H237700   1.783   1.531  17.056 -0.4639  0.2218 -1.3252
 5429TIP3   OH237701   1.727   3.567  17.616 -0.9715 -0.0148 -0.3075
 5429TIP3    H137702   1.701   3.621  17.690  0.9972 -0.0211  0.4508
 5429TIP3    H237703   1.727   3.478  17.650 -0.2129 -0.0350 -0.3435
 5430TIP3   OH237704   5.657   2.139  11.823  0.0265  0.2940 -0.0550
 5430TIP3    H137705   5.696   2.137  11.735 -1.2196  0.2498 -0.6222
 5430TIP3    H237706   5.659   2.232  11.847  0.5882  0.2781 -0.0180
 5431TIP3   OH237707   5.669   1.378   1.823 -0.5633  0.4191  0.3158
 5431TIP3    H137708   5.681   1.416   1.910  2.6577  1.8835 -0.6135
 5431TIP3    H237709   5.700   1.288   1.832 -2.2969 -0.1499  1.0934
 5432TIP3   OH237710   3.760   0.039  16.285 -0.3843  0.5137 -0.4266
 5432TIP3    H137711   3.847   0.037  16.325  0.0007 -0.5379 -1.2641
 5432TIP3    H237712   3.714  -0.036  16.324 -1.1829  1.4630  0.5326
 5433TIP3   OH237713   3.600   1.511  11.742  0.2771  0.5404 -0.1802
 5433TIP3    H137714   3.690   1.517  11.773  0.3805  0.6928 -0.5062
 5433TIP3    H237715   3.582   1.596  11.702  0.1267  0.3707 -0.4827
 5434TIP3   OH237716   0.759   4.770  14.607 -0.2680  0.1122  0.2739
 5434TIP3    H137717   0.676   4.759  14.654 -0.7825 -0.5503 -0.7516
 5434TIP3    H237718   0.824   4.732  14.666 -0.7816  0.0374  0.8112
 5435TIP3   OH237719   0.138   1.390  11.655  0.0886 -0.0906 -0.2819
 5435TIP3    H137720   0.081   1.418  11.727  0.5071 -0.4913  0.2131
 5435TIP3    H237721   0.078   1.375  11.582 -0.5232 -1.1058  0.4021
 5436TIP3   OH237722   6.066   3.165  13.597 -0.2215 -0.5520  0.1882
 5436TIP3    H137723   6.003   3.107  13.554 -0.2162 -0.2358 -0.2500
 5436TIP3    H237724   6.148   3.115  13.598  0.4209  0.3163 -2.3412
 5437TIP3   OH237725   1.794   6.085   5.773 -0.0945  0.6581  0.5707
 5437TIP3    H137726   1.879   6.109   5.809  0.6208 -0.8322 -0.0422
 5437TIP3    H237727   1.810   6.074   5.679 -0.4097 -1.6641  0.7121
 5438TIP3   OH237728   6.406   1.406   1.416  0.1431 -0.4831  0.0567
 5438TIP3    H137729   6.401   1.389   1.511 -1.2620 -0.2389  0.0487
 5438TIP3    H237730   6.361   1.331   1.377 -2.3439  1.0513 -0.2098
 5439TIP3   OH237731   4.880   1.983   5.333  0.1163 -0.4635 -0.0904
 5439TIP3    H137732   4.849   2.048   5.397 -1.6679 -0.2253 -1.1094
 5439TIP3    H237733   4.967   1.959   5.363  1.2163  3.0142 -0.1111
 5440TIP3   OH237734   3.328   2.587  12.277  0.1516  0.1356  0.1648
 5440TIP3    H137735   3.401   2.648  12.283  0.2522 -0.0966  1.6373
 5440TIP3    H237736   3.334   2.550  12.188  0.2180  2.0645 -0.6677
 5441TIP3   OH237737   3.046   1.089  13.681 -0.8337  0.3525 -0.4019
 5441TIP3    H137738   3.014   1.000  13.671 -0.4144 -0.1468  2.0896
 5441TIP3    H237739   3.100   1.104  13.603  0.2987 -2.1206 -0.1991
 5442TIP3   OH237740   1.904   0.348  15.524 -0.2499 -0.1108  0.4013
 5442TIP3    H137741   1.948   0.395  15.453  0.6101 -0.4480  0.6998
 5442TIP3    H237742   1.972   0.294  15.563 -0.9088 -0.5609  0.9541
 5443TIP3   OH237743   1.087   1.734   2.512 -0.2170 -0.1879  0.0118
 5443TIP3    H137744   1.138   1.674   2.459  1.7880  1.1184  0.3382
 5443TIP3    H237745   1.094   1.818   2.467 -0.3934  0.4475  1.1245
 5444TIP3   OH237746   3.558   0.086  17.060  0.0346  0.0701 -0.0292
 5444TIP3    H137747   3.467   0.070  17.034 -1.6749 -1.0753  5.2248
 5444TIP3    H237748   3.599  -0.001  17.058  0.4714  0.2923 -0.7560
 5445TIP3   OH237749   2.380   5.743   1.176 -0.3894  0.6144  0.1462
 5445TIP3    H137750   2.346   5.741   1.265 -3.4325 -0.3211 -0.9209
 5445TIP3    H237751   2.386   5.651   1.151  1.2846  0.8354 -0.3700
 5446TIP3   OH237752   1.228   5.900   2.537 -0.1203 -0.2534 -0.3099
 5446TIP3    H137753   1.209   5.877   2.628  0.1415 -1.1351 -0.4730
 5446TIP3    H237754   1.279   5.981   2.544 -0.3737 -0.1408  0.3116
 5447TIP3   OH237755   6.383   3.513  14.303  0.5594 -0.2608 -0.4439
 5447TIP3    H137756   6.432   3.442  14.344 -1.1855 -1.5043 -0.3574
 5447TIP3    H237757   6.326   3.468  14.240 -0.2897  1.1136 -0.6950
 5448TIP3   OH237758   6.425   6.218   3.363  0.3355 -0.0177  0.1968
 5448TIP3    H137759   6.355   6.205   3.427 -1.6982  1.2137 -1.6361
 5448TIP3    H237760   6.414   6.147   3.300  1.1448 -0.1685  0.2139
 5449TIP3   OH237761   1.483   3.421   4.567 -0.8229 -0.1184 -0.4661
 5449TIP3    H137762   1.545   3.360   4.607  0.4392  0.5221 -1.3657
 5449TIP3    H237763   1.406   3.417   4.623  0.1387 -0.7104  0.8780
 5450TIP3   OH237764   1.307   1.832  14.002 -0.7848  0.2229 -0.4877
 5450TIP3    H137765   1.374   1.891  13.969  0.4234 -1.1477 -0.6094
 5450TIP3    H237766   1.324   1.824  14.096 -1.0866  0.2643 -0.4288
 5451TIP3   OH237767   2.567   2.662   1.521  0.5835 -0.6996 -0.3804
 5451TIP3    H137768   2.624   2.600   1.566  3.0241  1.1264 -0.7913
 5451TIP3    H237769   2.532   2.717   1.591  1.0665 -0.4516 -0.3342
 5452TIP3   OH237770   1.608   1.769  16.124 -0.2018  0.4279 -0.2408
 5452TIP3    H137771   1.514   1.751  16.125 -0.0903 -0.1779  0.2742
 5452TIP3    H237772   1.636   1.750  16.213  0.3091  1.1920 -0.2312
 5453TIP3   OH237773   3.190   3.091  14.063  0.0964 -0.0377 -0.0279
 5453TIP3    H137774   3.231   3.140  13.992  0.2914 -0.0368  0.0862
 5453TIP3    H237775   3.128   3.033  14.019  0.7729 -0.5897 -0.2557
 5454TIP3   OH237776   0.862   5.418  16.607 -0.7983 -0.2373  0.0614
 5454TIP3    H137777   0.789   5.357  16.600 -1.7094  0.0923  4.2766
 5454TIP3    H237778   0.927   5.372  16.661 -0.0589  1.3042  0.5376
 5455TIP3   OH237779   6.415   3.010  14.140 -0.1236  0.0808  0.8173
 5455TIP3    H137780   6.498   3.031  14.097  0.0311  0.8051  1.4551
 5455TIP3    H237781   6.350   3.065  14.096 -0.5487 -1.4452 -0.6099
 5456TIP3   OH237782   3.184   4.159   2.961  1.1387 -0.1158 -0.2129
 5456TIP3    H137783   3.266   4.187   2.920 -0.2957  2.1125 -1.7981
 5456TIP3    H237784   3.181   4.208   3.044  0.7425  1.0387 -0.8817
 5457TIP3   OH237785   3.345   0.604  13.536 -0.3092  0.1351 -0.2374
 5457TIP3    H137786   3.272   0.542  13.529  0.4497 -0.6786 -1.1675
 5457TIP3    H237787   3.396   0.573  13.610  1.0844 -1.5181 -1.7960
 5458TIP3   OH237788   4.025   4.173  14.093 -0.0022  0.0715 -0.1476
 5458TIP3    H137789   4.008   4.146  14.003  0.4967 -2.0763  0.3453
 5458TIP3    H237790   4.121   4.172  14.100 -0.0533 -0.3618  0.5558
 5459TIP3   OH237791   0.983   2.082   1.196 -0.0291 -0.3436 -0.0665
 5459TIP3    H137792   1.045   2.115   1.130  1.5279 -1.9915  0.4905
 5459TIP3    H237793   1.029   2.093   1.279 -0.6921 -1.1493  0.4174
 5460TIP3   OH237794   3.356   0.306  14.946  0.5338  0.7548 -0.3769
 5460TIP3    H137795   3.381   0.343  15.031  1.7159 -2.3836  0.7607
 5460TIP3    H237796   3.279   0.253  14.965  1.8866 -1.4801 -0.7690
 5461TIP3   OH237797   6.005   4.459  16.564 -0.2718 -0.2919  0.1533
 5461TIP3    H137798   5.971   4.431  16.649  1.2865 -1.2076  0.5205
 5461TIP3    H237799   6.091   4.417  16.557  0.4065  1.1800 -1.1082
 5462TIP3   OH237800   1.395   5.036  13.810  0.0807 -0.0564  0.2778
 5462TIP3    H137801   1.407   5.106  13.746  0.3749 -0.0086  0.3852
 5462TIP3    H237802   1.318   4.988  13.779 -0.6921  0.8721  0.7164
 5463TIP3   OH237803   6.259   5.609  12.125 -0.2962 -0.4397  0.6424
 5463TIP3    H137804   6.172   5.573  12.104  0.1607 -1.3944  0.3307
 5463TIP3    H237805   6.315   5.532  12.134  0.5780  0.1800  0.5951
 5464TIP3   OH237806   6.202   4.358   5.674  0.8236  0.3890  0.4240
 5464TIP3    H137807   6.115   4.320   5.691 -0.1046  2.6522  1.2024
 5464TIP3    H237808   6.232   4.387   5.760  2.3564 -0.2781  0.1462
 5465TIP3   OH237809   6.336   5.579   0.128 -0.1141 -0.4396 -0.1468
 5465TIP3    H137810   6.419   5.546   0.092  0.2254  0.8143 -0.5660
 5465TIP3    H237811   6.356   5.596   0.220  0.7365  1.7909 -0.6927
 5466TIP3   OH237812   2.640   0.968   3.273  0.3116  0.3009  0.1640
 5466TIP3    H137813   2.597   1.052   3.255  0.5673  0.3273 -0.3444
 5466TIP3    H237814   2.620   0.951   3.365 -0.0669  0.7299  0.1706
 5467TIP3   OH237815   1.578   3.562  13.255  0.1404  0.2328  0.6400
 5467TIP3    H137816   1.641   3.589  13.322  1.1252 -1.4251  0.4348
 5467TIP3    H237817   1.542   3.479  13.288 -0.0783 -0.1117 -0.4300
 5468TIP3   OH237818   1.120   1.802  17.475  0.5155 -0.0674 -0.6781
 5468TIP3    H137819   1.190   1.793  17.540 -0.1981  0.5414  0.1943
 5468TIP3    H237820   1.067   1.875  17.507 -0.4947 -0.4880 -1.3621
 5469TIP3   OH237821   1.147   2.225  15.946 -0.2433  0.4021 -0.2340
 5469TIP3    H137822   1.199   2.167  15.890  1.5867  0.5160  1.2281
 5469TIP3    H237823   1.213   2.280  15.989 -1.6270  0.8277  1.4224
 5470TIP3   OH237824   0.235   5.091   5.355  0.0156  0.1864  0.5538
 5470TIP3    H137825   0.291   5.014   5.349 -0.3165  0.0352 -1.3267
 5470TIP3    H237826   0.296   5.165   5.350  0.1837  0.0303  0.2580
 5471TIP3   OH237827   1.096   5.738   0.946  0.1974  0.1331 -0.2264
 5471TIP3    H137828   1.180   5.695   0.933  0.0112 -0.0427 -0.8629
 5471TIP3    H237829   1.032   5.667   0.936 -0.0092  0.1939  0.6136
 5472TIP3   OH237830   4.530   2.568   3.935 -0.3095  0.5643 -0.4274
 5472TIP3    H137831   4.574   2.535   4.013 -1.1648 -1.6646 -0.8348
 5472TIP3    H237832   4.444   2.595   3.966 -1.1295 -1.5373 -0.7713
 5473TIP3   OH237833   6.445   4.025   6.830 -0.4685  0.1976  0.3815
 5473TIP3    H137834   6.439   4.080   6.908  2.0879  0.8894  0.1872
 5473TIP3    H237835   6.384   3.953   6.847 -1.8187  1.6038  1.8868
 5474TIP3   OH237836   4.302   6.262  15.950  0.4594 -0.2584 -0.0191
 5474TIP3    H137837   4.369   6.324  15.920  1.4396  0.0912  2.6263
 5474TIP3    H237838   4.247   6.313  16.009 -0.8649 -1.0984 -0.4796
 5475TIP3   OH237839   6.091   5.523   4.501 -0.1597  0.1355  0.1791
 5475TIP3    H137840   6.011   5.479   4.472  0.4011 -0.3863 -0.6258
 5475TIP3    H237841   6.060   5.599   4.550 -1.1450 -0.2887  0.2440
 5476TIP3   OH237842   0.273   1.214  11.936 -0.3072 -0.4085 -0.1094
 5476TIP3    H137843   0.191   1.199  11.982 -1.3084 -1.3804 -2.0982
 5476TIP3    H237844   0.327   1.138  11.956 -0.0586 -0.0059  0.7980
 5477TIP3   OH237845   6.587   4.324   4.333  0.1867  0.8496  0.7972
 5477TIP3    H137846   6.667   4.324   4.386  0.1746  0.6775  0.8167
 5477TIP3    H237847   6.615   4.292   4.247 -0.2540 -1.3516  1.4136
 5478TIP3   OH237848   2.776   0.095  15.541 -0.3612 -0.2983 -0.1447
 5478TIP3    H137849   2.714   0.065  15.608  0.0258 -1.7621 -0.4157
 5478TIP3    H237850   2.726   0.094  15.459 -0.6514  0.8828 -0.0036
 5479TIP3   OH237851   0.850   3.536   4.055 -0.8554 -0.1988 -0.0281
 5479TIP3    H137852   0.909   3.554   4.128 -1.8311  0.1925  0.6716
 5479TIP3    H237853   0.853   3.441   4.044 -0.3235 -0.2092  0.1945
 5480TIP3   OH237854   6.243   3.897  14.107  0.4332 -0.6138  0.1904
 5480TIP3    H137855   6.166   3.866  14.156  0.3861 -1.3497 -0.3292
 5480TIP3    H237856   6.218   3.888  14.015  0.7306  0.2159  0.0252
 5481TIP3   OH237857   6.644   2.913   4.045 -0.3613  0.5741 -0.0974
 5481TIP3    H137858   6.605   2.828   4.063  0.0545  0.4090  0.0446
 5481TIP3    H237859   6.652   2.954   4.131  1.1485 -0.0037  0.0725
 5482TIP3   OH237860   1.057   3.818  11.758 -0.5673 -0.6670  0.3722
 5482TIP3    H137861   1.112   3.754  11.803  1.6546  0.5343 -0.5056
 5482TIP3    H237862   1.067   3.797  11.665 -1.1086 -0.0304  0.1624
 5483TIP3   OH237863   5.794   2.818  12.055  0.2355 -0.2626 -0.4878
 5483TIP3    H137864   5.786   2.776  11.970  0.0443 -1.3005  0.0149
 5483TIP3    H237865   5.716   2.790  12.103 -0.6117  1.7983 -0.5648
 5484TIP3   OH237866   2.593   1.205   1.212  0.3601 -0.1917 -0.0670
 5484TIP3    H137867   2.680   1.166   1.218 -0.0926 -1.0934  1.1870
 5484TIP3    H237868   2.566   1.189   1.122  1.4141 -0.0725 -0.4179
 5485TIP3   OH237869   3.955   2.579  12.644  0.0533  0.0296  0.0272
 5485TIP3    H137870   3.945   2.662  12.597 -1.0263  0.5525  1.1466
 5485TIP3    H237871   3.901   2.517  12.595  0.6526  0.0371 -0.6567
 5486TIP3   OH237872   1.329   5.431   0.891 -0.2608  0.0418 -0.0035
 5486TIP3    H137873   1.259   5.370   0.913 -1.0178  0.6710 -0.5988
 5486TIP3    H237874   1.406   5.376   0.879 -0.6497 -0.6600  0.6764
 5487TIP3   OH237875   2.861   4.786   5.509  0.2033 -0.2516  0.5037
 5487TIP3    H137876   2.907   4.711   5.472  1.8740  1.6439 -1.5586
 5487TIP3    H237877   2.931   4.849   5.529 -1.2317  1.3805  0.6252
 5488TIP3   OH237878   1.517   5.165   2.633 -0.4299  0.1017  0.3713
 5488TIP3    H137879   1.435   5.214   2.620  0.9531  2.3777 -0.3238
 5488TIP3    H237880   1.586   5.227   2.609  1.5498 -1.5671  1.4619
 5489TIP3   OH237881   4.395   2.004  17.042  0.3424 -0.0360  0.0008
 5489TIP3    H137882   4.489   1.986  17.044  0.5708  1.1701  1.5215
 5489TIP3    H237883   4.363   1.973  17.127 -0.0065  2.5652  0.8915
 5490TIP3   OH237884   0.837   4.954   3.646  0.1479  0.2246 -0.3417
 5490TIP3    H137885   0.745   4.971   3.666  0.4951  0.5290  1.0762
 5490TIP3    H237886   0.868   5.034   3.603 -0.1441  0.2643 -0.4810
 5491TIP3   OH237887   4.038   5.837  13.429 -0.4622  0.5617  0.2933
 5491TIP3    H137888   3.982   5.794  13.493  0.1083 -0.0281  0.4166
 5491TIP3    H237889   4.061   5.921  13.468 -0.0733  0.1834  0.9040
 5492TIP3   OH237890   4.641   0.153  13.928  0.1662 -0.4078 -0.3451
 5492TIP3    H137891   4.629   0.163  14.023 -1.6427 -0.7451 -0.4977
 5492TIP3    H237892   4.618   0.239  13.892 -1.6912 -0.9856 -0.6339
 5493TIP3   OH237893   2.230   0.927   6.232  0.2766 -0.2432  0.1567
 5493TIP3    H137894   2.304   0.899   6.179 -0.3853  0.6786 -1.3430
 5493TIP3    H237895   2.227   1.022   6.220 -1.2449 -0.2812  0.0175
 5494TIP3   OH237896   0.753   6.346  14.181  0.1844  0.2588 -0.5691
 5494TIP3    H137897   0.689   6.332  14.111  1.8738 -0.0176 -2.1226
 5494TIP3    H237898   0.733   6.278  14.245  0.0293 -0.9469 -1.8599
 5495TIP3   OH237899   3.650   0.726   3.060 -0.2455 -0.3702 -0.3187
 5495TIP3    H137900   3.630   0.798   3.119  2.4613 -0.0068  0.3125
 5495TIP3    H237901   3.616   0.648   3.104 -0.6632  0.2080  0.3992
 5496TIP3   OH237902   5.701   2.286  14.013  0.1380  0.1837 -0.0897
 5496TIP3    H137903   5.648   2.291  13.933  0.9623 -0.0663 -0.6595
 5496TIP3    H237904   5.735   2.375  14.024  0.4325  0.0974 -0.2997
 5497TIP3   OH237905   2.708   4.257   6.500  0.7465 -0.1291 -0.3135
 5497TIP3    H137906   2.774   4.324   6.517  0.0488  0.3740  0.4819
 5497TIP3    H237907   2.714   4.199   6.576  1.0987 -0.7779 -0.8257
 5498TIP3   OH237908   4.981   4.804  17.563  0.5459 -0.3466  0.4663
 5498TIP3    H137909   5.035   4.737  17.520 -1.5958 -2.1881  0.4344
 5498TIP3    H237910   4.995   4.790  17.657  0.1150 -0.8957  0.4596
 5499TIP3   OH237911   6.072   5.793   1.914 -0.0693  0.0079 -0.1867
 5499TIP3    H137912   6.042   5.856   1.980  0.7320  0.2985 -0.0971
 5499TIP3    H237913   6.145   5.748   1.955  1.0771  0.8693 -1.2113
 5500TIP3   OH237914   2.548   0.580   0.975  0.5459 -0.4519  0.5058
 5500TIP3    H137915   2.533   0.524   1.050 -0.2865  0.6437  1.1935
 5500TIP3    H237916   2.540   0.669   1.009 -3.3767  0.1722 -1.4248
 5501TIP3   OH237917   2.284   2.818   4.649  0.1455  0.3756 -0.1678
 5501TIP3    H137918   2.347   2.877   4.609 -0.9228  0.5362 -1.7187
 5501TIP3    H237919   2.241   2.870   4.717 -0.0863  1.0888 -0.8470
 5502TIP3   OH237920   0.561   3.499   4.688 -0.1630  0.2827 -0.1745
 5502TIP3    H137921   0.608   3.448   4.755  0.9407 -0.8104 -1.6939
 5502TIP3    H237922   0.473   3.511   4.724  1.4095  3.2592  3.2568
 5503TIP3   OH237923   4.747   0.372  17.605 -0.1586 -0.4234 -0.0342
 5503TIP3    H137924   4.769   0.463  17.582  1.1007 -0.9375 -0.9798
 5503TIP3    H237925   4.794   0.357  17.687 -0.0604 -0.3371 -0.0739
 5504TIP3   OH237926   3.707   2.858   7.254  0.1156  0.4721  0.1301
 5504TIP3    H137927   3.772   2.921   7.284  0.8443 -0.1235 -0.1766
 5504TIP3    H237928   3.753   2.804   7.190 -0.5919 -0.1534  0.1327
 5505TIP3   OH237929   0.474   0.583   5.805  0.1806  0.0707 -0.1550
 5505TIP3    H137930   0.426   0.602   5.886  1.4280  1.8288  0.2334
 5505TIP3    H237931   0.417   0.523   5.757 -1.2254  0.0896  1.3995
 5506TIP3   OH237932   1.301   4.924  16.588  0.1624 -0.6713 -0.1222
 5506TIP3    H137933   1.324   4.883  16.672  0.7702 -1.4519 -0.6520
 5506TIP3    H237934   1.257   5.006  16.612  0.1306 -0.9901  0.9547
 5507TIP3   OH237935   5.553   5.416  16.921  0.5230  0.2740 -0.5970
 5507TIP3    H137936   5.549   5.391  16.829 -0.2024  0.8725 -0.7358
 5507TIP3    H237937   5.462   5.421  16.949  0.7470 -0.8703  0.4345
 5508TIP3   OH237938   1.368   4.780   1.055 -0.2319  0.2298  0.2036
 5508TIP3    H137939   1.460   4.756   1.061 -0.3502 -0.3747 -0.2508
 5508TIP3    H237940   1.322   4.714   1.105 -0.6364 -1.0597 -1.7612
 5509TIP3   OH237941   3.073   3.432  15.474  0.0258  0.4895  0.7769
 5509TIP3    H137942   3.040   3.469  15.392  0.6580 -0.2855  0.1627
 5509TIP3    H237943   3.128   3.502  15.511  1.2059  0.2200 -0.3746
 5510TIP3   OH237944   0.016   2.773   1.391 -0.0155 -0.4503  0.6273
 5510TIP3    H137945   0.082   2.705   1.402  0.2696 -0.3382 -0.3414
 5510TIP3    H237946  -0.016   2.790   1.480  1.2678 -0.4960  1.1114
 5511TIP3   OH237947   1.144   1.878   4.346  0.6634  0.3561  0.1088
 5511TIP3    H137948   1.096   1.809   4.299  0.6799  0.0436  0.5473
 5511TIP3    H237949   1.110   1.875   4.435  0.3253  1.2429  0.0215
 5512TIP3   OH237950   4.495   2.949   4.555  0.2245 -0.1869  0.4261
 5512TIP3    H137951   4.550   3.022   4.527  2.9829 -1.2528  2.5336
 5512TIP3    H237952   4.414   2.990   4.583  1.1835  1.9274  0.3385
 5513TIP3   OH237953   4.750   3.601  13.146  0.4805 -0.0341  0.2186
 5513TIP3    H137954   4.781   3.609  13.236  0.3757  0.4996  0.2139
 5513TIP3    H237955   4.700   3.520  13.144  2.2010 -1.1327  0.1276
 5514TIP3   OH237956   5.436   0.279   4.101 -0.3044 -0.1071 -0.3959
 5514TIP3    H137957   5.530   0.295   4.097 -0.4434  0.6541 -1.0004
 5514TIP3    H237958   5.409   0.314   4.186 -0.2868  1.2230 -0.9046
 5515TIP3   OH237959   3.250   5.324  13.123 -0.0161  0.7400 -0.7776
 5515TIP3    H137960   3.345   5.315  13.113 -0.1399 -0.7743 -0.8043
 5515TIP3    H237961   3.217   5.234  13.122 -1.6277  1.2863 -2.3260
 5516TIP3   OH237962   4.048   0.391  13.278  0.6243  0.4100 -0.3729
 5516TIP3    H137963   3.971   0.448  13.279  1.8198  2.1797 -2.2650
 5516TIP3    H237964   4.012   0.303  13.287 -1.4751  1.2701  0.3732
 5517TIP3   OH237965   2.230   6.383  17.612 -0.3298 -0.1401  0.2131
 5517TIP3    H137966   2.142   6.368  17.645 -0.5920 -0.7381 -0.7377
 5517TIP3    H237967   2.223   6.375  17.517  0.7090  0.0014  0.1071
 5518TIP3   OH237968   2.118   5.672   2.902 -0.4177 -0.3372 -0.2017
 5518TIP3    H137969   2.122   5.659   2.996 -0.2568  0.6145 -0.0673
 5518TIP3    H237970   2.144   5.588   2.865 -0.9863 -0.8812  0.5930
 5519TIP3   OH237971   1.204   3.821   5.741  0.3787  0.4519 -0.2767
 5519TIP3    H137972   1.191   3.877   5.817 -0.3256  0.0416 -0.0807
 5519TIP3    H237973   1.287   3.849   5.704 -0.0306  1.7072 -0.2673
 5520TIP3   OH237974   0.397   2.839   3.527 -0.4798 -0.0072  0.6615
 5520TIP3    H137975   0.446   2.862   3.606  0.1243  0.0308  0.2795
 5520TIP3    H237976   0.434   2.754   3.501  2.7602  2.0379 -2.2647
 5521TIP3   OH237977   3.773   1.517  16.587 -0.4814  0.1465 -0.3420
 5521TIP3    H137978   3.727   1.596  16.616 -0.7430 -0.7390  1.8594
 5521TIP3    H237979   3.863   1.528  16.618 -0.5527 -0.4565  0.1114
 5522TIP3   OH237980   0.613   5.686  15.322 -0.1325 -0.0714  0.3865
 5522TIP3    H137981   0.643   5.750  15.387 -1.6720  0.3743  0.6952
 5522TIP3    H237982   0.653   5.715  15.240 -1.5613  1.9255  0.3117
 5523TIP3   OH237983   2.219   0.861  15.499 -0.0173  0.1646  0.1217
 5523TIP3    H137984   2.167   0.788  15.530  0.3899 -1.3381 -2.4666
 5523TIP3    H237985   2.307   0.826  15.489  1.0846  2.0303  2.1431
 5524TIP3   OH237986   5.896   6.370  12.737 -0.1788  0.7483 -0.1426
 5524TIP3    H137987   5.815   6.352  12.785 -1.2518 -0.0092 -2.0995
 5524TIP3    H237988   5.939   6.439  12.787 -2.0528  1.1861  0.9591
 5525TIP3   OH237989   1.214   6.177   4.453 -0.1146 -0.8227  0.3826
 5525TIP3    H137990   1.157   6.244   4.493  1.3517  1.0407 -0.5058
 5525TIP3    H237991   1.261   6.139   4.527 -1.6671 -1.6216  1.0061
 5526TIP3   OH237992   1.770   1.366   0.335 -0.2819 -0.0444  0.0214
 5526TIP3    H137993   1.712   1.306   0.288 -0.1836 -0.9247  0.9812
 5526TIP3    H237994   1.715   1.442   0.353 -0.3472  0.2838 -1.4109
 5527TIP3   OH237995   4.643   3.759   5.338  0.2685 -0.4394 -0.2273
 5527TIP3    H137996   4.665   3.843   5.299  0.0783  0.5378  1.6711
 5527TIP3    H237997   4.580   3.780   5.407 -0.6380 -2.2781 -0.4169
 5528TIP3   OH237998   2.508   4.547  11.839  0.3195  0.1428  0.0908
 5528TIP3    H137999   2.420   4.532  11.804  0.6159  1.4137 -1.3063
 5528TIP3    H238000   2.566   4.499  11.780  0.6461  0.3252  0.2579
 5529TIP3   OH238001   1.963   3.009   3.959  0.1440  0.3681 -0.3268
 5529TIP3    H138002   1.973   2.939   3.894 -0.2862 -0.6440  0.6624
 5529TIP3    H238003   1.895   3.066   3.923 -1.5519 -1.2856  0.1230
 5530TIP3   OH238004   1.858   2.014  16.814 -0.4952 -0.1225  0.2788
 5530TIP3    H138005   1.868   1.991  16.721 -1.3066 -0.6360  0.3018
 5530TIP3    H238006   1.832   2.106  16.813  0.0534  0.0326  0.0293
 5531TIP3   OH238007   0.223   0.921  13.767 -0.1433 -0.8168 -0.4423
 5531TIP3    H138008   0.163   0.869  13.821 -0.7399  1.5586  1.3363
 5531TIP3    H238009   0.309   0.908  13.809 -0.1274 -1.0135 -0.5315
 5532TIP3   OH238010   6.629   5.061  15.895 -0.5830  0.5829  0.1176
 5532TIP3    H138011   6.658   5.103  15.814 -0.0017  0.7204  0.3941
 5532TIP3    H238012   6.652   5.123  15.963  1.3505 -0.6493  0.6687
 5533TIP3   OH238013   6.165   4.835   0.723  0.4884 -0.4650 -0.5242
 5533TIP3    H138014   6.093   4.837   0.660 -2.0297 -2.7834  1.9831
 5533TIP3    H238015   6.185   4.742   0.734  1.8556 -0.0485  1.0160
 5534TIP3   OH238016   6.416   4.372   3.814  0.2595 -0.2444  0.0328
 5534TIP3    H138017   6.404   4.465   3.835 -1.3116 -0.2389 -0.7574
 5534TIP3    H238018   6.332   4.345   3.777  0.8594 -1.8662 -0.2037
 5535TIP3   OH238019   0.858   4.202  15.140 -0.0472 -0.4323  0.0703
 5535TIP3    H138020   0.881   4.259  15.212 -3.1539  0.0656  0.8189
 5535TIP3    H238021   0.864   4.113  15.176 -1.2212 -0.2032  0.8876
 5536TIP3   OH238022   1.285   5.940  14.423 -0.1477 -0.2758 -0.7958
 5536TIP3    H138023   1.207   5.915  14.374 -0.0934  0.4057 -1.2410
 5536TIP3    H238024   1.289   6.035  14.416  0.8345 -0.3177 -0.9667
 5537TIP3   OH238025   1.948   5.720   2.696  0.2755  0.1711 -0.2939
 5537TIP3    H138026   2.001   5.681   2.626  0.3971  0.0517 -0.1371
 5537TIP3    H238027   2.002   5.711   2.775 -0.4954 -1.0941  0.1100
 5538TIP3   OH238028   3.884   6.544  11.965 -0.2129 -0.4220  0.0925
 5538TIP3    H138029   3.956   6.583  12.015 -0.4802 -1.6291  1.4859
 5538TIP3    H238030   3.913   6.454  11.947 -0.5271 -0.3009 -1.1410
 5539TIP3   OH238031   4.156   1.547   0.213  0.4885 -0.0195  0.2915
 5539TIP3    H138032   4.216   1.617   0.237  0.8947 -0.7196  1.3898
 5539TIP3    H238033   4.204   1.496   0.148 -0.1238  1.1553 -1.1358
 5540TIP3   OH238034   1.127   6.431   6.967 -0.1233  0.3955  0.4471
 5540TIP3    H138035   1.045   6.383   6.972  0.5432 -0.6769  2.0383
 5540TIP3    H238036   1.193   6.364   6.948  0.3968  1.2397 -0.8201
 5541TIP3   OH238037   5.102   4.149   5.375 -0.2398 -1.1031  0.4437
 5541TIP3    H138038   5.072   4.100   5.452  0.7652  0.5813  1.9739
 5541TIP3    H238039   5.090   4.241   5.398  1.8649 -0.4913 -0.6273
 5542TIP3   OH238040   5.577   6.512  11.451 -0.8712  0.3392  0.1639
 5542TIP3    H138041   5.605   6.422  11.467  1.1655  1.2034  1.9661
 5542TIP3    H238042   5.564   6.517  11.356  0.9870 -1.3365 -0.2465
 5543TIP3   OH238043   1.903   4.583   4.204  0.0272  0.1500 -0.4602
 5543TIP3    H138044   1.977   4.576   4.265  0.4013 -0.5651 -0.9863
 5543TIP3    H238045   1.898   4.677   4.185  0.3846  0.2881  0.0762
 5544TIP3   OH238046   1.781   2.766   5.778 -0.2900  1.0188  0.4937
 5544TIP3    H138047   1.876   2.754   5.776 -0.3934  0.2192 -0.9644
 5544TIP3    H238048   1.757   2.754   5.870  0.9938  1.0321  0.8430
 5545TIP3   OH238049   4.089   1.616  11.447 -0.1674  0.9698 -0.0793
 5545TIP3    H138050   4.163   1.638  11.391  0.0376  0.9121  0.1649
 5545TIP3    H238051   4.028   1.571  11.389 -0.3384  1.6706 -0.4492
 5546TIP3   OH238052   0.268   2.235  14.118  0.5312  0.0960 -0.6505
 5546TIP3    H138053   0.244   2.307  14.059  0.1949 -0.2318 -0.9205
 5546TIP3    H238054   0.189   2.181  14.122  0.7718 -0.2367 -0.4204
 5547TIP3   OH238055   5.310   6.089  15.827 -0.4775 -0.1038  0.5464
 5547TIP3    H138056   5.331   6.178  15.853  0.5630  0.7287 -2.6932
 5547TIP3    H238057   5.395   6.051  15.801 -1.1543 -1.3871  0.0999
 5548TIP3   OH238058   1.095   5.574   5.095  0.2667 -0.3105  0.2044
 5548TIP3    H138059   1.070   5.660   5.063  0.4180 -0.3022  0.1078
 5548TIP3    H238060   1.019   5.518   5.078  0.2730 -0.2607  0.0169
 5549TIP3   OH238061   4.125   3.620  14.382  0.6373 -0.4524 -0.0012
 5549TIP3    H138062   4.070   3.542  14.392  1.3165 -1.1066 -1.0900
 5549TIP3    H238063   4.202   3.602  14.436  0.7243 -0.4838 -0.1329
 5550TIP3   OH238064   4.938   0.816  12.367 -0.1176 -0.2710 -0.0146
 5550TIP3    H138065   4.939   0.730  12.325  0.5546 -2.0428  3.3049
 5550TIP3    H238066   5.003   0.810  12.437 -0.7065  2.6467  0.9465
 5551TIP3   OH238067   2.682   2.452   5.625 -0.3217 -0.1563  0.6612
 5551TIP3    H138068   2.617   2.382   5.634 -1.5910  1.0263  0.9824
 5551TIP3    H238069   2.745   2.436   5.696 -1.6042  0.0503  1.8939
 5552TIP3   OH238070   0.617   2.302  17.026  0.6743 -0.0271  0.0252
 5552TIP3    H138071   0.532   2.319  17.066  0.7003  0.6779 -0.2081
 5552TIP3    H238072   0.620   2.207  17.014 -0.5899  0.0465 -1.0860
 5553TIP3   OH238073   0.247   1.776  13.847  0.0070 -0.3483  0.0267
 5553TIP3    H138074   0.317   1.838  13.868 -0.8057  0.0078  1.8452
 5553TIP3    H238075   0.172   1.830  13.823 -0.3148 -0.6496  0.3300
 5554TIP3   OH238076   2.388   4.083   0.310 -0.1364 -0.0904  1.0705
 5554TIP3    H138077   2.455   4.143   0.342 -0.3135  0.1643  0.9686
 5554TIP3    H238078   2.309   4.137   0.302  0.2126  0.2083 -1.0934
 5555TIP3   OH238079   4.037   5.303  14.032 -0.0206  0.1528 -0.2490
 5555TIP3    H138080   4.002   5.218  14.057 -1.2806  1.2793  2.1355
 5555TIP3    H238081   4.048   5.298  13.937  1.2155 -3.0662 -0.0459
 5556TIP3   OH238082   2.369   6.443  13.618 -0.5058  0.6163  0.2371
 5556TIP3    H138083   2.377   6.496  13.538 -0.4951  1.3807  0.7391
 5556TIP3    H238084   2.275   6.436  13.633 -0.5162  0.2898  0.0522
 5557TIP3   OH238085   2.881   0.735   0.879  0.8358  0.1218 -0.7357
 5557TIP3    H138086   2.856   0.820   0.845 -0.2388 -0.4580 -1.4629
 5557TIP3    H238087   2.852   0.737   0.971 -0.9202 -0.1073 -1.2471
 5558TIP3   OH238088   2.149   4.003  16.740 -0.1709 -0.8533 -0.3861
 5558TIP3    H138089   2.213   3.941  16.774  0.8519 -0.4592 -1.5191
 5558TIP3    H238090   2.175   4.017  16.649 -0.2697  1.3531 -0.1367
 5559TIP3   OH238091   0.199   5.579   5.791 -0.2443 -0.1854 -0.5306
 5559TIP3    H138092   0.136   5.606   5.725  0.7681 -2.4194 -2.5327
 5559TIP3    H238093   0.267   5.646   5.790 -1.3413  0.9629 -0.0845
 5560TIP3   OH238094   3.904   6.555   0.717 -0.1035 -0.0669  0.3530
 5560TIP3    H138095   3.943   6.610   0.785 -1.5470  0.0572  1.1102
 5560TIP3    H238096   3.823   6.600   0.693 -0.2934 -0.8252 -0.4718
 5561TIP3   OH238097   5.122   6.555   5.231  0.3672 -0.4906  0.4000
 5561TIP3    H138098   5.030   6.557   5.204  0.2616 -1.3749  0.6568
 5561TIP3    H238099   5.152   6.645   5.220 -0.7563 -0.0128  1.0725
 5562TIP3   OH238100   1.622   4.942   4.792  0.1867  0.7835 -0.0563
 5562TIP3    H138101   1.633   4.865   4.848 -0.8503  1.0677  0.5820
 5562TIP3    H238102   1.527   4.955   4.789  0.2073  0.7449 -1.9520
 5563TIP3   OH238103   3.184   2.749   2.491  0.8698 -0.0928 -0.2031
 5563TIP3    H138104   3.220   2.814   2.431  0.6785 -0.0658 -0.2903
 5563TIP3    H238105   3.152   2.800   2.566  1.7305 -0.1822  0.2448
 5564TIP3   OH238106   0.367   6.409   0.305  0.1530 -0.1434  0.1938
 5564TIP3    H138107   0.438   6.474   0.311  0.7363 -0.6721 -0.7211
 5564TIP3    H238108   0.350   6.400   0.212  0.6784 -1.9158  0.2222
 5565TIP3   OH238109   4.343   3.686  13.226  0.6768 -0.1561  0.0665
 5565TIP3    H138110   4.340   3.645  13.312 -0.1993 -0.2068  0.0171
 5565TIP3    H238111   4.256   3.723  13.214  1.3302  1.4017 -0.0559
 5566TIP3   OH238112   6.580   3.545   6.521  0.5172 -0.3148  0.6895
 5566TIP3    H138113   6.521   3.543   6.445  1.3112  1.7250 -0.0599
 5566TIP3    H238114   6.524   3.526   6.596 -0.7633 -0.0480 -0.1710
 5567TIP3   OH238115   2.480   6.007   3.035  0.6364  0.0380 -0.1531
 5567TIP3    H138116   2.480   6.102   3.025  0.3209 -0.0049 -0.6246
 5567TIP3    H238117   2.546   5.976   2.972  0.6472 -0.0651 -0.0928
 5568TIP3   OH238118   1.882   4.525  12.812  0.4096 -0.1716 -1.2052
 5568TIP3    H138119   1.818   4.479  12.758 -0.3355  0.0701 -0.5630
 5568TIP3    H238120   1.907   4.462  12.879  0.7377 -0.2198 -1.3738
 5569TIP3   OH238121   5.176   5.461  12.595 -0.1571  0.1788 -0.0558
 5569TIP3    H138122   5.163   5.401  12.669 -1.7740  0.0037 -0.4289
 5569TIP3    H238123   5.222   5.536  12.632 -1.5450  0.4050  1.3374
 5570TIP3   OH238124   3.832   0.214  17.013  0.0458 -0.1277  0.2427
 5570TIP3    H138125   3.779   0.188  16.938  2.7539  0.7032 -2.1623
 5570TIP3    H238126   3.843   0.309  17.004  2.6319 -0.3624  0.0102
 5571TIP3   OH238127   3.439   3.626  15.460 -0.4080  0.3130 -0.5041
 5571TIP3    H138128   3.464   3.713  15.427 -0.3451  0.7967  0.7599
 5571TIP3    H238129   3.454   3.631  15.555 -0.5855 -1.0216 -0.3847
 5572TIP3   OH238130   1.190   3.484  13.340  0.1669  0.2288 -0.6921
 5572TIP3    H138131   1.194   3.525  13.253 -1.1568  0.2937 -0.7318
 5572TIP3    H238132   1.108   3.514  13.378  0.7137  0.1843  0.5927
 5573TIP3   OH238133   3.220   5.891  16.712  0.2519  0.2747 -0.1281
 5573TIP3    H138134   3.168   5.816  16.741 -0.3776  0.6179 -0.3421
 5573TIP3    H238135   3.303   5.883  16.759 -0.3741  0.2715  0.9951
 5574TIP3   OH238136   6.646   3.796  14.002  0.5178 -0.2132 -0.3254
 5574TIP3    H138137   6.558   3.789  14.038  0.3366  1.1859 -0.4414
 5574TIP3    H238138   6.634   3.838  13.917  1.4140  1.6401  0.4048
 5575TIP3   OH238139   1.993   3.186   5.791  0.8270 -0.0232 -0.0625
 5575TIP3    H138140   2.013   3.195   5.698  1.8071 -0.4063  0.1034
 5575TIP3    H238141   1.966   3.274   5.818 -0.5073 -0.1298 -0.9282
 5576TIP3   OH238142   1.518   5.936  13.818  0.6137  0.8798  0.3588
 5576TIP3    H138143   1.528   5.890  13.901 -0.1328 -3.4083 -1.6593
 5576TIP3    H238144   1.607   5.956  13.791  1.3015 -1.9869  0.1666
 5577TIP3   OH238145   0.707   2.948   0.528 -0.3573 -0.1625 -0.3787
 5577TIP3    H138146   0.652   2.947   0.449 -0.3693  0.2133 -0.3781
 5577TIP3    H238147   0.699   2.860   0.564  0.3813 -0.6213 -1.3085
 5578TIP3   OH238148   0.839   3.879   5.002  0.4608 -0.0528  0.0333
 5578TIP3    H138149   0.818   3.866   5.094  1.2484 -1.0537  0.0865
 5578TIP3    H238150   0.754   3.877   4.957  0.2220 -1.7620  0.4953
 5579TIP3   OH238151   0.056   3.701   5.933  0.4461 -0.6398  0.1259
 5579TIP3    H138152   0.005   3.622   5.914  0.5740 -0.9465  0.9754
 5579TIP3    H238153   0.113   3.675   6.005 -0.6660  0.6678  1.5779
 5580TIP3   OH238154   0.117   5.957   0.793  0.6224  0.1209  0.9539
 5580TIP3    H138155   0.197   5.913   0.824  0.0785  0.7913  3.5517
 5580TIP3    H238156   0.072   5.984   0.873 -0.8000  2.3386 -0.4821
 5581TIP3   OH238157   2.704   3.285  14.724 -0.2251 -0.0434 -0.5257
 5581TIP3    H138158   2.747   3.256  14.644 -0.0608 -0.3633 -0.3222
 5581TIP3    H238159   2.771   3.279  14.792  0.2678  2.2187 -0.7187
 5582TIP3   OH238160   4.539   1.804  11.645 -0.4307  0.3837  0.2659
 5582TIP3    H138161   4.520   1.765  11.731 -2.6101 -2.6428 -1.3814
 5582TIP3    H238162   4.593   1.738  11.601  0.7475  1.9254 -0.6840
 5583TIP3   OH238163   3.631   5.411  16.856  0.4162  0.5775 -0.3510
 5583TIP3    H138164   3.544   5.423  16.818  1.5158 -0.8287 -3.6111
 5583TIP3    H238165   3.676   5.495  16.841 -0.0149  0.9553  0.4097
 5584TIP3   OH238166   2.529   1.119   4.166  0.5360 -0.2867  0.3030
 5584TIP3    H138167   2.489   1.205   4.185  0.0405 -0.4268 -0.0967
 5584TIP3    H238168   2.455   1.059   4.164  0.9484 -0.8514  1.2448
 5585TIP3   OH238169   5.908   4.808  11.975 -0.7413  0.0232 -0.1111
 5585TIP3    H138170   5.827   4.773  11.936 -0.2125 -0.0310 -1.1804
 5585TIP3    H238171   5.911   4.768  12.062 -1.8359 -0.0239 -0.0810
 5586TIP3   OH238172   0.545   2.952   0.288 -0.9608 -0.4944  0.1356
 5586TIP3    H138173   0.511   3.036   0.259  2.2932  0.7357 -0.5452
 5586TIP3    H238174   0.472   2.891   0.276 -3.8457  2.3238  1.7906
 5587TIP3   OH238175   0.382   6.146  11.743  0.1584  0.4505  0.1056
 5587TIP3    H138176   0.303   6.199  11.743  0.6256  1.1650 -0.0467
 5587TIP3    H238177   0.447   6.200  11.789  0.1379 -0.7752  1.6870
 5588TIP3   OH238178   4.177   4.224  14.958 -0.6016 -0.0148  0.3188
 5588TIP3    H138179   4.144   4.260  14.876 -1.0440 -0.9376  0.0840
 5588TIP3    H238180   4.165   4.295  15.021 -1.4418  0.2663 -0.1372
 5589TIP3   OH238181   3.979   5.157   1.199  0.0497  0.3431 -0.2572
 5589TIP3    H138182   3.962   5.207   1.279  1.3666 -0.4524  0.5472
 5589TIP3    H238183   4.011   5.072   1.229  1.3539  0.2960 -1.6214
 5590TIP3   OH238184   2.927   3.402   5.539 -0.1905  0.6709  0.7317
 5590TIP3    H138185   2.954   3.413   5.630  0.2953 -0.6724  0.7767
 5590TIP3    H238186   3.009   3.405   5.490 -0.3382  0.3602  0.4626
 5591TIP3   OH238187   4.671   4.034  12.065 -0.0593  0.4503  0.7421
 5591TIP3    H138188   4.718   4.114  12.089  1.1649 -0.5876  1.9515
 5591TIP3    H238189   4.706   3.967  12.123 -1.8269 -0.7631  0.4840
 5592TIP3   OH238190   0.302   0.094   6.005  0.4092  0.2516 -0.0414
 5592TIP3    H138191   0.243   0.071   6.077  0.6402  2.4336  0.9168
 5592TIP3    H238192   0.269   0.177   5.973  1.0972 -0.0549 -1.6434
 5593TIP3   OH238193   0.218   0.979  14.673  0.2220  0.2903  0.0345
 5593TIP3    H138194   0.267   1.043  14.726  0.1661 -1.0342  1.7933
 5593TIP3    H238195   0.126   1.000  14.689  0.1547  1.5050 -1.6662
 5594TIP3   OH238196   1.079   6.669   1.552  0.0804 -0.0402 -0.2430
 5594TIP3    H138197   1.126   6.697   1.473 -2.3491  1.6575 -1.2191
 5594TIP3    H238198   1.063   6.576   1.539 -0.0059  0.1502 -1.6303
 5595TIP3   OH238199   5.829   1.370   4.952 -0.1246 -0.0004 -0.2908
 5595TIP3    H138200   5.862   1.280   4.944  1.5497  0.4404  1.0424
 5595TIP3    H238201   5.831   1.388   5.046  2.1880  2.2843 -0.6490
 5596TIP3   OH238202   0.639   0.628  11.044  0.0797  0.5827 -0.1219
 5596TIP3    H138203   0.634   0.540  11.081  1.0913  0.4457 -0.2651
 5596TIP3    H238204   0.554   0.668  11.064  0.0001 -0.0508  0.9022
 5597TIP3   OH238205   1.043   3.236   6.119 -0.3504 -1.1685  0.0189
 5597TIP3    H138206   1.025   3.227   6.213  1.2971 -1.5706  0.3354
 5597TIP3    H238207   1.047   3.147   6.086 -1.1832 -1.0211 -0.4976
 5598TIP3   OH238208   0.461   3.659   2.525 -0.0211  0.5802 -0.7512
 5598TIP3    H138209   0.448   3.583   2.468 -0.3786  0.4270 -0.4662
 5598TIP3    H238210   0.376   3.702   2.527 -0.5349 -0.4406  1.1358
 5599TIP3   OH238211   5.929   5.474   2.461  0.4875  0.3451  0.7151
 5599TIP3    H138212   5.865   5.438   2.523  0.2960 -0.3756  0.1115
 5599TIP3    H238213   5.908   5.567   2.456 -1.3074 -0.0715 -0.3594
 5600TIP3   OH238214   5.801   5.092  11.268  0.0731 -0.1056 -0.4871
 5600TIP3    H138215   5.831   5.183  11.275  1.8676 -0.7637  1.2208
 5600TIP3    H238216   5.706   5.098  11.272  0.1350  1.7218 -0.9043
 5601TIP3   OH238217   4.930   1.131  16.709 -0.0560 -0.4460  0.8919
 5601TIP3    H138218   4.951   1.189  16.636  0.7893 -1.5812  0.2102
 5601TIP3    H238219   4.871   1.066  16.672 -4.2516  1.9772  2.4719
 5602TIP3   OH238220   2.097   3.906  13.538 -0.3225 -0.5767  0.0279
 5602TIP3    H138221   2.165   3.929  13.602 -1.4532  2.1559  0.3621
 5602TIP3    H238222   2.130   3.940  13.455 -0.8416 -0.0917  0.0165
 5603TIP3   OH238223   0.584   0.410   4.493  0.2592  0.0977 -0.2262
 5603TIP3    H138224   0.599   0.345   4.562  2.1485  0.0102 -0.6704
 5603TIP3    H238225   0.655   0.473   4.504  0.2040  0.4400 -1.6710
 5604TIP3   OH238226   1.891   0.600  15.364  0.5797  0.0359  0.4953
 5604TIP3    H138227   1.866   0.689  15.388  2.1880  0.5883  0.2282
 5604TIP3    H238228   1.815   0.567  15.315 -0.3435  0.9708  1.2327
 5605TIP3   OH238229   1.772   0.923  15.787  0.1961 -0.2815  0.2919
 5605TIP3    H138230   1.847   0.974  15.756  0.4995 -0.7693  0.2018
 5605TIP3    H238231   1.725   0.982  15.846  0.0214  0.4115 -0.5238
 5606TIP3   OH238232   3.619   3.626   6.213  0.6253 -0.6836 -0.3329
 5606TIP3    H138233   3.696   3.679   6.233 -0.6615  1.8144 -1.5291
 5606TIP3    H238234   3.624   3.610   6.118 -2.0106  2.7009 -1.2346
 5607TIP3   OH238235   6.357   3.403  12.390 -0.1530 -0.2118  0.1839
 5607TIP3    H138236   6.305   3.395  12.310  0.4738  1.5988 -0.4607
 5607TIP3    H238237   6.419   3.474  12.372  0.4517 -0.1945  2.0408
 5608TIP3   OH238238   5.648   1.262   1.199  0.6004  0.4868 -0.1442
 5608TIP3    H138239   5.626   1.294   1.286  1.1456 -1.0417  0.5886
 5608TIP3    H238240   5.743   1.255   1.199  0.4957 -1.6453 -0.0314
 5609TIP3   OH238241   4.764   4.069  17.122  0.0390 -0.0249 -0.2545
 5609TIP3    H138242   4.709   4.053  17.045  1.7345 -1.6316 -1.1951
 5609TIP3    H238243   4.706   4.114  17.184 -1.9689 -0.5738 -1.6504
 5610TIP3   OH238244   0.558   5.851  14.367  0.9055 -0.4163 -0.3094
 5610TIP3    H138245   0.582   5.942  14.349  0.9621 -0.4679 -0.4892
 5610TIP3    H238246   0.632   5.799  14.335  0.0303 -0.6725 -2.0149
 5611TIP3   OH238247   3.525   3.649  11.261 -0.8139  0.1026  0.0271
 5611TIP3    H138248   3.527   3.720  11.198  0.2489  0.0084 -0.0493
 5611TIP3    H238249   3.523   3.692  11.346  0.0415  0.2234 -0.0145
 5612TIP3   OH238250   3.737   4.303   0.215 -0.1635 -0.4386  0.4993
 5612TIP3    H138251   3.684   4.348   0.280 -2.4615 -0.5013 -1.1874
 5612TIP3    H238252   3.702   4.214   0.212  1.3179 -1.0652  0.6193
 5613TIP3   OH238253   1.792   2.162   3.976  0.2738 -0.7356  0.4161
 5613TIP3    H138254   1.706   2.140   3.940  0.2217  0.0783  0.0198
 5613TIP3    H238255   1.777   2.173   4.070 -0.1428 -0.1840  0.2888
 5614TIP3   OH238256   6.338   6.384   0.764  0.0891  0.5703  0.3488
 5614TIP3    H138257   6.281   6.396   0.689  0.7161 -1.6346 -0.5606
 5614TIP3    H238258   6.423   6.362   0.726 -0.0183 -2.4942  1.5889
 5615TIP3   OH238259   2.880   0.348   1.760  0.0125 -0.0589  0.3504
 5615TIP3    H138260   2.797   0.302   1.774 -0.1294 -0.2601 -0.9638
 5615TIP3    H238261   2.930   0.290   1.703  0.8094  0.3455  0.6227
 5616TIP3   OH238262   4.097   6.037   2.519 -0.2706 -1.1694  0.0845
 5616TIP3    H138263   4.189   6.047   2.497 -0.0172 -1.0802  1.1426
 5616TIP3    H238264   4.092   5.956   2.570 -0.9435 -1.7129 -0.7940
 5617TIP3   OH238265   5.262   0.044  15.947  0.1079  0.1271  0.5801
 5617TIP3    H138266   5.190   0.081  15.896  0.2485  0.2743  0.4885
 5617TIP3    H238267   5.341   0.080  15.907  0.3112 -1.1518 -0.2428
 5618TIP3   OH238268   2.236   4.773  15.788 -0.1400  0.1366 -0.4811
 5618TIP3    H138269   2.191   4.845  15.742 -1.0183 -0.4452 -0.5614
 5618TIP3    H238270   2.326   4.804  15.798 -0.2101  0.7670 -1.5668
 5619TIP3   OH238271   2.927   6.083   0.255  0.2965 -0.3765  0.1588
 5619TIP3    H138272   2.938   6.176   0.277  0.7342 -0.5873  0.8628
 5619TIP3    H238273   2.883   6.046   0.331 -0.5191 -0.6116 -0.4153
 5620TIP3   OH238274   5.447   1.124   3.511  0.2535 -0.0912 -0.7248
 5620TIP3    H138275   5.398   1.154   3.434  0.7297 -1.5045 -1.6095
 5620TIP3    H238276   5.481   1.038   3.486  2.3953  0.4261  0.2022
 5621TIP3   OH238277   3.926   1.345  16.358 -0.0126  0.4370 -0.4274
 5621TIP3    H138278   3.919   1.418  16.419 -0.2250  0.3299 -0.3251
 5621TIP3    H238279   3.998   1.292  16.391 -2.0335 -1.2758  1.4811
 5622TIP3   OH238280   5.958   0.363  13.669  0.1019 -0.2210  0.3681
 5622TIP3    H138281   5.929   0.274  13.691  0.0757 -0.2441  0.2423
 5622TIP3    H238282   6.040   0.349  13.621 -0.8139 -0.2831 -1.2616
 5623TIP3   OH238283   4.450   4.666  17.397  0.6519 -0.4249 -0.1138
 5623TIP3    H138284   4.536   4.690  17.431  0.3580 -1.3399  1.3637
 5623TIP3    H238285   4.425   4.588  17.447 -0.9725 -0.2744 -0.6214
 5624TIP3   OH238286   1.992   0.692  11.292  0.6470 -0.0324 -0.3932
 5624TIP3    H138287   2.049   0.753  11.247 -0.1533  0.2032 -1.1161
 5624TIP3    H238288   2.034   0.606  11.282  0.9942  0.1749 -0.6858
 5625TIP3   OH238289   3.970   0.983   0.137 -0.5594  0.2336 -0.1701
 5625TIP3    H138290   4.040   0.924   0.165 -0.1657  0.9468  0.3586
 5625TIP3    H238291   3.889   0.937   0.162 -0.2456  0.9920  2.6013
 5626TIP3   OH238292   0.103   3.330  14.336  0.0037 -0.6835  0.1918
 5626TIP3    H138293   0.058   3.414  14.324 -1.5259 -1.6294 -1.3317
 5626TIP3    H238294   0.176   3.349  14.394  0.3718  1.9351 -0.9783
 5627TIP3   OH238295   5.595   5.733  11.005 -0.3408 -0.0129  0.7597
 5627TIP3    H138296   5.689   5.720  10.993 -0.5475 -0.2044 -0.9893
 5627TIP3    H238297   5.562   5.647  11.034  0.0840  0.2201  1.9912
 5628TIP3   OH238298   6.061   5.549   0.909  0.0422  0.1083 -0.3691
 5628TIP3    H138299   6.141   5.540   0.856  0.8734  1.4104  0.5938
 5628TIP3    H238300   6.033   5.639   0.895 -0.4159  0.1005  0.4257
 5629TIP3   OH238301   5.143   6.379   0.990 -0.3995  0.3264  1.3631
 5629TIP3    H138302   5.097   6.425   1.060 -0.7593  0.4361  1.0574
 5629TIP3    H238303   5.218   6.338   1.033 -0.4901  0.5870  1.7687
 5630TIP3   OH238304   0.491   6.202   1.974  0.1840 -0.2746  0.1299
 5630TIP3    H138305   0.490   6.296   1.957 -1.6851 -0.8015 -3.8280
 5630TIP3    H238306   0.445   6.192   2.058  0.8993  2.2737  0.9216
 5631TIP3   OH238307   5.248   0.512   1.601 -0.2330 -0.0743  0.0047
 5631TIP3    H138308   5.242   0.427   1.643 -2.2226  0.1608  0.2610
 5631TIP3    H238309   5.308   0.562   1.656  1.6275 -1.5204 -0.6067
 5632TIP3   OH238310   6.532   2.112  16.206  0.2982  0.1237 -0.2350
 5632TIP3    H138311   6.500   2.145  16.122 -0.4379 -0.4719 -0.2042
 5632TIP3    H238312   6.616   2.071  16.185  0.0835 -0.0945 -0.7025
 5633TIP3   OH238313   1.411   0.746   5.413 -0.3073 -0.2624 -0.0050
 5633TIP3    H138314   1.475   0.683   5.379  0.3216  1.2227 -1.7475
 5633TIP3    H238315   1.330   0.725   5.366  0.4084  1.3974 -2.1820
 5634TIP3   OH238316   2.745   6.355   0.642  0.3410  0.1967 -0.5942
 5634TIP3    H138317   2.840   6.353   0.632  0.4557  3.4104 -1.0677
 5634TIP3    H238318   2.711   6.342   0.554  0.4493  1.5092 -0.8407
 5635TIP3   OH238319   5.131   3.276  11.971  0.2893  0.1135  0.3371
 5635TIP3    H138320   5.190   3.213  12.013  2.2324  0.4681 -1.6253
 5635TIP3    H238321   5.172   3.293  11.886 -1.1613  2.6343  0.0512
 5636TIP3   OH238322   2.274   4.351  12.573  0.2960  0.2425 -0.0571
 5636TIP3    H138323   2.289   4.420  12.638 -0.6830  0.8452 -0.4536
 5636TIP3    H238324   2.188   4.316  12.594  0.3806 -0.2082 -0.4468
 5637TIP3   OH238325   2.389   2.239  13.008  0.7365  0.2401  0.5110
 5637TIP3    H138326   2.423   2.265  12.923  1.0708 -0.3052  0.4702
 5637TIP3    H238327   2.411   2.146  13.015  1.1500  0.3912  1.3937
 5638TIP3   OH238328   4.217   4.473   2.186  0.3562 -0.6410  0.2724
 5638TIP3    H138329   4.284   4.423   2.140  1.5209  1.2969 -0.2449
 5638TIP3    H238330   4.261   4.554   2.213 -2.2044  1.7454 -1.9981
 5639TIP3   OH238331   1.792   0.481  15.779 -0.1117  0.2573 -0.1049
 5639TIP3    H138332   1.837   0.465  15.696 -1.4475 -1.5185 -0.5223
 5639TIP3    H238333   1.719   0.538  15.756  0.0801  0.5693  0.0428
 5640TIP3   OH238334   1.521   1.518  12.466 -0.2812  0.2652  0.5846
 5640TIP3    H138335   1.481   1.522  12.380 -1.2204  1.3849  1.0537
 5640TIP3    H238336   1.591   1.583  12.463  0.5400 -0.6137  0.2612
 5641TIP3   OH238337   6.599   2.249   0.995  0.4470 -0.0641 -0.4935
 5641TIP3    H138338   6.597   2.300   0.914 -0.8123 -0.1212 -0.5181
 5641TIP3    H238339   6.572   2.312   1.063  0.1733 -0.3622 -0.3250
 5642TIP3   OH238340   5.043   3.715  16.408  0.0987 -0.5074  0.0205
 5642TIP3    H138341   4.954   3.681  16.400  0.8324 -2.3954 -0.8526
 5642TIP3    H238342   5.072   3.687  16.494 -0.1712  0.2226  0.3598
 5643TIP3   OH238343   0.099   4.242  11.434  0.5645 -0.2151  0.6170
 5643TIP3    H138344   0.081   4.181  11.505 -0.2342 -1.5378 -0.6671
 5643TIP3    H238345   0.193   4.234  11.417  0.8566  0.4731  1.8089
 5644TIP3   OH238346   1.465   3.773  16.314  0.5103  0.8055 -0.1760
 5644TIP3    H138347   1.474   3.825  16.235  1.9126 -1.2139 -1.4581
 5644TIP3    H238348   1.528   3.811  16.375  2.9951 -0.4427 -1.7798
 5645TIP3   OH238349   5.805   6.024   0.031 -0.2699  0.3623 -0.0587
 5645TIP3    H138350   5.774   5.986   0.113 -0.0700  0.4206  0.0474
 5645TIP3    H238351   5.805   6.119   0.048 -0.4035  0.3859 -0.1892
 5646TIP3   OH238352   1.948   3.781  16.478 -0.0628  0.0621  0.2733
 5646TIP3    H138353   2.011   3.711  16.466 -0.5850 -0.2352 -0.9704
 5646TIP3    H238354   1.867   3.748  16.438 -0.9672  0.4978  1.6701
 5647TIP3   OH238355   6.329   0.008  14.265  0.5306  0.6902 -0.7579
 5647TIP3    H138356   6.349  -0.076  14.307  0.9874  0.6492 -1.0556
 5647TIP3    H238357   6.246   0.035  14.305  0.9038  0.6010  0.0883
 5648TIP3   OH238358   3.010   6.619   0.089 -0.0742  0.4074 -0.2160
 5648TIP3    H138359   3.004   6.572   0.005 -0.9334 -0.0405  0.0876
 5648TIP3    H238360   2.921   6.616   0.124  0.6571 -1.2896  1.7257
 5649TIP3   OH238361   2.220   2.449   2.476  0.3170  0.3703 -0.1005
 5649TIP3    H138362   2.242   2.406   2.393 -0.5321  1.0737 -0.7109
 5649TIP3    H238363   2.305   2.470   2.516  0.7578  1.0935 -1.3648
 5650TIP3   OH238364   3.721   6.245   0.092  0.3720  0.0116  0.7419
 5650TIP3    H138365   3.812   6.218   0.106  0.3246 -0.4783  0.1248
 5650TIP3    H238366   3.692   6.196   0.015 -0.2037  0.6813  0.5189
 5651TIP3   OH238367   6.200   2.620  15.423 -0.5446  0.2927  0.3198
 5651TIP3    H138368   6.125   2.582  15.377 -0.4929 -2.0122  1.9658
 5651TIP3    H238369   6.170   2.632  15.513  1.1682 -1.1934  1.1473
 5652TIP3   OH238370   6.495   0.041  17.073 -0.2111 -0.0081 -0.2182
 5652TIP3    H138371   6.451  -0.043  17.087  1.2057 -0.5805  1.1017
 5652TIP3    H238372   6.501   0.050  16.978  2.5282 -3.0530 -0.4786
 5653TIP3   OH238373   5.866   5.752   4.270  0.0260  0.2893 -0.3250
 5653TIP3    H138374   5.903   5.668   4.241  1.3090  0.6756  0.1389
 5653TIP3    H238375   5.777   5.751   4.236  1.1150  0.3278 -3.5660
 5654TIP3   OH238376   4.604   2.547   2.351 -0.8107 -1.1852 -0.1508
 5654TIP3    H138377   4.656   2.595   2.286  1.8129  1.2983  3.3320
 5654TIP3    H238378   4.515   2.581   2.340 -0.2234 -0.0100 -1.6889
 5655TIP3   OH238379   4.389   5.372  13.485 -0.8988  0.2860 -0.7051
 5655TIP3    H138380   4.435   5.398  13.565 -0.2636 -1.6090 -0.3853
 5655TIP3    H238381   4.296   5.384  13.505 -0.6864  0.9479 -0.1072
 5656TIP3   OH238382   4.132   2.203   6.613 -0.2776 -0.0147 -0.3839
 5656TIP3    H138383   4.082   2.204   6.695 -0.5746  2.3530 -0.5211
 5656TIP3    H238384   4.166   2.114   6.607 -1.5906 -0.7106  1.4831
 5657TIP3   OH238385   4.616   5.676  12.326  0.9290  0.0193 -0.1947
 5657TIP3    H138386   4.610   5.736  12.400  0.8402  0.5303 -0.6087
 5657TIP3    H238387   4.525   5.655  12.304  0.9613 -0.3188 -0.0142
 5658TIP3   OH238388   3.877   5.268   2.395 -0.1611 -0.2843  0.1441
 5658TIP3    H138389   3.959   5.310   2.424  0.7553 -3.0447  2.0072
 5658TIP3    H238390   3.903   5.214   2.321 -0.8017  0.4822 -0.6567
 5659TIP3   OH238391   6.071   1.354   0.114 -0.3603 -0.1317  0.1873
 5659TIP3    H138392   6.124   1.298   0.058  0.4779  0.4099  0.4242
 5659TIP3    H238393   5.985   1.311   0.116 -0.4179 -0.1755 -1.4853
 5660TIP3   OH238394   0.345   2.164   6.401  0.1308 -0.2677  0.2165
 5660TIP3    H138395   0.305   2.090   6.447  1.2715 -0.6864  0.5583
 5660TIP3    H238396   0.379   2.220   6.471  1.1955 -0.5216 -0.0790
 5661TIP3   OH238397   1.968   0.438   1.519  0.0423  0.2572 -0.4107
 5661TIP3    H138398   1.877   0.453   1.542 -0.5990 -1.4956 -1.6168
 5661TIP3    H238399   2.012   0.519   1.543 -1.6541  0.8255  1.0030
 5662TIP3   OH238400   3.530   3.246  16.425  0.2658  0.1812 -0.6929
 5662TIP3    H138401   3.554   3.230  16.517  1.7480  2.3904 -0.6211
 5662TIP3    H238402   3.541   3.161  16.382  4.1853  0.0142  0.2756
 5663TIP3   OH238403   1.378   1.097   4.878 -0.2326  0.3129 -0.3465
 5663TIP3    H138404   1.327   1.150   4.818  0.5855  1.0144 -0.4435
 5663TIP3    H238405   1.366   1.137   4.964  2.0861  2.0442 -0.7326
 5664TIP3   OH238406   2.541   1.154  14.065  0.0300 -0.0576  0.1756
 5664TIP3    H138407   2.565   1.162  13.973 -3.0349  2.9267 -0.5453
 5664TIP3    H238408   2.459   1.104  14.065 -0.2904  0.4338  1.2050
 5665TIP3   OH238409   4.744   2.801   2.911  0.8663  0.4793 -0.2026
 5665TIP3    H138410   4.697   2.739   2.967  0.0381  2.3977  1.3758
 5665TIP3    H238411   4.700   2.795   2.826 -2.4464  2.1324  1.1614
 5666TIP3   OH238412   2.013   5.040  15.967  0.1069 -0.4148  0.4781
 5666TIP3    H138413   2.068   5.088  15.905  0.6155  1.2964  2.1677
 5666TIP3    H238414   2.069   4.971  16.002  0.6220  0.2309  0.9219
 5667TIP3   OH238415   3.469   5.283  16.496  0.0108 -0.7011  0.0964
 5667TIP3    H138416   3.417   5.319  16.568  0.8687 -1.6774  1.2608
 5667TIP3    H238417   3.510   5.205  16.534  2.6341  0.2142 -0.6049
 5668TIP3   OH238418   1.794   4.208   0.031 -0.3667 -0.2463 -0.4259
 5668TIP3    H138419   1.832   4.184  -0.054  0.7017 -1.5041  0.3663
 5668TIP3    H238420   1.850   4.165   0.095 -0.1493  2.0019  1.0199
 5669TIP3   OH238421   1.015   1.565   2.986  0.3928 -0.2094 -0.5263
 5669TIP3    H138422   1.007   1.470   2.998 -0.1798 -0.0654  0.3891
 5669TIP3    H238423   1.027   1.577   2.892  1.1303 -1.2273 -0.5767
 5670TIP3   OH238424   6.149   2.701   5.508 -0.4444  0.2366  0.3057
 5670TIP3    H138425   6.229   2.665   5.469 -0.0093 -0.3231  1.6442
 5670TIP3    H238426   6.176   2.786   5.543 -0.6795  0.4652 -0.0598
 5671TIP3   OH238427   1.777   0.729  15.028 -0.1859 -0.0180  0.6440
 5671TIP3    H138428   1.806   0.812  15.067 -0.5399 -0.4991  1.9832
 5671TIP3    H238429   1.857   0.678  15.016 -0.2150 -0.6260  2.6274
 5672TIP3   OH238430   3.486   0.335  13.423 -0.4450  0.2154  0.5967
 5672TIP3    H138431   3.421   0.326  13.353 -0.0363 -1.4310  0.4016
 5672TIP3    H238432   3.524   0.422  13.409  1.0846 -0.8078 -2.5689
 5673TIP3   OH238433   6.265   4.805  12.419  0.0293  0.1985 -0.1640
 5673TIP3    H138434   6.190   4.851  12.459 -0.5870 -0.1390 -0.9000
 5673TIP3    H238435   6.304   4.871  12.362  0.9378  0.6953  0.9817
 5674TIP3   OH238436   1.742   1.678   6.383  0.2034  0.0897 -0.3662
 5674TIP3    H138437   1.730   1.641   6.471  2.1560  0.2075 -0.0039
 5674TIP3    H238438   1.701   1.615   6.324  1.6524 -1.6720  0.3968
 5675TIP3   OH238439   4.864   6.102   1.441  0.5216 -0.0001  0.5975
 5675TIP3    H138440   4.807   6.037   1.481 -1.1689  1.0794  0.0551
 5675TIP3    H238441   4.854   6.180   1.496  2.2433 -0.0560  1.0428
 5676TIP3   OH238442   2.926   2.260   4.539 -0.3131 -0.6982  0.2828
 5676TIP3    H138443   2.948   2.167   4.550 -0.1975 -0.5100  1.8680
 5676TIP3    H238444   2.830   2.261   4.536 -0.3080 -0.8822 -0.0412
 5677TIP3   OH238445   0.336   1.045   0.870  0.1126 -0.2774 -0.4411
 5677TIP3    H138446   0.317   0.962   0.912 -1.4141  0.7121  0.9685
 5677TIP3    H238447   0.429   1.061   0.889  0.5795 -1.8843 -1.2349
 5678TIP3   OH238448   6.249   1.666  13.836  0.0607 -0.0522  0.3970
 5678TIP3    H138449   6.288   1.581  13.858  0.0804 -0.1556 -0.0268
 5678TIP3    H238450   6.168   1.669  13.886 -0.0777 -0.4418  0.1979
 5679TIP3   OH238451   0.285   0.966  16.374 -0.6068 -0.4890 -0.6738
 5679TIP3    H138452   0.335   1.047  16.364 -1.1657 -0.1435 -0.6913
 5679TIP3    H238453   0.274   0.934  16.285 -1.5243  0.1139 -0.7836
 5680TIP3   OH238454   5.558   6.130   5.988  0.5099 -0.3771  0.2025
 5680TIP3    H138455   5.565   6.158   6.079  1.3213 -0.6762  0.2416
 5680TIP3    H238456   5.633   6.173   5.945  1.1596 -1.6208  0.0470
 5681TIP3   OH238457   5.659   1.503  13.790 -0.5423 -0.0739 -0.4459
 5681TIP3    H138458   5.657   1.505  13.886 -1.7167 -0.2259 -0.4621
 5681TIP3    H238459   5.753   1.502  13.769 -0.2673 -0.0850  0.6967
 5682TIP3   OH238460   1.087   0.940   5.687  0.0113  0.4651 -0.9593
 5682TIP3    H138461   1.039   0.877   5.741  0.4462  2.3673  1.8579
 5682TIP3    H238462   1.175   0.903   5.680 -0.0617  0.1755 -0.3936
 5683TIP3   OH238463   1.473   3.662  15.330 -0.4559 -0.2024  0.7792
 5683TIP3    H138464   1.461   3.738  15.272  0.8836 -1.0201 -0.6444
 5683TIP3    H238465   1.568   3.647  15.330 -0.7097 -1.9182  0.9845
 5684TIP3   OH238466   1.900   0.995  15.071  0.1658  0.3947  0.7491
 5684TIP3    H138467   1.890   1.060  15.002  0.8002 -0.0491  0.2272
 5684TIP3    H238468   1.977   1.023  15.121  0.4192  0.0746  0.5455
 5685TIP3   OH238469   6.070   5.223   5.890  0.7642 -0.4353  0.1379
 5685TIP3    H138470   6.156   5.241   5.850  0.9049 -0.2879  0.5053
 5685TIP3    H238471   6.050   5.302   5.940  0.3846 -0.4455  0.0079
 5686TIP3   OH238472   3.828   0.600   3.437 -0.2797 -0.4305 -0.5439
 5686TIP3    H138473   3.804   0.689   3.462  0.0505 -0.5430  0.1860
 5686TIP3    H238474   3.866   0.609   3.350  1.6944  0.4410  0.3562
 5687TIP3   OH238475   4.359   1.741   0.317  0.3013 -0.3275 -0.2339
 5687TIP3    H138476   4.451   1.716   0.309  0.6025  0.8572 -0.6816
 5687TIP3    H238477   4.355   1.798   0.393  0.0435  0.0724 -0.5406
 5688TIP3   OH238478   4.521   6.405   4.893  0.4439  0.0809 -0.3599
 5688TIP3    H138479   4.526   6.420   4.988  1.4886  1.4798 -0.6080
 5688TIP3    H238480   4.580   6.331   4.878  0.7105  0.2064  0.0249
 5689TIP3   OH238481   3.185   2.039   0.926 -0.2577 -0.3178 -0.0291
 5689TIP3    H138482   3.216   1.949   0.926 -1.5895 -0.8134 -0.9072
 5689TIP3    H238483   3.264   2.092   0.930  0.5177 -1.5088  1.5526
 5690TIP3   OH238484   2.680   0.290  17.526  0.1929 -0.2531 -0.2930
 5690TIP3    H138485   2.662   0.209  17.479 -0.9272 -0.9662  1.2810
 5690TIP3    H238486   2.760   0.272  17.576 -0.6720 -0.8251  0.9341
 5691TIP3   OH238487   1.055   2.258  17.215 -0.8323  0.2015 -0.2434
 5691TIP3    H138488   1.018   2.346  17.219 -0.4654  0.3640 -0.3663
 5691TIP3    H238489   0.989   2.206  17.168 -1.4954  0.1758  0.7033
 5692TIP3   OH238490   4.401   0.409  12.018  0.2916 -0.4334  0.1249
 5692TIP3    H138491   4.477   0.451  11.979  0.1898  0.3285  0.7271
 5692TIP3    H238492   4.436   0.356  12.089  0.2679 -0.1163  0.3748
 5693TIP3   OH238493   1.133   0.903  12.179  0.8672 -1.1269  0.3963
 5693TIP3    H138494   1.109   0.991  12.207 -1.1011 -1.3342 -0.4812
 5693TIP3    H238495   1.097   0.846  12.247  1.4127 -1.3131  0.5350
 5694TIP3   OH238496   1.543   0.618   5.021 -0.1162 -0.0769 -0.1250
 5694TIP3    H138497   1.507   0.701   5.053  1.0537  0.5390 -0.3619
 5694TIP3    H238498   1.561   0.634   4.929 -0.5560 -0.8442 -0.3518
 5695TIP3   OH238499   5.537   4.388   0.239  0.2986 -0.1331 -0.1178
 5695TIP3    H138500   5.548   4.328   0.166  0.8151 -0.2029  0.0077
 5695TIP3    H238501   5.506   4.469   0.200  1.2117  0.0407 -0.5043
 5696TIP3   OH238502   4.874   6.542   5.402 -0.2613  0.5508 -0.5736
 5696TIP3    H138503   4.881   6.475   5.470  0.8117  0.8995 -0.3207
 5696TIP3    H238504   4.936   6.610   5.429 -0.6879  1.2369 -1.2908
 5697TIP3   OH238505   6.101   3.872  15.123  0.8478  0.0470  0.2118
 5697TIP3    H138506   6.021   3.908  15.161  0.4058 -1.0683  0.3816
 5697TIP3    H238507   6.101   3.780  15.151  1.8730 -0.1187 -0.2986
 5698TIP3   OH238508   0.662   3.447   5.405 -0.5534 -0.1861 -0.3512
 5698TIP3    H138509   0.711   3.466   5.484  0.7922 -0.4475 -1.0863
 5698TIP3    H238510   0.619   3.529   5.382 -0.5925  0.0042  0.4042
 5699TIP3   OH238511   2.602   6.454   5.373 -0.2426  0.3019  0.6702
 5699TIP3    H138512   2.677   6.513   5.386 -0.7562  0.6792  2.1351
 5699TIP3    H238513   2.633   6.368   5.402  0.1667  0.0632 -0.4349
 5700TIP3   OH238514   1.294   3.898  16.100  0.2560 -0.4821 -0.4679
 5700TIP3    H138515   1.237   3.850  16.160  0.6344  1.8550  1.8824
 5700TIP3    H238516   1.249   3.981  16.084  2.1532  0.6931  0.0506
 5701TIP3   OH238517   2.606   5.842   2.128 -0.7287  0.4266 -0.2079
 5701TIP3    H138518   2.602   5.782   2.202 -2.8304  0.3244 -0.3267
 5701TIP3    H238519   2.659   5.797   2.063  0.7548  0.3089  1.0187
 5702TIP3   OH238520   4.834   1.821  16.292  0.2090 -0.0252  0.5776
 5702TIP3    H138521   4.887   1.813  16.212 -1.4463 -0.3929 -0.5485
 5702TIP3    H238522   4.895   1.849  16.359  1.9965 -1.2440 -0.4468
 5703TIP3   OH238523   4.420   3.530  15.909  0.0706 -0.5045 -0.4955
 5703TIP3    H138524   4.478   3.513  15.836 -0.7992 -0.6897 -1.1585
 5703TIP3    H238525   4.479   3.551  15.982  0.9497 -0.4837 -1.1922
 5704TIP3   OH238526   4.194   4.368  11.255 -0.7393  0.2627  0.9291
 5704TIP3    H138527   4.162   4.378  11.344  0.3398 -1.2319  1.5321
 5704TIP3    H238528   4.247   4.446  11.239  2.2312 -1.1394  3.0801
 5705TIP3   OH238529   6.680   0.121  16.426  0.4000  0.7313 -0.1143
 5705TIP3    H138530   6.633   0.179  16.366 -0.9228  0.9312  1.0723
 5705TIP3    H238531   6.755   0.173  16.456 -0.0866  1.3767 -0.0058
 5706TIP3   OH238532   5.678   4.362  11.736  0.5000  0.0922  0.2622
 5706TIP3    H138533   5.765   4.383  11.769  1.9981 -1.5121 -2.3154
 5706TIP3    H238534   5.690   4.283  11.684 -2.1710  0.7239 -1.5673
 5707TIP3   OH238535   3.777   6.324   4.250 -0.0755 -0.4776  0.1113
 5707TIP3    H138536   3.713   6.349   4.184  1.7592  0.8116 -1.2609
 5707TIP3    H238537   3.859   6.314   4.202  1.6332  1.7618  2.3178
 5708TIP3   OH238538   1.227   2.376  14.207 -0.1303 -0.0661  0.0722
 5708TIP3    H138539   1.267   2.447  14.257  1.1154 -0.7010 -0.0047
 5708TIP3    H238540   1.142   2.411  14.179 -0.4656  0.6388  1.8351
 5709TIP3   OH238541   2.508   1.620  15.399  0.1891  0.2899  0.0555
 5709TIP3    H138542   2.562   1.655  15.469 -0.9609 -0.3131  1.2868
 5709TIP3    H238543   2.490   1.529  15.425 -1.2642  0.4196 -0.3820
 5710TIP3   OH238544   2.237   5.753  16.710 -0.7358 -0.0398 -1.0347
 5710TIP3    H138545   2.312   5.808  16.686 -0.8609 -0.2251 -1.8736
 5710TIP3    H238546   2.161   5.801  16.677 -0.9898  0.0971 -0.2760
 5711TIP3   OH238547   2.963   6.162  12.412  0.3900  0.8309  0.4016
 5711TIP3    H138548   2.934   6.133  12.325 -0.8602  4.3376 -0.5520
 5711TIP3    H238549   3.029   6.229  12.394  1.8550 -0.0026  2.3039
 5712TIP3   OH238550   2.128   5.622  16.404 -0.0711 -0.3357 -0.1319
 5712TIP3    H138551   2.109   5.535  16.368 -0.6302 -0.3979  0.3103
 5712TIP3    H238552   2.130   5.609  16.498  2.3291 -0.3625 -0.1278
 5713TIP3   OH238553   5.926   1.226   2.171  0.0747  0.1050 -0.2875
 5713TIP3    H138554   5.882   1.225   2.257 -1.3546  3.1945 -0.8456
 5713TIP3    H238555   6.002   1.282   2.184 -1.3561  2.4587 -1.4429
 5714TIP3   OH238556   1.275   3.362  17.291 -0.2619 -0.2675  0.5138
 5714TIP3    H138557   1.197   3.410  17.262  0.8938  0.4201 -1.6575
 5714TIP3    H238558   1.272   3.280  17.241  0.3917 -0.2499  0.4474
 5715TIP3   OH238559   2.632   0.288   3.202 -0.3265  0.0443  0.5313
 5715TIP3    H138560   2.631   0.226   3.129 -1.7228 -1.0695  1.4382
 5715TIP3    H238561   2.624   0.232   3.280  2.1876  1.0818  1.6668
 5716TIP3   OH238562   2.746   1.631   2.552 -0.8109 -0.4908 -0.4930
 5716TIP3    H138563   2.725   1.584   2.471 -0.0922 -0.8089 -0.5118
 5716TIP3    H238564   2.666   1.630   2.603  0.0249 -5.1387  1.2047
 5717TIP3   OH238565   1.077   4.644  11.047  0.2469 -0.4982 -0.4544
 5717TIP3    H138566   1.000   4.679  11.004 -0.8977 -0.7197  1.3069
 5717TIP3    H238567   1.079   4.551  11.022 -0.5413 -0.6781  0.0985
 5718TIP3   OH238568   5.217   3.462   3.446  0.3262  0.2479 -0.6195
 5718TIP3    H138569   5.253   3.468   3.357  0.0544 -0.7190 -0.8064
 5718TIP3    H238570   5.254   3.538   3.491 -0.3545  1.3621 -1.8387
 5719TIP3   OH238571   6.648   6.482  17.223  0.1158 -1.0911 -0.0592
 5719TIP3    H138572   6.654   6.523  17.309  1.1323  0.8463 -1.0089
 5719TIP3    H238573   6.569   6.427  17.229  0.1345 -0.9854  2.0615
 5720TIP3   OH238574   0.882   2.443   2.572 -0.3909  0.1013 -0.1792
 5720TIP3    H138575   0.948   2.481   2.515  0.7726 -0.3531  0.8269
 5720TIP3    H238576   0.916   2.357   2.595 -1.5946 -0.3697 -0.0784
 5721TIP3   OH238577   6.251   6.376   2.531 -0.0062  0.2297 -0.4023
 5721TIP3    H138578   6.313   6.429   2.481 -1.0215 -1.2328 -3.4916
 5721TIP3    H238579   6.260   6.288   2.494 -1.4810 -0.7995  1.5023
 5722TIP3   OH238580   0.205   6.464  13.028  0.3341 -0.2742  0.4000
 5722TIP3    H138581   0.111   6.447  13.021  0.3484 -0.9208  1.4624
 5722TIP3    H238582   0.235   6.404  13.097  1.6236 -0.4272 -0.2634
 5723TIP3   OH238583   3.867   4.987   0.855 -0.0601  0.5866  0.4536
 5723TIP3    H138584   3.910   4.940   0.783  0.2274  0.1108  0.9247
 5723TIP3    H238585   3.852   4.920   0.922 -0.6731  0.9461  0.6848
 5724TIP3   OH238586   6.639   6.635   1.406 -0.1863  0.2725 -0.1723
 5724TIP3    H138587   6.616   6.727   1.394 -1.1602  0.1433  0.5589
 5724TIP3    H238588   6.595   6.590   1.334  0.8085  0.4387 -0.8995
 5725TIP3   OH238589   6.504   0.169   1.348 -0.3626  0.1213  0.9399
 5725TIP3    H138590   6.536   0.213   1.270  0.6891 -0.8462  0.7890
 5725TIP3    H238591   6.425   0.217   1.373 -0.4502  0.7285 -0.4374
 5726TIP3   OH238592   4.635   2.225  13.283 -0.3523 -0.9235  0.5789
 5726TIP3    H138593   4.675   2.309  13.262  0.2175 -1.5675 -1.0889
 5726TIP3    H238594   4.683   2.194  13.360  2.3122 -1.5676 -1.2162
 5727TIP3   OH238595   3.472   4.131  13.195 -0.4544 -0.4758  0.0303
 5727TIP3    H138596   3.476   4.195  13.266  2.0755  0.0070 -0.4243
 5727TIP3    H238597   3.475   4.184  13.115 -0.3552 -1.0809 -0.3779
 5728TIP3   OH238598   5.009   4.938   0.727  0.5023 -0.2333  0.3867
 5728TIP3    H138599   5.025   4.844   0.731 -0.0249 -0.2894  1.6894
 5728TIP3    H238600   5.087   4.977   0.765  1.5135 -0.0194 -1.7778
 5729TIP3   OH238601   2.748   1.340  15.134 -0.5136 -0.5191  0.2163
 5729TIP3    H138602   2.690   1.271  15.164  0.4807 -1.0857  0.8878
 5729TIP3    H238603   2.765   1.318  15.042 -1.4348 -0.2861 -0.0139
 5730TIP3   OH238604   1.523   6.394  17.533  0.4119  0.0319 -0.2465
 5730TIP3    H138605   1.469   6.327  17.574  0.2043  0.3980  0.0852
 5730TIP3    H238606   1.461   6.458  17.498  0.6199  0.3555 -0.0305
 5731TIP3   OH238607   5.335   2.965  17.202  0.0771  0.4641 -0.0113
 5731TIP3    H138608   5.264   2.952  17.139  0.3687  1.4380 -0.5728
 5731TIP3    H238609   5.324   2.896  17.266  0.8287 -1.7048 -2.0714
 5732TIP3   OH238610   6.658   1.741   2.298 -0.5197  0.7172 -0.0874
 5732TIP3    H138611   6.652   1.790   2.217  0.4294  1.2251  0.1313
 5732TIP3    H238612   6.573   1.753   2.340 -1.9415 -1.5304 -2.0723
 5733TIP3   OH238613   3.059   5.058   4.938 -0.2822  0.6944  0.2021
 5733TIP3    H138614   3.146   5.053   4.977  0.4596  0.6947 -1.3626
 5733TIP3    H238615   3.042   4.970   4.905 -0.7965  0.7375  0.3461
 5734TIP3   OH238616   0.953   5.760  12.571  0.2861  0.0435  0.1387
 5734TIP3    H138617   0.912   5.786  12.488  1.6749  0.4336 -0.4659
 5734TIP3    H238618   0.933   5.667  12.578 -0.8292  0.2495 -0.0328
 5735TIP3   OH238619   5.723   3.201   4.136  0.4054  0.5731 -0.0214
 5735TIP3    H138620   5.705   3.290   4.103  0.7901  0.9384  0.7227
 5735TIP3    H238621   5.812   3.206   4.170  0.3659 -0.0564  0.1864
 5736TIP3   OH238622   3.660   1.895  13.609 -0.1605 -0.3951  0.2407
 5736TIP3    H138623   3.567   1.913  13.594  0.0047  0.8030  0.5840
 5736TIP3    H238624   3.706   1.962  13.558  0.5252 -1.0518 -0.0193
 5737TIP3   OH238625   0.791   4.757  12.242 -0.3584 -0.2555  0.0460
 5737TIP3    H138626   0.737   4.792  12.312 -1.4182  1.3754 -1.4866
 5737TIP3    H238627   0.880   4.788  12.262 -0.5186 -0.3704  0.9703
 5738TIP3   OH238628   5.627   2.551   2.247  0.0377 -1.0182  0.4347
 5738TIP3    H138629   5.589   2.638   2.232 -1.8370 -1.6417  1.2305
 5738TIP3    H238630   5.627   2.510   2.161  1.7288  0.0181 -0.1101
 5739TIP3   OH238631   1.749   4.025   6.368 -0.1027  0.0294 -0.1141
 5739TIP3    H138632   1.845   4.019   6.371 -0.1580 -1.2111 -0.5202
 5739TIP3    H238633   1.732   4.096   6.305  0.5436  0.2213 -0.0843
 5740TIP3   OH238634   1.826   0.891  13.059  0.1251 -0.1589 -0.2511
 5740TIP3    H138635   1.796   0.842  12.982  0.1340  1.4574 -1.3361
 5740TIP3    H238636   1.896   0.947  13.025  0.1998  0.5159  0.9694
 5741TIP3   OH238637   0.966   0.461  17.488  0.1571 -0.3331  0.4518
 5741TIP3    H138638   1.032   0.466  17.419  0.2080  1.2650  0.5859
 5741TIP3    H238639   0.908   0.391  17.460  2.4152 -2.4799  0.8028
 5742TIP3   OH238640   0.198   4.124  15.689 -0.1826  0.1821  0.0888
 5742TIP3    H138641   0.150   4.074  15.624  1.8437 -0.6017 -0.8853
 5742TIP3    H238642   0.249   4.059  15.737  1.3033  1.1095 -0.1607
 5743TIP3   OH238643   5.167   4.389  13.324 -0.0231 -0.6385 -0.0487
 5743TIP3    H138644   5.230   4.394  13.396 -3.1179 -1.8762  3.0182
 5743TIP3    H238645   5.121   4.473  13.328  0.3553 -0.3529 -1.2649
 5744TIP3   OH238646   6.042   4.273   2.824  0.6065 -0.2146 -0.0054
 5744TIP3    H138647   5.961   4.224   2.818  0.6631 -0.1235 -2.9231
 5744TIP3    H238648   6.110   4.212   2.794  1.2658  0.4400  0.1161
 5745TIP3   OH238649   6.184   3.741  12.980 -0.2312  0.5554 -0.3557
 5745TIP3    H138650   6.138   3.658  12.986 -0.6346  0.6223 -1.9806
 5745TIP3    H238651   6.264   3.728  13.031 -0.0782 -0.9825 -0.9331
 5746TIP3   OH238652   5.193   0.246  14.120 -0.0077  0.1226  0.2503
 5746TIP3    H138653   5.101   0.236  14.096 -0.6936  0.0923  2.6909
 5746TIP3    H238654   5.225   0.156  14.129 -0.3097  0.1100  1.3277
 5747TIP3   OH238655   3.813   0.801   4.923  0.3389 -0.1265  0.2234
 5747TIP3    H138656   3.781   0.831   4.838 -0.4111  0.6761  0.7674
 5747TIP3    H238657   3.783   0.868   4.984  1.4560 -0.3412  1.0347
 5748TIP3   OH238658   0.224   6.564  17.034 -0.4392  0.3749  0.0946
 5748TIP3    H138659   0.276   6.639  17.061  0.5798 -0.6351  1.0770
 5748TIP3    H238660   0.176   6.538  17.113 -0.0659 -0.5495  0.0358
 5749TIP3   OH238661   1.381   5.243   3.516  0.6692 -0.1635  0.1320
 5749TIP3    H138662   1.338   5.174   3.567  1.1046 -0.7997 -0.3449
 5749TIP3    H238663   1.381   5.319   3.574  1.9915 -1.1123  1.4564
 5750TIP3   OH238664   0.486   1.719  12.588  0.2606  0.3576  0.4140
 5750TIP3    H138665   0.443   1.783  12.531 -1.7237 -0.4945  0.8972
 5750TIP3    H238666   0.446   1.636  12.564  0.3269 -0.2018  2.1664
 5751TIP3   OH238667   5.360   3.012   2.292 -0.2394 -0.4397 -0.0951
 5751TIP3    H138668   5.415   3.073   2.244  0.8158 -0.5994  0.8542
 5751TIP3    H238669   5.323   3.064   2.364 -0.7305 -0.5110 -0.2936
 5752TIP3   OH238670   6.608   3.740   2.561  0.0655 -0.2091 -0.3770
 5752TIP3    H138671   6.629   3.829   2.589  0.9375 -0.3861 -0.4506
 5752TIP3    H238672   6.513   3.741   2.549  0.0071  0.5794  0.0766
 5753TIP3   OH238673   4.292   2.314   3.828 -0.2207 -0.5401  0.1805
 5753TIP3    H138674   4.330   2.312   3.741 -1.6469  0.4815 -0.4924
 5753TIP3    H238675   4.321   2.232   3.868  3.6562  0.6433  0.2029
 5754TIP3   OH238676   5.383   0.281   5.141 -0.4429  0.2722 -0.1560
 5754TIP3    H138677   5.318   0.221   5.177 -1.7616 -0.1417 -2.9596
 5754TIP3    H238678   5.465   0.231   5.141 -1.1375 -0.8990 -0.7996
 5755TIP3   OH238679   4.933   2.802  14.576  0.2013 -0.3572  0.3623
 5755TIP3    H138680   4.839   2.816  14.584 -0.0215 -1.1184 -0.7707
 5755TIP3    H238681   4.953   2.733  14.640 -0.1731 -0.8319 -0.0288
 5756TIP3   OH238682   4.920   1.653   2.229 -0.1581 -0.3223 -0.2679
 5756TIP3    H138683   4.911   1.640   2.323  0.2395  1.3389  0.0385
 5756TIP3    H238684   4.844   1.706   2.205  0.3868  0.3138 -0.6266
 5757TIP3   OH238685   2.015   4.193  14.833  0.3119  0.4143  0.0428
 5757TIP3    H138686   2.082   4.253  14.867 -1.4040  2.3354  0.1897
 5757TIP3    H238687   1.960   4.174  14.909 -0.0675 -0.0973 -0.3620
 5758TIP3   OH238688   2.136   1.206   2.910  0.2564 -0.2591 -0.8616
 5758TIP3    H138689   2.048   1.238   2.929  0.4953  0.0118 -0.1988
 5758TIP3    H238690   2.159   1.153   2.986 -0.1271 -2.0562 -1.9178
 5759TIP3   OH238691   4.727   1.218   3.805 -0.7365  0.6787 -0.2151
 5759TIP3    H138692   4.715   1.127   3.832  0.9877  0.5269  0.1691
 5759TIP3    H238693   4.744   1.265   3.887  3.1390  0.4584 -0.7212
 5760TIP3   OH238694   2.462   5.777  12.503  0.5786  0.0760 -0.1799
 5760TIP3    H138695   2.479   5.751  12.412 -0.0246  1.3524 -0.6861
 5760TIP3    H238696   2.366   5.773  12.511  0.6632 -0.6405  0.6097
 5761TIP3   OH238697   6.618   0.492  15.203 -0.4072  0.1541 -0.0324
 5761TIP3    H138698   6.573   0.472  15.121  0.8190 -1.9482 -0.2809
 5761TIP3    H238699   6.591   0.581  15.225 -1.2302  0.5469 -2.3923
 5762TIP3   OH238700   4.643   4.920   5.011 -0.0662  0.6103  0.4359
 5762TIP3    H138701   4.595   4.959   4.938 -0.5960  2.5051  1.7188
 5762TIP3    H238702   4.575   4.896   5.074  0.4549  0.0327  0.7856
 5763TIP3   OH238703   6.258   5.253   0.078 -0.2729  0.2721 -0.2645
 5763TIP3    H138704   6.298   5.183   0.130  1.2439  0.3337 -1.2664
 5763TIP3    H238705   6.324   5.273   0.011 -1.7856  0.7867 -1.6788
 5764TIP3   OH238706   2.124   4.456  13.119  0.1047 -0.7695 -0.8891
 5764TIP3    H138707   2.065   4.531  13.129 -0.6079 -1.1220 -2.1306
 5764TIP3    H238708   2.111   4.405  13.199 -1.4051 -0.9028 -1.1908
 5765TIP3   OH238709   4.368   0.722   1.511 -0.3055 -0.2624  0.2282
 5765TIP3    H138710   4.417   0.646   1.479 -0.3091 -0.3766  0.4916
 5765TIP3    H238711   4.332   0.762   1.432  1.7841  0.9317 -0.2087
 5766TIP3   OH238712   2.507   4.893  16.993 -0.1007 -0.1059  0.5904
 5766TIP3    H138713   2.497   4.953  17.067  0.6999 -0.0185  0.6365
 5766TIP3    H238714   2.519   4.807  17.034  0.2457 -0.0717  0.5648
 5767TIP3   OH238715   4.727   0.428   4.494 -0.9220 -0.4682 -0.7683
 5767TIP3    H138716   4.737   0.479   4.575 -1.2207 -2.6757  0.7379
 5767TIP3    H238717   4.645   0.381   4.505 -1.4166 -0.1732 -2.7822
 5768TIP3   OH238718   0.713   0.038   4.197  0.6339  0.2369  0.3302
 5768TIP3    H138719   0.630   0.054   4.153  1.9575 -0.2444 -2.6306
 5768TIP3    H238720   0.740   0.123   4.231 -0.8163  0.4818  0.9061
 5769TIP3   OH238721   1.691   3.290   2.232 -0.8455  0.1066 -0.0720
 5769TIP3    H138722   1.616   3.235   2.256  0.1674 -1.6796 -0.8216
 5769TIP3    H238723   1.694   3.286   2.136  0.6182 -0.4432 -0.0264
 5770TIP3   OH238724   3.308   0.228  12.465  0.5428 -0.2242  0.1681
 5770TIP3    H138725   3.372   0.160  12.445  0.3604  0.1247 -1.7747
 5770TIP3    H238726   3.358   0.310  12.462  0.2643 -0.0612 -0.0214
 5771TIP3   OH238727   5.372   2.087   1.005  0.5275 -0.0960  0.3090
 5771TIP3    H138728   5.324   2.037   1.071 -0.4198 -0.6799 -0.7958
 5771TIP3    H238729   5.460   2.049   1.005 -0.0387 -1.4427 -0.1706
 5772TIP3   OH238730   6.671   4.960  14.912  0.7409  0.4354  0.2470
 5772TIP3    H138731   6.708   4.922  14.832  0.2092 -1.0261  0.6557
 5772TIP3    H238732   6.659   4.885  14.970 -0.9394  1.1577  0.8807
 5773TIP3   OH238733   3.522   0.599   5.913  0.8407  0.2027  0.3995
 5773TIP3    H138734   3.578   0.667   5.950  0.8562  0.7994 -0.6717
 5773TIP3    H238735   3.445   0.647   5.879 -0.6226 -0.6511  2.3357
 5774TIP3   OH238736   6.631   4.656   5.040 -1.0079 -0.7986  0.8425
 5774TIP3    H138737   6.693   4.617   4.979  0.3924 -0.2258  1.8452
 5774TIP3    H238738   6.587   4.581   5.081 -3.1076 -1.2062 -1.8699
 5775TIP3   OH238739   6.507   1.629  12.214  0.2440  0.1512  0.2466
 5775TIP3    H138740   6.473   1.540  12.198 -0.5740  0.4616  0.2227
 5775TIP3    H238741   6.585   1.634  12.159  0.7690 -0.8366  0.8743
 5776TIP3   OH238742   2.154   6.703  13.175 -0.1622 -0.0075  0.3885
 5776TIP3    H138743   2.158   6.706  13.270 -0.2689 -0.3068  0.4044
 5776TIP3    H238744   2.066   6.671  13.155 -0.6921  1.4991  0.1485
 5777TIP3   OH238745   3.845   3.450  15.594  0.2054  0.5057  0.3915
 5777TIP3    H138746   3.834   3.520  15.530 -0.3771  0.7899  0.7921
 5777TIP3    H238747   3.829   3.370  15.545  2.4456  0.4946 -0.4644
 5778TIP3   OH238748   3.094   1.578  11.687 -0.2765 -0.4169 -0.4021
 5778TIP3    H138749   3.029   1.614  11.747 -0.3529 -2.4046  0.7848
 5778TIP3    H238750   3.056   1.591  11.600 -1.3253  0.2702  0.1410
 5779TIP3   OH238751   2.316   4.001  13.706  0.5081  0.1317 -0.6915
 5779TIP3    H138752   2.391   3.945  13.727  0.1362 -0.1801 -0.2043
 5779TIP3    H238753   2.355   4.088  13.694  0.8577  0.1275  0.2989
 5780TIP3   OH238754   3.776   2.445  13.073 -0.3920 -0.1979  0.5018
 5780TIP3    H138755   3.707   2.509  13.088 -0.2225  0.3447 -0.8450
 5780TIP3    H238756   3.751   2.401  12.991  0.8848  0.0675 -0.0564
 5781TIP3   OH238757   2.765   6.504   2.817 -0.5453  0.5501  0.2465
 5781TIP3    H138758   2.843   6.558   2.833 -0.0669  0.3089 -1.1525
 5781TIP3    H238759   2.759   6.449   2.895 -0.6495  2.1132  1.3951
 5782TIP3   OH238760   5.512   4.875  11.527  0.1000 -0.0781 -0.0439
 5782TIP3    H138761   5.453   4.927  11.581  0.1892 -0.6385  0.6054
 5782TIP3    H238762   5.582   4.848  11.586 -1.1298 -2.8988  0.3026
 5783TIP3   OH238763   6.418   2.689   1.042  0.1920 -0.5403 -0.1161
 5783TIP3    H138764   6.505   2.722   1.065 -0.4564  0.1720  1.5144
 5783TIP3    H238765   6.382   2.657   1.125 -0.2032 -3.0911 -1.1767
 5784TIP3   OH238766   4.032   1.189  11.617 -0.4118  0.5096 -0.2622
 5784TIP3    H138767   4.052   1.160  11.528 -0.6148 -0.2960 -0.0517
 5784TIP3    H238768   4.115   1.224  11.650  0.2225 -1.1050 -0.0432
 5785TIP3   OH238769   2.161   3.170  12.887  0.1569  0.1212  0.4892
 5785TIP3    H138770   2.112   3.098  12.848  2.7676 -1.6882  0.2880
 5785TIP3    H238771   2.214   3.204  12.816  0.6246  0.7257  1.1126
 5786TIP3   OH238772   1.997   0.533  16.044 -0.5104 -0.2362 -0.4170
 5786TIP3    H138773   1.986   0.481  15.964 -0.9487 -1.4619  0.4130
 5786TIP3    H238774   1.912   0.525  16.088 -0.9005  1.9285 -0.6650
 5787TIP3   OH238775   1.726   4.363   6.557  0.1250 -0.1307 -0.3732
 5787TIP3    H138776   1.798   4.306   6.587 -0.4477 -0.1074  1.1300
 5787TIP3    H238777   1.685   4.394   6.638  0.1200  2.0568 -1.1586
 5788TIP3   OH238778   1.917   4.404  13.529 -0.2560  0.2484  0.5485
 5788TIP3    H138779   1.869   4.487  13.535 -0.1128  0.2387  2.5444
 5788TIP3    H238780   1.881   4.352  13.601  1.3171 -0.5219  0.8028
 5789TIP3   OH238781   1.844   0.470  12.307 -0.4559  0.1560  0.1554
 5789TIP3    H138782   1.771   0.497  12.363 -2.3568 -1.2068 -1.4808
 5789TIP3    H238783   1.832   0.375  12.296  2.3615 -0.3641  0.8180
 5790TIP3   OH238784   5.060   0.017   0.181 -0.4861 -0.7203  0.2531
 5790TIP3    H138785   5.049  -0.058   0.123 -1.2325  0.4237 -1.1342
 5790TIP3    H238786   5.103  -0.020   0.259  1.1769 -2.1818 -1.2476
 5791TIP3   OH238787   5.875   1.595   1.261  0.3133  0.6056 -0.1726
 5791TIP3    H138788   5.920   1.594   1.176  1.2808  0.8849  0.3242
 5791TIP3    H238789   5.862   1.503   1.282 -1.2991  0.5292 -1.3130
 5792TIP3   OH238790   5.553   0.311  13.642  0.0996  0.1601 -0.5074
 5792TIP3    H138791   5.503   0.382  13.602  0.7459  0.7241 -0.3290
 5792TIP3    H238792   5.514   0.300  13.729 -1.0849 -0.8383 -1.1461
 5793TIP3   OH238793   3.680   4.646  14.131  0.1879 -0.0348 -0.3747
 5793TIP3    H138794   3.733   4.587  14.184  0.4262 -0.8428 -1.4926
 5793TIP3    H238795   3.730   4.659  14.051 -1.8434 -1.9473 -2.0974
 5794TIP3   OH238796   1.179   1.866   5.353 -0.1539  0.0883 -0.0185
 5794TIP3    H138797   1.221   1.864   5.439  0.1712 -0.7096 -0.1811
 5794TIP3    H238798   1.252   1.871   5.291 -0.3804  0.5284 -0.2542
 5795TIP3   OH238799   3.134   0.550  17.339 -0.3859  0.0704  0.5175
 5795TIP3    H138800   3.110   0.457  17.337 -0.7638  0.1388 -2.4348
 5795TIP3    H238801   3.050   0.596  17.336 -0.2219  0.3745 -2.8615
 5796TIP3   OH238802   1.078   6.528  15.891 -0.1030  0.9341  0.4702
 5796TIP3    H138803   1.086   6.446  15.843 -1.5839  1.1840 -0.2830
 5796TIP3    H238804   1.162   6.539  15.935 -0.3323 -1.6717  1.7333
 5797TIP3   OH238805   6.468   4.846  16.882  0.1264 -0.0779 -0.0793
 5797TIP3    H138806   6.406   4.916  16.863  0.6825  0.1638 -1.1258
 5797TIP3    H238807   6.443   4.775  16.822 -1.7669 -1.6615  2.4087
 5798TIP3   OH238808   1.017   5.782  14.611  0.0105 -0.9464  0.1901
 5798TIP3    H138809   1.034   5.840  14.536 -0.2348  0.1671  0.9588
 5798TIP3    H238810   1.076   5.708  14.599  1.2994  0.0963 -0.1585
 5799TIP3   OH238811   3.035   4.060   2.200 -0.0810 -0.1250  0.4075
 5799TIP3    H138812   2.975   4.049   2.126  1.7407 -1.5132 -0.9370
 5799TIP3    H238813   3.072   4.148   2.188  0.6230 -0.5490 -0.6954
 5800TIP3   OH238814   2.445   0.725   5.437  0.0794 -0.1837 -0.1251
 5800TIP3    H138815   2.459   0.704   5.530 -0.7166 -1.7565 -0.3184
 5800TIP3    H238816   2.380   0.795   5.437 -0.0208 -0.2736  0.5010
 5801TIP3   OH238817   0.365   3.995  15.011 -0.6920 -0.0516 -0.5268
 5801TIP3    H138818   0.360   4.018  15.104 -1.4350  0.1719 -0.6147
 5801TIP3    H238819   0.274   3.995  14.982 -0.3561  2.7604 -1.9315
 5802TIP3   OH238820   3.655   5.145   0.076  0.1844 -0.6219 -0.3597
 5802TIP3    H138821   3.682   5.058   0.104  0.8492 -0.3794 -0.2438
 5802TIP3    H238822   3.698   5.205   0.137  2.3202 -0.0205 -2.3218
 5803TIP3   OH238823   5.638   1.856   6.757 -0.0821  0.5523  0.0469
 5803TIP3    H138824   5.601   1.772   6.783  0.9569 -0.2444 -0.9649
 5803TIP3    H238825   5.613   1.916   6.827 -1.5705 -0.3953  0.3645
 5804TIP3   OH238826   3.291   2.276   2.622  0.2357 -0.3000 -0.3487
 5804TIP3    H138827   3.290   2.188   2.584 -2.3796 -0.8143  0.6559
 5804TIP3    H238828   3.345   2.268   2.700 -0.7086 -1.3129  0.2410
 5805TIP3   OH238829   5.428   5.202  11.343  0.4394  0.0279  0.3923
 5805TIP3    H138830   5.379   5.238  11.269 -0.2002  0.9615  1.2603
 5805TIP3    H238831   5.464   5.120  11.309  0.2589  0.4936 -0.9936
 5806TIP3   OH238832   2.315   0.777  13.199 -0.0665 -0.4658  0.2196
 5806TIP3    H138833   2.397   0.756  13.244 -0.5644 -0.0312  1.3394
 5806TIP3    H238834   2.339   0.776  13.106  1.6834  1.4891  0.5637
 5807TIP3   OH238835   0.071   3.806   4.772  0.1693 -0.3532 -0.3266
 5807TIP3    H138836   0.068   3.784   4.865  0.7028  0.1347 -0.1881
 5807TIP3    H238837  -0.001   3.757   4.734 -1.1453  0.7525  0.6233
 5808TIP3   OH238838   5.658   6.325  16.074  0.0347  0.7387  0.4666
 5808TIP3    H138839   5.675   6.374  16.155 -1.7404  2.1844  0.0355
 5808TIP3    H238840   5.699   6.378  16.006  2.1982 -0.8653  0.4273
 5809TIP3   OH238841   0.733   1.517  13.122  0.3977 -0.0306  0.1051
 5809TIP3    H138842   0.666   1.585  13.131 -1.2096 -1.2003 -2.0440
 5809TIP3    H238843   0.775   1.536  13.038  1.8122 -0.1559  0.7554
 5810TIP3   OH238844   0.482   3.992  13.284 -0.2508 -0.1821 -0.3139
 5810TIP3    H138845   0.528   3.997  13.200 -0.1511  2.0946 -0.1634
 5810TIP3    H238846   0.389   3.990  13.261 -0.2012 -2.1942 -0.5207
 5811TIP3   OH238847   4.746   1.848   6.417  0.5649 -0.4024  0.6395
 5811TIP3    H138848   4.802   1.845   6.495 -0.7825  0.5029  1.6756
 5811TIP3    H238849   4.744   1.941   6.393 -0.1433 -0.4890  0.3506
 5812TIP3   OH238850   4.271   1.229  12.916 -0.1898 -0.4011 -0.5490
 5812TIP3    H138851   4.206   1.239  12.847 -0.4766 -1.0945 -0.3846
 5812TIP3    H238852   4.221   1.205  12.994 -0.0418  1.9030  0.3169
 5813TIP3   OH238853   0.358   2.089   3.541 -0.2863  0.0340 -0.0646
 5813TIP3    H138854   0.325   2.064   3.627 -0.3631 -0.9205 -0.3603
 5813TIP3    H238855   0.425   2.155   3.559 -0.0719 -0.3954  0.7539
 5814TIP3   OH238856   5.086   0.747   0.865  0.0450  0.0866  0.0568
 5814TIP3    H138857   5.037   0.811   0.918 -1.4262 -1.8131  1.1057
 5814TIP3    H238858   5.032   0.734   0.787 -0.1633 -0.5839  0.3070
 5815TIP3   OH238859   2.127   4.055  12.859  0.5102  0.1212  0.1903
 5815TIP3    H138860   2.130   4.034  12.766  2.6117  2.8755 -0.4741
 5815TIP3    H238861   2.127   3.970  12.903  0.6478 -1.2322 -2.2852
 5816TIP3   OH238862   1.383   2.156   7.047  0.1690 -0.1701  0.1437
 5816TIP3    H138863   1.475   2.129   7.035  0.3862  0.0543  1.2445
 5816TIP3    H238864   1.379   2.187   7.137 -0.7311  0.9017 -0.2502
 5817TIP3   OH238865   0.919   0.629  11.987 -0.2889 -0.5354 -0.1398
 5817TIP3    H138866   0.928   0.723  11.973 -2.6054 -0.2442 -0.0351
 5817TIP3    H238867   0.874   0.621  12.071 -1.2931 -1.6642 -0.7396
 5818TIP3   OH238868   3.823   4.670   4.847 -0.0544  0.0553 -0.1410
 5818TIP3    H138869   3.779   4.634   4.770 -0.2144 -1.4777  0.6247
 5818TIP3    H238870   3.900   4.614   4.860 -0.6215 -0.4294  1.4175
 5819TIP3   OH238871   0.997   5.600   3.974 -0.3801  0.5241 -0.0315
 5819TIP3    H138872   0.911   5.584   3.935 -0.6196  0.5404  0.4788
 5819TIP3    H238873   0.988   5.684   4.019 -0.5910 -0.2151  1.3622
 5820TIP3   OH238874   3.390   2.302  16.887 -0.2660  0.1216 -0.3403
 5820TIP3    H138875   3.458   2.235  16.892 -0.9407 -0.5592 -0.0465
 5820TIP3    H238876   3.361   2.313  16.978 -0.7305  0.1970 -0.4931
 5821TIP3   OH238877   5.240   1.950   4.201 -0.2039  0.3172 -0.0147
 5821TIP3    H138878   5.315   1.942   4.143  0.0680  0.3003  0.3329
 5821TIP3    H238879   5.260   1.891   4.274 -0.5638  0.2964  0.0708
 5822TIP3   OH238880   3.888   0.365   5.653  0.2785  0.2839 -0.4839
 5822TIP3    H138881   3.946   0.409   5.592 -0.4845 -0.1836 -1.5820
 5822TIP3    H238882   3.906   0.272   5.642  1.2504  0.2336  1.1752
 5823TIP3   OH238883   3.496   2.766   1.271 -0.1047  0.0410  0.8251
 5823TIP3    H138884   3.450   2.690   1.306 -0.3043 -0.0428  0.3825
 5823TIP3    H238885   3.440   2.840   1.292 -0.2742 -0.0214  0.5952
 5824TIP3   OH238886   0.113   0.164   1.745 -0.3689  0.4891 -0.0637
 5824TIP3    H138887   0.195   0.169   1.795 -1.5645 -1.7373  2.3436
 5824TIP3    H238888   0.119   0.081   1.698 -1.5962 -0.1423  0.8582
 5825TIP3   OH238889   6.631   4.409  12.825 -0.8107  0.2082  0.5429
 5825TIP3    H138890   6.719   4.419  12.862 -0.3677 -0.5708 -0.2527
 5825TIP3    H238891   6.600   4.498  12.813  1.1670  0.6736 -2.1150
 5826TIP3   OH238892   5.217   4.644  12.756 -0.8712  0.0450 -0.4448
 5826TIP3    H138893   5.310   4.635  12.738 -0.6819 -0.0770  0.5228
 5826TIP3    H238894   5.174   4.581  12.698 -0.0840 -2.4520  1.5246
 5827TIP3   OH238895   1.046   6.027  15.535  0.3328  0.2093 -0.1189
 5827TIP3    H138896   1.080   6.097  15.479  1.4657 -0.2186 -0.0048
 5827TIP3    H238897   0.963   6.061  15.568  1.0708  1.7231  0.3192
 5828TIP3   OH238898   4.900   4.583   2.560  0.2117 -0.4019 -0.1704
 5828TIP3    H138899   4.894   4.658   2.501 -2.4505 -0.2049  0.2175
 5828TIP3    H238900   4.887   4.507   2.503  0.1423 -0.3880 -0.1727
 5829TIP3   OH238901   0.101   4.218  11.832 -0.1323  0.0034 -0.4278
 5829TIP3    H138902   0.157   4.142  11.820 -0.7317 -0.4902 -0.1548
 5829TIP3    H238903   0.126   4.278  11.762 -0.0308 -0.6704 -0.9729
 5830TIP3   OH238904   2.308   1.250  13.699  0.1855  0.2384 -0.5314
 5830TIP3    H138905   2.374   1.249  13.768  1.1039  1.9011 -1.3128
 5830TIP3    H238906   2.227   1.274  13.744 -0.0322 -2.1294  0.4922
 5831TIP3   OH238907   1.254   0.914   6.320 -0.1474 -0.1541 -0.3289
 5831TIP3    H138908   1.278   0.822   6.325  1.9507  0.3805  0.4070
 5831TIP3    H238909   1.218   0.934   6.406 -1.3213 -0.4424 -0.7367
 5832TIP3   OH238910   0.027   2.829  15.942  0.3648  0.0015  0.3134
 5832TIP3    H138911  -0.027   2.891  15.991  1.6653  0.0890  1.7356
 5832TIP3    H238912  -0.032   2.757  15.920 -0.4317  0.2830  1.4542
 5833TIP3   OH238913   5.710   6.434   4.141 -0.0319 -0.1875 -0.2143
 5833TIP3    H138914   5.737   6.451   4.231  0.4357 -1.4732 -0.0987
 5833TIP3    H238915   5.755   6.353   4.116 -0.7026 -0.2393 -1.3672
 5834TIP3   OH238916   5.726   4.573  15.422 -0.2933 -0.5583 -0.6328
 5834TIP3    H138917   5.669   4.575  15.499  0.3994  0.7279 -0.1174
 5834TIP3    H238918   5.814   4.563  15.459  0.0924  0.5570 -1.2121
 5835TIP3   OH238919   0.758   4.690   0.660 -0.4417  0.8175  0.5383
 5835TIP3    H138920   0.731   4.693   0.751 -1.2967 -0.4487  0.3555
 5835TIP3    H238921   0.805   4.607   0.652 -2.1806 -0.1084 -0.6133
 5836TIP3   OH238922   0.346   6.170   2.203 -0.1284  0.0007  0.1711
 5836TIP3    H138923   0.306   6.092   2.166  2.8483 -1.6824  0.1583
 5836TIP3    H238924   0.380   6.142   2.288  1.4694  1.0643 -0.0624
 5837TIP3   OH238925   5.403   1.657   0.293 -0.1904 -0.2864  0.3250
 5837TIP3    H138926   5.447   1.734   0.258 -1.8739 -0.2450 -1.8818
 5837TIP3    H238927   5.472   1.607   0.337  1.5949  0.8179 -1.1284
 5838TIP3   OH238928   0.469   4.984   1.553 -0.6328  0.0730  0.1573
 5838TIP3    H138929   0.387   4.937   1.573 -1.4699  1.3070 -0.2545
 5838TIP3    H238930   0.526   4.917   1.515 -1.1853 -0.9669  1.1068
 5839TIP3   OH238931   4.490   6.294  14.581 -0.1678  0.3157  0.3011
 5839TIP3    H138932   4.403   6.272  14.616 -0.1417  1.4801  1.1417
 5839TIP3    H238933   4.515   6.374  14.627  0.9202  0.5620 -0.6732
 5840TIP3   OH238934   0.424   0.250  13.656  0.4997 -0.3901 -0.2445
 5840TIP3    H138935   0.445   0.342  13.672  1.9178 -0.6363 -0.5376
 5840TIP3    H238936   0.481   0.202  13.717 -4.3305 -1.0807  4.4871
 5841TIP3   OH238937   4.056   2.535   6.069 -0.1368  0.0384  0.0994
 5841TIP3    H138938   4.039   2.629   6.065  0.1326  0.0826 -0.1181
 5841TIP3    H238939   4.060   2.515   6.162  1.6117  0.5966  0.1807
 5842TIP3   OH238940   6.175   4.462  13.476  0.3452  0.6292 -0.2702
 5842TIP3    H138941   6.108   4.449  13.410  1.1075 -0.0591 -0.9297
 5842TIP3    H238942   6.211   4.375  13.493 -0.2304  0.6848  1.5058
 5843TIP3   OH238943   3.544   4.786   2.063 -0.0069  0.1748 -0.4193
 5843TIP3    H138944   3.560   4.704   2.109  2.6418  0.3902 -0.7632
 5843TIP3    H238945   3.502   4.760   1.981  0.2334 -0.7942 -0.2488
 5844TIP3   OH238946   1.934   0.037  15.405  0.2970  0.2465  0.1832
 5844TIP3    H138947   1.932   0.075  15.492  0.4485 -1.0167  0.7683
 5844TIP3    H238948   1.860   0.078  15.359 -0.3444  0.2676  1.1990
 5845TIP3   OH238949   1.547   0.028   2.140 -0.1528  0.0869  0.4877
 5845TIP3    H138950   1.572  -0.015   2.059 -0.1411 -0.0851  0.5813
 5845TIP3    H238951   1.585   0.116   2.134 -0.5600  0.2364  0.1021
 5846TIP3   OH238952   2.626   4.834   5.392 -0.4109 -0.7024  0.1440
 5846TIP3    H138953   2.699   4.811   5.450 -0.4850 -0.8577  0.1772
 5846TIP3    H238954   2.667   4.883   5.321 -0.3198 -0.5059  0.3285
 5847TIP3   OH238955   0.165   3.988  16.249  0.0347  0.0692 -0.1430
 5847TIP3    H138956   0.193   4.011  16.337  1.3410 -0.8078 -0.2860
 5847TIP3    H238957   0.102   4.055  16.225 -0.0345  0.5533  1.2979
 5848TIP3   OH238958   1.144   5.539  14.200 -0.0515 -0.2892  0.4495
 5848TIP3    H138959   1.194   5.505  14.126 -0.4249  1.3975 -0.6308
 5848TIP3    H238960   1.085   5.604  14.161  0.3961  1.3309  2.3290
 5849TIP3   OH238961   3.723   3.077   3.557  1.0282  0.1924  0.3515
 5849TIP3    H138962   3.642   3.028   3.542  1.2301  0.0299 -0.2013
 5849TIP3    H238963   3.749   3.109   3.471 -0.1630  2.9839  0.9380
 5850TIP3   OH238964   5.127   0.434   0.261 -0.1756  0.0456 -0.2418
 5850TIP3    H138965   5.196   0.383   0.304  0.2599  0.3226 -0.5984
 5850TIP3    H238966   5.068   0.369   0.224 -0.2326 -0.1947  0.2636
 5851TIP3   OH238967   2.017   0.618  16.351  0.8762  0.6438 -0.3524
 5851TIP3    H138968   1.924   0.609  16.372  0.8367  1.0125 -0.3488
 5851TIP3    H238969   2.035   0.549  16.288  1.2568 -1.2044  1.6709
 5852TIP3   OH238970   1.430   4.645  17.303  0.2532 -0.4314 -0.1187
 5852TIP3    H138971   1.463   4.660  17.391  1.0717  0.3797 -0.5443
 5852TIP3    H238972   1.350   4.698  17.298  0.1321 -0.5831  0.1644
 5853TIP3   OH238973   1.761   4.895  15.950  0.2779  0.5594 -0.1788
 5853TIP3    H138974   1.814   4.901  15.871  0.2762  0.9276 -0.1541
 5853TIP3    H238975   1.813   4.939  16.017  1.2873 -1.6673  0.5769
 5854TIP3   OH238976   2.876   3.343  14.921  0.3349  0.1046 -0.1987
 5854TIP3    H138977   2.971   3.335  14.924  0.2421 -1.2358 -0.1808
 5854TIP3    H238978   2.860   3.430  14.884  1.5514  0.7016  0.6309
 5855TIP3   OH238979   1.050   1.183  12.137  0.6712  0.7092  0.1745
 5855TIP3    H138980   1.143   1.204  12.130  0.6853  0.7264  0.4102
 5855TIP3    H238981   1.005   1.263  12.110  0.7168  0.2351 -1.3840
 5856TIP3   OH238982   4.954   5.804  15.109 -0.4621  0.8098  0.2229
 5856TIP3    H138983   4.993   5.832  15.192  0.3934  0.2118  0.0338
 5856TIP3    H238984   4.862   5.830  15.116 -0.4423  0.5953  1.4362
 5857TIP3   OH238985   1.649   4.341   0.355  0.1031  0.3810  0.0956
 5857TIP3    H138986   1.723   4.394   0.328 -0.3413  0.1900 -1.5914
 5857TIP3    H238987   1.603   4.395   0.420  0.8608  1.1432  0.0103
 5858TIP3   OH238988   3.560   6.372   5.191  0.0715 -0.1526  0.6987
 5858TIP3    H138989   3.629   6.420   5.145 -0.1130 -0.0149  0.5604
 5858TIP3    H238990   3.598   6.287   5.210  0.3438 -0.0088  0.7921
 5859TIP3   OH238991   3.260   2.235  12.170 -0.1593 -0.4492  0.6011
 5859TIP3    H138992   3.313   2.299  12.123  0.5585  0.1197  2.1222
 5859TIP3    H238993   3.243   2.166  12.106  0.0353  0.7003 -0.7350
 5860TIP3   OH238994   6.552   3.430  15.407 -0.5825 -0.0779 -0.1971
 5860TIP3    H138995   6.561   3.337  15.426  1.6787 -0.2453 -1.7078
 5860TIP3    H238996   6.503   3.466  15.481 -3.5889 -2.8077 -0.6300
 5861TIP3   OH238997   5.770   6.150   4.905  0.0385  0.1039  0.2371
 5861TIP3    H138998   5.851   6.157   4.956  0.1999 -0.5833  0.0906
 5861TIP3    H238999   5.732   6.066   4.932  0.2273 -0.3699 -0.9106
 5862TIP3   OH239000   1.796   0.663  14.063 -0.1475  0.1763  0.0091
 5862TIP3    H139001   1.797   0.663  13.968  2.8275  0.1276 -0.0628
 5862TIP3    H239002   1.799   0.570  14.087 -0.0178  0.2093  0.1226
 5863TIP3   OH239003   4.275   4.125   5.039 -0.3281 -0.0481  0.3751
 5863TIP3    H139004   4.363   4.160   5.050  0.7964 -2.1316 -1.2895
 5863TIP3    H239005   4.222   4.172   5.103  1.5774  2.6056  0.1685
 5864TIP3   OH239006   6.059   4.355  13.959 -0.2199  0.0144 -0.3004
 5864TIP3    H139007   6.003   4.392  13.890 -1.0291  0.3585  0.5229
 5864TIP3    H239008   6.056   4.261  13.945  0.6705  0.1364 -1.5131
 5865TIP3   OH239009   3.309   0.086   2.358 -0.0883  0.1393 -0.1299
 5865TIP3    H139010   3.241   0.056   2.297 -0.7969  2.0650 -0.3756
 5865TIP3    H239011   3.303   0.182   2.354  3.0032  0.4092 -0.5473
 5866TIP3   OH239012   5.175   0.213  15.340 -0.5114 -0.1086  0.4157
 5866TIP3    H139013   5.251   0.163  15.310 -1.5150 -1.1628 -0.4547
 5866TIP3    H239014   5.145   0.167  15.419 -1.0598 -0.5075 -0.0232
 5867TIP3   OH239015   0.372   4.882   2.612  0.1937 -0.6363  0.7255
 5867TIP3    H139016   0.387   4.833   2.692  1.8122  1.8624  2.0689
 5867TIP3    H239017   0.459   4.902   2.579 -0.4454 -0.3159 -0.8562
 5868TIP3   OH239018   6.315   5.141  12.026  0.2827  0.4205 -0.1716
 5868TIP3    H139019   6.290   5.056  11.990 -1.7666  0.8740  0.0900
 5868TIP3    H239020   6.346   5.191  11.950 -1.8310  0.6002 -0.9665
 5869TIP3   OH239021   1.760   1.252  12.428 -0.1210 -0.2553 -0.1685
 5869TIP3    H139022   1.765   1.322  12.362  0.3617  0.0191  0.1498
 5869TIP3    H239023   1.722   1.178  12.381  0.5192 -0.1708 -0.8582
 5870TIP3   OH239024   6.191   0.176  14.699 -0.4561 -0.4115 -0.6694
 5870TIP3    H139025   6.224   0.136  14.619 -0.0765 -1.2897 -0.0865
 5870TIP3    H239026   6.202   0.270  14.685  2.8237 -0.6503 -0.3017
 5871TIP3   OH239027   6.172   3.787   4.922  0.8009  0.1317 -0.6339
 5871TIP3    H139028   6.254   3.791   4.973  0.9222 -0.5696 -0.7728
 5871TIP3    H239029   6.189   3.723   4.854  0.1246 -0.0253 -0.6601
 5872TIP3   OH239030   2.984   1.947  14.619  0.2166  0.0710 -0.1145
 5872TIP3    H139031   2.997   2.018  14.682  1.9312 -0.8428  0.6248
 5872TIP3    H239032   3.072   1.919  14.596 -0.4085 -1.9064 -0.2596
 5873TIP3   OH239033   3.410   6.696   0.197 -0.1371  0.0594  0.2187
 5873TIP3    H139034   3.463   6.697   0.277 -0.3140  1.7111  0.3500
 5873TIP3    H239035   3.454   6.758   0.138 -0.1104 -0.9995 -0.9113
 5874TIP3   OH239036   2.301   2.781   3.233  0.0686 -0.1656 -0.1627
 5874TIP3    H139037   2.224   2.731   3.204 -0.8086 -0.0845  1.8564
 5874TIP3    H239038   2.313   2.756   3.325  0.7462  1.8972  0.3610
 5875TIP3   OH239039   3.553   1.164   3.060 -0.6479  0.0906  0.8320
 5875TIP3    H139040   3.475   1.140   3.010 -0.2095 -1.5367  0.8728
 5875TIP3    H239041   3.613   1.199   2.996 -0.1310 -1.8788  0.1560
 5876TIP3   OH239042   5.320   0.627   3.852  0.2865 -0.5331  0.7893
 5876TIP3    H139043   5.345   0.537   3.872  0.7849 -0.7809 -0.8305
 5876TIP3    H239044   5.387   0.681   3.895  1.1271 -1.0297  0.1258
 5877TIP3   OH239045   3.371   2.531  17.427  0.5067 -0.2747 -0.0986
 5877TIP3    H139046   3.322   2.537  17.509  2.5743 -0.1345  1.1951
 5877TIP3    H239047   3.387   2.437  17.415  0.4231 -0.2751 -0.2106
 5878TIP3   OH239048   3.337   2.929   0.862 -0.2963  0.1408  0.1148
 5878TIP3    H139049   3.398   2.865   0.897 -0.6911 -0.7877 -0.8496
 5878TIP3    H239050   3.260   2.924   0.919 -0.6635 -0.8712 -0.4476
 5879TIP3   OH239051   0.867   2.043   0.880  0.1430  0.1920  0.2175
 5879TIP3    H139052   0.813   2.062   0.957 -1.0556 -1.3519 -0.1928
 5879TIP3    H239053   0.850   1.951   0.861 -0.2049  0.7213 -2.3570
 5880TIP3   OH239054   1.753   3.347  15.394 -0.1841  0.1204  0.0017
 5880TIP3    H139055   1.732   3.257  15.369  1.2974  0.0498 -1.1492
 5880TIP3    H239056   1.705   3.362  15.476 -0.3956 -1.7296  0.2456
 5881TIP3   OH239057   1.971   1.980   0.144  0.6672  0.1235 -0.3564
 5881TIP3    H139058   1.996   2.063   0.102  1.3980  0.4727  0.7399
 5881TIP3    H239059   2.025   1.914   0.100  2.8368  0.7332  1.2454
 5882TIP3   OH239060   3.796   1.031   4.326 -0.1614  0.1764 -0.1638
 5882TIP3    H139061   3.871   1.082   4.356 -1.0102  1.5565 -0.3020
 5882TIP3    H239062   3.721   1.089   4.338 -1.3351 -1.4193  0.6564
 5883TIP3   OH239063   4.863   3.763   2.642 -0.2297 -0.6280  0.0639
 5883TIP3    H139064   4.845   3.796   2.554  0.1506  0.2753  0.3094
 5883TIP3    H239065   4.795   3.803   2.696  0.8017  0.5898  0.5294
 5884TIP3   OH239066   4.553   4.421  15.117 -0.2386 -0.5271  0.1951
 5884TIP3    H139067   4.581   4.459  15.034 -0.0989 -1.5606 -0.2516
 5884TIP3    H239068   4.628   4.435  15.175 -0.8001  1.3008  0.5469
 5885TIP3   OH239069   4.512   3.184  14.887  0.1870 -0.0795  0.5947
 5885TIP3    H139070   4.593   3.138  14.865  0.0233 -0.3172  0.4879
 5885TIP3    H239071   4.452   3.115  14.916 -0.5610 -0.1511 -1.0072
 5886TIP3   OH239072   5.122   1.439  16.411  0.1623 -0.3996 -0.3798
 5886TIP3    H139073   5.203   1.391  16.391 -0.6987 -1.7641 -0.7078
 5886TIP3    H239074   5.061   1.371  16.440 -0.9246  0.5850 -0.3175
 5887TIP3   OH239075   0.796   6.579   2.173 -0.3802 -0.7414  0.2892
 5887TIP3    H139076   0.797   6.668   2.209 -1.2527  0.5490 -2.6148
 5887TIP3    H239077   0.724   6.536   2.218  0.3443 -0.2166  2.0836
 5888TIP3   OH239078   0.395   0.180  12.644 -0.1186  0.2277  0.1449
 5888TIP3    H139079   0.436   0.171  12.730 -0.0393 -1.1193 -0.0128
 5888TIP3    H239080   0.460   0.144  12.583 -0.2367  1.0310 -0.4706
 5889TIP3   OH239081   3.415   0.784  14.172  0.5237  0.2500  0.3227
 5889TIP3    H139082   3.439   0.792  14.079 -1.5055 -1.5779 -0.4240
 5889TIP3    H239083   3.498   0.795  14.218  2.0905 -1.4487 -1.8619
 5890TIP3   OH239084   5.761   4.279  14.207  0.2963  0.0029  0.0127
 5890TIP3    H139085   5.726   4.267  14.295  1.1062  0.4233  0.4074
 5890TIP3    H239086   5.856   4.269  14.218  0.3914 -0.1167 -0.8455
 5891TIP3   OH239087   4.345   3.852   2.227  0.5730 -0.1043 -0.0417
 5891TIP3    H139088   4.358   3.765   2.265 -0.8697 -0.3075  0.0338
 5891TIP3    H239089   4.335   3.836   2.133  1.1592  0.0767 -0.1369
 5892TIP3   OH239090   6.026   0.181   1.875 -0.5013  0.1023  0.2210
 5892TIP3    H139091   6.010   0.090   1.850  1.7926 -0.0462 -1.0140
 5892TIP3    H239092   6.062   0.175   1.963 -1.4984 -0.0546  0.6305
 5893TIP3   OH239093   5.089   3.290   6.342 -0.4248 -0.2607  0.0352
 5893TIP3    H139094   5.060   3.326   6.426  0.3922 -2.6298  1.4357
 5893TIP3    H239095   5.183   3.277   6.352  0.2760  2.0640 -2.3780
 5894TIP3   OH239096   6.056   5.301  11.152  0.3497 -0.6040  0.2667
 5894TIP3    H139097   5.980   5.298  11.095  0.8561  0.4903 -0.5008
 5894TIP3    H239098   6.020   5.319  11.239 -0.2485  0.2773 -0.1538
 5895TIP3   OH239099   6.147   6.431   3.153  0.4153  0.5675  0.5779
 5895TIP3    H139100   6.221   6.468   3.106  0.3356 -0.1444 -0.1388
 5895TIP3    H239101   6.074   6.436   3.091  0.6003 -1.5180  0.1127
 5896TIP3   OH239102   4.341   4.816  14.046  0.8199 -0.1155  0.0517
 5896TIP3    H139103   4.365   4.747  13.983 -0.4863  0.3629 -1.0276
 5896TIP3    H239104   4.256   4.848  14.014 -0.1256 -0.1635  2.3401
 5897TIP3   OH239105   2.257   2.304  11.650  0.8591 -0.5891 -0.0044
 5897TIP3    H139106   2.292   2.291  11.562  1.1633 -0.3751  0.0836
 5897TIP3    H239107   2.271   2.220  11.694 -0.6368 -1.1876 -0.6094
 5898TIP3   OH239108   1.617   3.838   4.184 -0.2513 -0.4625  0.2531
 5898TIP3    H139109   1.703   3.812   4.151 -0.3655 -0.1660 -0.2942
 5898TIP3    H239110   1.635   3.911   4.243 -0.1383 -0.3006  0.0201
 5899TIP3   OH239111   5.948   5.564  16.474 -0.0387 -0.7145  0.3495
 5899TIP3    H139112   6.036   5.526  16.482  0.9770  1.6512  1.3260
 5899TIP3    H239113   5.961   5.643  16.421 -1.6869 -0.5704  0.1036
 5900TIP3   OH239114   0.497   1.331  16.987 -0.2574 -0.5334  0.1545
 5900TIP3    H139115   0.443   1.266  17.032 -2.8760  2.2245  1.3619
 5900TIP3    H239116   0.440   1.366  16.919  1.2780  0.0968 -0.8523
 5901TIP3   OH239117   2.881   6.650   1.010 -0.4778 -0.0739  0.9750
 5901TIP3    H139118   2.972   6.627   1.028 -0.2885  0.4341  0.6826
 5901TIP3    H239119   2.861   6.721   1.071 -0.4665  0.2768  0.5721
 5902TIP3   OH239120   3.904   1.406  14.221 -0.2660  0.5119 -0.1544
 5902TIP3    H139121   3.834   1.355  14.180 -0.7453  0.1766  1.0297
 5902TIP3    H239122   3.868   1.494  14.230 -0.4772  0.3768  0.3166
 5903TIP3   OH239123   1.181   6.177   4.152  0.4006  0.3876  0.0587
 5903TIP3    H139124   1.216   6.192   4.240  0.5046  0.2928  0.0331
 5903TIP3    H239125   1.233   6.234   4.096 -0.5312  1.4438  0.2332
 5904TIP3   OH239126   6.272   2.459   3.155  0.8135  0.0463  0.3766
 5904TIP3    H139127   6.190   2.444   3.202 -0.5349 -1.1102 -2.1583
 5904TIP3    H239128   6.249   2.521   3.086  2.5077  0.9666  0.5879
 5905TIP3   OH239129   0.828   5.838   4.195  1.3874 -0.6743 -0.2602
 5905TIP3    H139130   0.917   5.872   4.183  1.7546 -0.8227  1.7071
 5905TIP3    H239131   0.818   5.830   4.290 -1.3846  1.0455 -0.3091
 5906TIP3   OH239132   5.464   2.511  16.482 -0.1459 -0.2663  0.5482
 5906TIP3    H139133   5.545   2.478  16.522 -1.1645 -2.3438  1.0475
 5906TIP3    H239134   5.446   2.593  16.528  0.9216 -0.4965  1.4174
 5907TIP3   OH239135   5.308   5.083   2.029  0.4343 -0.1912 -0.3456
 5907TIP3    H139136   5.366   5.027   2.079  1.3388  2.0903  1.3374
 5907TIP3    H239137   5.257   5.023   1.974  1.1468 -2.6170  1.5020
 5908TIP3   OH239138   1.078   3.162  11.626  0.2859 -0.1530  0.4288
 5908TIP3    H139139   1.161   3.211  11.630  0.5694 -0.5150 -0.7401
 5908TIP3    H239140   1.075   3.127  11.537 -1.2375  0.0360  0.3893
 5909TIP3   OH239141   0.612   1.170   3.649  0.0606 -0.0064 -0.5299
 5909TIP3    H139142   0.526   1.148   3.684 -0.0835  0.0786 -0.8251
 5909TIP3    H239143   0.599   1.176   3.555  0.6514 -1.1986 -0.7122
 5910TIP3   OH239144   0.650   5.705   4.979  0.9592  0.4010  0.0066
 5910TIP3    H139145   0.576   5.760   5.007 -0.9704 -1.5625 -0.9269
 5910TIP3    H239146   0.642   5.626   5.032 -0.0979 -1.5084 -2.7789
 5911TIP3   OH239147   1.881   4.942  15.244 -0.4523 -0.0349  0.0840
 5911TIP3    H139148   1.892   4.879  15.315 -1.5805 -1.1282 -0.6734
 5911TIP3    H239149   1.818   5.006  15.278 -0.0474  0.1418  0.5053
 5912TIP3   OH239150   0.187   3.771   2.514  0.0843 -0.3431  0.2700
 5912TIP3    H139151   0.104   3.726   2.505 -0.0417 -0.2450  0.8846
 5912TIP3    H239152   0.188   3.803   2.605  0.3875  0.4514 -0.0011
 5913TIP3   OH239153   2.822   1.445   1.282 -0.3658 -0.0465 -0.0593
 5913TIP3    H139154   2.761   1.443   1.356 -0.9142 -1.7389 -0.5194
 5913TIP3    H239155   2.770   1.416   1.207  0.6215  0.0049 -0.7839
 5914TIP3   OH239156   5.468   5.850   0.446  0.3572 -0.5244 -0.2694
 5914TIP3    H139157   5.408   5.912   0.485  2.1119  1.0532  0.0628
 5914TIP3    H239158   5.434   5.835   0.358 -0.0615  1.0122 -0.3942
 5915TIP3   OH239159   2.847   5.167  13.862 -0.2126  0.1521  0.1279
 5915TIP3    H139160   2.836   5.167  13.767  1.3085 -3.5973 -0.2075
 5915TIP3    H239161   2.787   5.099  13.893  0.2177  0.4608  1.7234
 5916TIP3   OH239162   5.874   0.204  16.269 -0.4465 -0.0195  0.6843
 5916TIP3    H139163   5.958   0.190  16.314 -0.9030 -0.6309  1.3779
 5916TIP3    H239164   5.836   0.280  16.314 -0.2502  0.2869  0.3389
 5917TIP3   OH239165   6.018   4.940  13.588  0.6334  0.2027 -0.0126
 5917TIP3    H139166   6.034   4.866  13.648 -2.4063  1.1956  2.2852
 5917TIP3    H239167   5.986   4.898  13.508  0.5870 -1.0363  0.6167
 5918TIP3   OH239168   2.798   1.545  12.794  0.6163 -0.5635  0.3954
 5918TIP3    H139169   2.853   1.621  12.810 -0.4728  0.5934 -0.9903
 5918TIP3    H239170   2.734   1.576  12.729  1.2550 -3.1645 -1.6484
 5919TIP3   OH239171   6.676   1.889   1.517 -0.6775  0.1790  0.3641
 5919TIP3    H139172   6.610   1.940   1.565 -1.2216 -0.7241  0.6035
 5919TIP3    H239173   6.749   1.949   1.506 -0.4877  0.4104  2.4364
 5920TIP3   OH239174   2.774   3.665   5.559  0.2435 -0.7175 -0.4772
 5920TIP3    H139175   2.695   3.653   5.610  1.2210  1.4338  1.7469
 5920TIP3    H239176   2.801   3.577   5.535 -2.1273 -1.5591 -0.2638
 5921TIP3   OH239177   2.670   1.266   4.821 -0.1096 -0.1705  0.3816
 5921TIP3    H139178   2.632   1.256   4.733 -0.3304 -1.7305  0.6208
 5921TIP3    H239179   2.594   1.282   4.878 -0.2429 -1.5255  0.6086
 5922TIP3   OH239180   5.765   4.535  16.087  0.1946 -0.2286  0.0064
 5922TIP3    H139181   5.842   4.585  16.116 -0.5592  0.3072  1.1922
 5922TIP3    H239182   5.770   4.538  15.992  0.1165  2.3073 -0.0082
 5923TIP3   OH239183   0.950   2.056  11.476 -0.2355 -0.4333  0.3549
 5923TIP3    H139184   0.883   2.074  11.410 -1.1131 -1.0006  1.0549
 5923TIP3    H239185   1.030   2.097  11.442 -0.5926 -0.9575 -1.1695
 5924TIP3   OH239186   2.835   0.962   0.739  0.3266 -0.5322  0.6614
 5924TIP3    H139187   2.863   0.961   0.648 -0.1082  1.0771  0.4693
 5924TIP3    H239188   2.740   0.974   0.735 -0.0552 -2.8428  1.3339
 5925TIP3   OH239189   5.649   5.866  14.555  0.1480  0.2677 -0.6325
 5925TIP3    H139190   5.628   5.952  14.518 -0.4372 -0.3553 -1.8217
 5925TIP3    H239191   5.667   5.811  14.478 -2.9431 -1.5669 -0.1916
 5926TIP3   OH239192   0.168   2.929   3.429 -0.3346 -0.7960  0.4284
 5926TIP3    H139193   0.143   2.926   3.521  0.1907 -1.1070  0.5652
 5926TIP3    H239194   0.260   2.900   3.428 -0.9023 -2.7478 -0.3886
 5927TIP3   OH239195   2.272   1.360  16.006  0.6189  0.0442  0.0430
 5927TIP3    H139196   2.317   1.295  15.952  1.9855  0.8753  0.1146
 5927TIP3    H239197   2.256   1.434  15.947 -0.1549 -0.0175  0.1651
 5928TIP3   OH239198   0.091   2.592  12.520  0.5406  0.3031 -0.2467
 5928TIP3    H139199   0.123   2.527  12.582 -0.9422 -3.3442 -2.8885
 5928TIP3    H239200   0.170   2.621  12.473  1.1260 -0.9914 -0.1324
 5929TIP3   OH239201   3.010   0.485  16.191 -0.6089  0.1793 -0.3081
 5929TIP3    H139202   2.919   0.505  16.214 -0.4335 -0.2617  0.8072
 5929TIP3    H239203   3.061   0.516  16.265 -0.1629 -2.6003  0.6495
 5930TIP3   OH239204   4.100   6.203   3.986  0.1071 -0.3844 -0.0570
 5930TIP3    H139205   4.093   6.231   4.077  2.6665 -2.0703  0.7673
 5930TIP3    H239206   4.049   6.122   3.981 -0.8104  0.1924 -0.4210
 5931TIP3   OH239207   4.998   1.249  15.689  0.9198 -0.2874  0.2813
 5931TIP3    H139208   4.905   1.270  15.700  1.1624  1.3823 -0.6152
 5931TIP3    H239209   5.010   1.240  15.595  2.1388  2.0393  0.1529
 5932TIP3   OH239210   1.175   1.262  13.474 -0.2491 -0.1121 -0.3562
 5932TIP3    H139211   1.086   1.289  13.452 -0.8619  0.6042  2.6112
 5932TIP3    H239212   1.177   1.258  13.569  3.3514  1.6036 -0.1543
 5933TIP3   OH239213   1.787   1.276  17.494 -0.1160  0.6426 -0.0390
 5933TIP3    H139214   1.803   1.334  17.568  1.3495  0.9584 -0.5712
 5933TIP3    H239215   1.758   1.194  17.533  0.9517  0.7071  0.9095
 5934TIP3   OH239216   1.147   3.756   1.206 -0.3339  0.1756 -0.3741
 5934TIP3    H139217   1.138   3.662   1.192  1.6934 -0.3340  1.2083
 5934TIP3    H239218   1.213   3.784   1.142 -1.9240  0.8738 -1.8019
 5935TIP3   OH239219   3.230   3.303  15.183  0.2590 -0.1069 -0.0485
 5935TIP3    H139220   3.297   3.319  15.249  1.0097  0.7506 -0.9891
 5935TIP3    H239221   3.158   3.361  15.208  0.3487 -0.1258  0.2651
 5936TIP3   OH239222   1.745   5.625  11.256 -0.3214  0.1301  0.0952
 5936TIP3    H139223   1.797   5.706  11.258 -0.6647  0.3885 -0.7216
 5936TIP3    H239224   1.741   5.602  11.163  0.5118 -1.3219  0.3820
 5937TIP3   OH239225   5.486   3.790   3.180 -0.0380  0.3411  0.3968
 5937TIP3    H139226   5.462   3.777   3.088 -2.8274  0.4517  1.0336
 5937TIP3    H239227   5.549   3.862   3.177  2.4224 -1.6867 -1.6203
 5938TIP3   OH239228   5.573   0.328  14.032  0.2817 -0.0311 -0.0079
 5938TIP3    H139229   5.566   0.250  13.978  1.3648 -1.0198  1.1973
 5938TIP3    H239230   5.573   0.295  14.122 -0.0869  1.4350  0.5573
 5939TIP3   OH239231   2.361   1.418   4.660 -0.4067  0.2914  0.0863
 5939TIP3    H139232   2.431   1.480   4.639 -1.1574  1.3516  0.6212
 5939TIP3    H239233   2.334   1.382   4.575  0.0801  0.6515 -0.2253
 5940TIP3   OH239234   2.385   5.034   5.924  0.3917 -0.1006 -0.2502
 5940TIP3    H139235   2.369   5.129   5.924  1.0867  0.0282 -0.9742
 5940TIP3    H239236   2.320   4.999   5.985 -2.9767  0.3123 -3.2369
 5941TIP3   OH239237   1.113   6.291   0.284  0.9807 -0.1194 -0.1053
 5941TIP3    H139238   1.092   6.385   0.285 -0.4716 -0.4041 -0.9883
 5941TIP3    H239239   1.031   6.249   0.310  0.5577 -1.2782 -2.9616
 5942TIP3   OH239240   0.680   4.803  12.692  0.0063  0.4061  0.3068
 5942TIP3    H139241   0.667   4.837  12.780 -0.9916  0.1671  0.2671
 5942TIP3    H239242   0.615   4.734  12.683 -0.2599  0.7716 -0.7948
 5943TIP3   OH239243   0.650   4.444  16.711  0.1218  0.2298  0.1731
 5943TIP3    H139244   0.651   4.515  16.648 -0.5086 -1.0376 -1.3407
 5943TIP3    H239245   0.616   4.482  16.791 -0.1646  1.6223 -0.5930
 5944TIP3   OH239246   0.392   1.831  15.557 -0.1208 -0.0768 -0.3568
 5944TIP3    H139247   0.487   1.844  15.560 -0.0154 -0.6892 -0.8494
 5944TIP3    H239248   0.355   1.919  15.565  0.4525  0.0399  1.1826
 5945TIP3   OH239249   3.300   5.633  15.401  0.5073  0.0353  0.1198
 5945TIP3    H139250   3.284   5.538  15.400 -0.8211  0.2296  1.3362
 5945TIP3    H239251   3.222   5.671  15.362  1.0766  0.6527 -0.4492
 5946TIP3   OH239252   5.820   5.752  13.765 -0.2393 -0.1141  0.5142
 5946TIP3    H139253   5.824   5.798  13.681 -2.0387  0.4376  0.6764
 5946TIP3    H239254   5.776   5.670  13.745 -0.1347 -0.2459  0.8208
 5947TIP3   OH239255   0.570   3.870  14.406 -0.4516  0.3894 -0.5047
 5947TIP3    H139256   0.485   3.913  14.409 -0.4878  0.2844  2.0916
 5947TIP3    H239257   0.631   3.939  14.377 -1.2793  0.6766 -1.6051
 5948TIP3   OH239258   1.740   0.547   0.421  0.1743 -0.4175  0.0672
 5948TIP3    H139259   1.722   0.570   0.330 -1.0073 -0.3795  0.2862
 5948TIP3    H239260   1.688   0.467   0.436  2.1444 -1.7778  0.0636
 5949TIP3   OH239261   1.488   5.364  14.149 -0.2420 -0.1467  1.2097
 5949TIP3    H139262   1.411   5.351  14.094  0.7946 -0.8793 -0.1345
 5949TIP3    H239263   1.557   5.391  14.088  0.0611  2.6946  2.6677
 5950TIP3   OH239264   2.087   3.088  16.840 -0.6150 -0.1505 -0.1201
 5950TIP3    H139265   1.993   3.098  16.855 -0.7322 -2.1339  0.7369
 5950TIP3    H239266   2.124   3.173  16.865 -2.0952  0.4529  0.1610
 5951TIP3   OH239267   0.002   1.787   1.865  0.2522  0.2342 -0.0055
 5951TIP3    H139268  -0.080   1.831   1.887  0.5326  1.1135 -0.6385
 5951TIP3    H239269  -0.025   1.707   1.819 -0.2545  0.4321 -0.0592
 5952TIP3   OH239270   2.220   1.628   0.949  1.0445  0.3173  0.4364
 5952TIP3    H139271   2.294   1.569   0.964  0.4880 -0.0307  1.9629
 5952TIP3    H239272   2.157   1.605   1.016  0.1619  1.6299  0.0949
 5953TIP3   OH239273   3.085   5.342   3.456  0.6776 -0.2324 -0.1310
 5953TIP3    H139274   3.053   5.393   3.531 -0.5779 -1.5228  0.2742
 5953TIP3    H239275   3.170   5.308   3.484  1.2504  1.1203 -0.1805
 5954TIP3   OH239276   0.905   1.511   0.085 -0.0511  0.2063 -0.2506
 5954TIP3    H139277   0.911   1.429   0.037 -0.1101  0.3058 -0.4270
 5954TIP3    H239278   0.874   1.575   0.021  3.3022  1.1737 -1.0845
 5955TIP3   OH239279   4.604   0.100   4.314  0.1269  0.1139 -0.1207
 5955TIP3    H139280   4.696   0.125   4.304  0.3342 -0.1484  1.0557
 5955TIP3    H239281   4.602   0.043   4.391 -1.2576  1.4573  0.8951
 5956TIP3   OH239282   6.154   0.326   5.274  0.2218 -0.0345  0.3991
 5956TIP3    H139283   6.186   0.245   5.234 -0.9604 -0.8218  0.9576
 5956TIP3    H239284   6.060   0.312   5.282  0.0142  1.3875  0.5766
 5957TIP3   OH239285   4.238   0.872  12.775 -0.5896  0.6603 -0.4610
 5957TIP3    H139286   4.183   0.795  12.760  1.9937 -1.7046  1.1917
 5957TIP3    H239287   4.209   0.907  12.859 -0.9766  0.7702 -0.6382
 5958TIP3   OH239288   2.411   3.342  13.184  0.1459 -0.3170 -0.0152
 5958TIP3    H139289   2.362   3.405  13.131  0.2874  0.4861  0.7694
 5958TIP3    H239290   2.389   3.257  13.147 -0.1625  0.1807 -1.0188
 5959TIP3   OH239291   3.204   4.259   4.103 -0.0569 -0.6151 -0.3915
 5959TIP3    H139292   3.235   4.335   4.053 -1.4763 -0.7150 -1.4429
 5959TIP3    H239293   3.127   4.291   4.150  1.0798 -0.5957  1.5794
 5960TIP3   OH239294   2.969   4.609  13.539 -0.3687  0.2226  0.2308
 5960TIP3    H139295   2.920   4.529  13.556 -1.7348  1.1003  0.5930
 5960TIP3    H239296   2.968   4.618  13.444  1.9566 -1.4552 -0.0336
 5961TIP3   OH239297   4.091   1.592  13.776 -0.3533  0.1857  0.8388
 5961TIP3    H139298   4.013   1.609  13.723  0.0276  0.6411  0.4253
 5961TIP3    H239299   4.072   1.634  13.860 -1.9883 -2.5370  1.9961
 5962TIP3   OH239300   5.001   3.151   2.222 -0.1576  0.2505  0.0782
 5962TIP3    H139301   4.983   3.229   2.169  0.6169  1.0555  0.9495
 5962TIP3    H239302   5.007   3.184   2.312 -0.6893 -0.9672  0.5844
 5963TIP3   OH239303   3.081   4.114   3.448  0.5969  0.0357 -0.3823
 5963TIP3    H139304   3.026   4.084   3.375  1.7122 -2.4590 -0.2964
 5963TIP3    H239305   3.020   4.123   3.522 -0.1931  0.4811 -1.0705
 5964TIP3   OH239306   6.070   0.494  15.757  0.3096  0.4962 -0.2994
 5964TIP3    H139307   6.085   0.401  15.777  2.8681  1.1513  1.2180
 5964TIP3    H239308   5.985   0.495  15.712 -0.9184 -2.2960  1.6827
 5965TIP3   OH239309   5.028   6.472  13.293 -0.2040 -1.2230 -0.2213
 5965TIP3    H139310   5.013   6.406  13.361 -2.7751 -1.7315 -1.1701
 5965TIP3    H239311   5.030   6.555  13.339  2.4340 -1.8077  0.9203
 5966TIP3   OH239312   4.268   5.406   5.362  0.1837  0.3965 -0.2686
 5966TIP3    H139313   4.201   5.339   5.369  0.2150  0.4340  0.4933
 5966TIP3    H239314   4.227   5.476   5.311 -0.4487  0.5167  0.3757
 5967TIP3   OH239315   3.179   6.579   0.779 -0.6143  0.0189  0.2572
 5967TIP3    H139316   3.238   6.643   0.740  0.4568  0.0906  1.8773
 5967TIP3    H239317   3.135   6.626   0.849 -0.7766 -0.6708  0.6311
 5968TIP3   OH239318   5.842   2.190   5.150  0.0639 -0.1806 -0.5422
 5968TIP3    H139319   5.785   2.126   5.108 -1.3954  1.0686 -0.5945
 5968TIP3    H239320   5.918   2.198   5.093 -0.8672 -0.1044 -1.7964
 5969TIP3   OH239321   5.391   0.858   4.891  0.4652  0.2064  0.4027
 5969TIP3    H139322   5.456   0.832   4.826  1.2581  0.1125  1.2173
 5969TIP3    H239323   5.345   0.776   4.912 -1.3221  0.6041 -1.6390
 5970TIP3   OH239324   0.590   5.923  14.030 -0.4334 -0.0614 -0.1651
 5970TIP3    H139325   0.506   5.888  14.061  0.3822  0.0756  2.4679
 5970TIP3    H239326   0.608   5.875  13.950 -2.7905 -0.4153 -0.5582
 5971TIP3   OH239327   3.848   0.965  13.232  0.1326  0.0739  0.0297
 5971TIP3    H139328   3.847   0.955  13.136  0.6572  0.2698 -0.0012
 5971TIP3    H239329   3.934   0.933  13.258  0.7063  1.7065  0.2431
 5972TIP3   OH239330   1.356   6.078  14.118  0.5326  0.0912 -0.0270
 5972TIP3    H139331   1.389   6.104  14.204 -0.0992 -0.0736  0.2777
 5972TIP3    H239332   1.433   6.047  14.071  0.7288 -0.8134  0.8527
 5973TIP3   OH239333   0.428   4.250   1.508  0.4703 -0.1423 -0.2662
 5973TIP3    H139334   0.389   4.335   1.529 -0.8636 -0.4051 -1.4706
 5973TIP3    H239335   0.492   4.269   1.440  0.8787  0.0253  0.1673
 5974TIP3   OH239336   4.695   1.909   0.593 -0.1431 -0.1457 -0.1850
 5974TIP3    H139337   4.735   1.919   0.507  1.8311  0.0564  0.7028
 5974TIP3    H239338   4.706   1.816   0.614 -0.2142 -0.1063  0.0277
 5975TIP3   OH239339   5.459   0.846  15.132  0.4898 -0.1394 -0.0585
 5975TIP3    H139340   5.383   0.863  15.077  0.0794  1.7230  0.9963
 5975TIP3    H239341   5.442   0.760  15.172 -0.9003  0.1018 -0.0889
 5976TIP3   OH239342   6.504   3.991  11.858 -0.7194 -0.1226 -0.1210
 5976TIP3    H139343   6.463   3.924  11.802  0.6379 -0.8660 -0.2715
 5976TIP3    H239344   6.485   4.073  11.814 -1.3179 -0.5263 -0.6418
 5977TIP3   OH239345   3.345   1.381   2.586  0.0856  0.3150 -0.7164
 5977TIP3    H139346   3.412   1.313   2.592  1.2160  1.3858 -0.6490
 5977TIP3    H239347   3.262   1.335   2.594  0.8104 -1.0816 -0.9930
 5978TIP3   OH239348   1.411   6.546  11.585  0.7844  0.0312  0.4480
 5978TIP3    H139349   1.470   6.471  11.596  1.0104  0.0476 -0.5998
 5978TIP3    H239350   1.376   6.536  11.497  0.2470  0.7666  0.5733
 5979TIP3   OH239351   5.678   2.307  16.930 -0.1044 -0.4026 -0.2137
 5979TIP3    H139352   5.703   2.398  16.917 -0.3826 -0.4219 -0.9118
 5979TIP3    H239353   5.587   2.311  16.960  0.0738 -0.4249  0.3343
 5980TIP3   OH239354   5.547   0.987  13.598 -0.6208 -0.0761  0.1684
 5980TIP3    H139355   5.476   0.936  13.636 -0.0536 -1.5567 -0.6347
 5980TIP3    H239356   5.536   0.976  13.503  1.0122 -0.9118  0.0260
 5981TIP3   OH239357   5.984   3.141  11.205  0.2578  0.2440  0.1347
 5981TIP3    H139358   6.036   3.222  11.207  0.3392  0.1890  0.2708
 5981TIP3    H239359   5.975   3.121  11.112 -0.3446  0.7805  0.0684
 5982TIP3   OH239360   3.017   5.135   4.610  0.7972 -0.0514  0.1503
 5982TIP3    H139361   3.094   5.078   4.614 -0.5363 -1.8793  1.4325
 5982TIP3    H239362   3.017   5.180   4.695  2.0225  2.2229 -0.9762
 5983TIP3   OH239363   5.067   4.039  12.069  0.7514  0.3408  0.4938
 5983TIP3    H139364   5.098   3.976  12.005 -0.0233 -0.4529  0.8698
 5983TIP3    H239365   5.028   4.110  12.017  1.0304  0.1912  0.0807
 5984TIP3   OH239366   1.579   6.626  14.568  0.3100 -0.0673  0.0232
 5984TIP3    H139367   1.617   6.587  14.647 -0.1147 -1.0412 -0.2437
 5984TIP3    H239368   1.644   6.690  14.539  0.6800 -0.0322  0.8924
 5985TIP3   OH239369   4.827   4.222   6.060  0.7111  0.5820  0.0834
 5985TIP3    H139370   4.804   4.281   6.133 -0.8562 -0.3311  0.3517
 5985TIP3    H239371   4.878   4.153   6.101 -0.4729 -0.1232  0.4109
 5986TIP3   OH239372   4.350   4.568   3.395 -0.3580 -0.0897  0.5802
 5986TIP3    H139373   4.393   4.500   3.343 -1.1161 -0.9567  1.0485
 5986TIP3    H239374   4.360   4.648   3.343  0.4116 -0.5908 -0.0612
 5987TIP3   OH239375   6.639   4.861   1.226  0.1127  0.0632  0.0777
 5987TIP3    H139376   6.720   4.874   1.178  1.9978  0.6464  3.1781
 5987TIP3    H239377   6.579   4.926   1.191  1.8147  1.3228 -0.5965
 5988TIP3   OH239378   3.409   0.293  11.807 -0.1192 -0.4899  0.5388
 5988TIP3    H139379   3.484   0.281  11.865  0.1212 -4.6309 -0.3818
 5988TIP3    H239380   3.445   0.285  11.719 -1.2891  0.2065 -0.0363
 5989TIP3   OH239381   6.363   4.031  14.656 -0.4684  0.2234  0.7051
 5989TIP3    H139382   6.323   3.979  14.726 -0.4514  0.0574  0.5925
 5989TIP3    H239383   6.434   3.976  14.623  1.5114  1.5339  2.5802
 5990TIP3   OH239384   5.428   2.608   0.950 -0.0762 -0.2661 -0.5197
 5990TIP3    H139385   5.425   2.521   0.990 -1.4974  0.5153  1.2448
 5990TIP3    H239386   5.521   2.626   0.936  0.5441 -0.6341  2.5093
 5991TIP3   OH239387   4.392   0.662   5.835  0.0710  0.0697  0.7221
 5991TIP3    H139388   4.402   0.567   5.830  2.7616  0.3315 -0.6351
 5991TIP3    H239389   4.299   0.677   5.817 -0.8926 -2.3488  2.9636
 5992TIP3   OH239390   2.976   4.282   4.299  0.2143  0.3612  0.4954
 5992TIP3    H139391   2.940   4.322   4.378 -0.0783  1.8118 -0.3371
 5992TIP3    H239392   2.992   4.191   4.323  0.2892  0.8146  2.2711
 5993TIP3   OH239393   3.295   2.866  13.265 -0.3575  0.4695 -0.8478
 5993TIP3    H139394   3.382   2.858  13.303  0.5267  0.0655 -2.8389
 5993TIP3    H239395   3.278   2.960  13.265  0.5129  0.6408 -1.3173
 5994TIP3   OH239396   0.082   4.032  14.499  0.4468  0.1388 -0.4070
 5994TIP3    H139397   0.031   4.109  14.476  1.6242  1.1713  0.2840
 5994TIP3    H239398   0.164   4.067  14.534  0.5040 -1.4015  1.1560
 5995TIP3   OH239399   3.747   6.240   3.591  0.1389  0.1613  0.1358
 5995TIP3    H139400   3.740   6.255   3.497  2.4449 -0.3115 -0.1700
 5995TIP3    H239401   3.783   6.321   3.627  0.4260 -0.0825  0.4103
 5996TIP3   OH239402   0.973   2.151   1.969  0.6171  0.3975  0.1021
 5996TIP3    H139403   0.997   2.073   2.019 -1.0623  0.3438  0.8785
 5996TIP3    H239404   0.885   2.133   1.935  0.1401  1.9839  0.3984
 5997TIP3   OH239405   5.497   4.484   0.489 -0.2298  0.1717 -0.0189
 5997TIP3    H139406   5.526   4.428   0.416  2.1143  0.5079  0.5888
 5997TIP3    H239407   5.509   4.573   0.457  1.0457  0.3252  0.8170
 5998TIP3   OH239408   0.259   6.499   6.321 -0.1168 -0.1998 -0.4167
 5998TIP3    H139409   0.206   6.437   6.371 -1.3697  0.6147 -0.6835
 5998TIP3    H239410   0.267   6.460   6.234 -1.9798  0.5473 -0.9690
 5999TIP3   OH239411   2.923   0.828   1.724 -0.2007 -0.2144 -0.6114
 5999TIP3    H139412   2.903   0.853   1.634  2.9210 -1.4285 -1.7794
 5999TIP3    H239413   2.869   0.751   1.740 -0.6226 -0.1217 -1.5059
 6000TIP3   OH239414   1.684   5.512   0.931 -0.1609  0.3415  0.3738
 6000TIP3    H139415   1.631   5.433   0.943 -1.0651  0.4851 -2.1637
 6000TIP3    H239416   1.688   5.551   1.018 -1.2755 -1.4987  1.3184
 6001TIP3   OH239417   0.686   3.713  15.034  0.9048  0.3113 -0.4936
 6001TIP3    H139418   0.593   3.721  15.052  1.1100 -0.0928  0.8301
 6001TIP3    H239419   0.713   3.632  15.078  1.5865 -0.4325 -2.1580
 6002TIP3   OH239420   4.236   1.140   5.010 -0.2515 -0.0699  0.4706
 6002TIP3    H139421   4.289   1.159   5.087 -0.1329  2.5784 -0.1532
 6002TIP3    H239422   4.145   1.147   5.040 -0.2061  0.8493  0.4072
 6003TIP3   OH239423   5.623   3.889  11.518 -0.1739  0.6420  0.0237
 6003TIP3    H139424   5.650   3.878  11.426 -0.0417 -1.9100  0.2962
 6003TIP3    H239425   5.527   3.884  11.515 -0.1113 -1.0786  0.1561
 6004TIP3   OH239426   3.821   1.521  12.954  0.2374 -0.0393  0.1341
 6004TIP3    H139427   3.866   1.475  13.024  0.9346  1.0586  0.4312
 6004TIP3    H239428   3.805   1.609  12.988  0.0864  0.3454 -0.8731
 6005TIP3   OH239429   2.628   5.443   0.069  0.1034  0.0482 -0.1113
 6005TIP3    H139430   2.704   5.477   0.022  1.3009 -1.2019  0.8399
 6005TIP3    H239431   2.657   5.438   0.160 -0.7255 -1.5280  0.0941
 6006TIP3   OH239432   0.074   6.366  12.687 -0.0701 -0.5024  0.4441
 6006TIP3    H139433  -0.010   6.353  12.642 -0.5895  0.8455  0.9705
 6006TIP3    H239434   0.056   6.436  12.751  0.9679 -1.4899  1.8789
 6007TIP3   OH239435   4.244   2.939  16.853  0.2644 -0.4702 -0.2802
 6007TIP3    H139436   4.260   2.852  16.815  0.7007 -0.7636  0.5418
 6007TIP3    H239437   4.256   3.000  16.780  1.3142 -0.9945 -0.5722
 6008TIP3   OH239438   4.418   0.561  15.826 -0.0592  0.2591 -0.3168
 6008TIP3    H139439   4.347   0.501  15.803 -0.0913  0.7033 -1.4405
 6008TIP3    H239440   4.470   0.568  15.745  0.6185  0.8150  0.1560
 6009TIP3   OH239441   2.291   4.582  14.894 -0.4574  0.5203 -0.1837
 6009TIP3    H139442   2.344   4.588  14.815  1.9700 -0.8513  1.1763
 6009TIP3    H239443   2.312   4.661  14.944 -0.7533  0.6333 -0.2387
 6010TIP3   OH239444   0.953   0.643   1.715  0.8435 -0.5769  0.3971
 6010TIP3    H139445   0.975   0.611   1.628 -1.1430  2.6098 -1.4883
 6010TIP3    H239446   1.033   0.687   1.744  0.9236  0.0900 -0.7614
 6011TIP3   OH239447   1.018   0.280   5.825 -0.2674 -0.8074  0.5842
 6011TIP3    H139448   1.087   0.219   5.798 -1.3003 -1.2271 -1.3124
 6011TIP3    H239449   1.063   0.345   5.879  1.7027 -0.8437 -0.8989
 6012TIP3   OH239450   3.864   2.490   4.977 -0.0298  0.2048 -0.1235
 6012TIP3    H139451   3.779   2.527   5.002  0.4803  0.2687  1.6613
 6012TIP3    H239452   3.922   2.566   4.969 -0.0280  0.1263 -0.9068
 6013TIP3   OH239453   6.286   2.081   4.755 -0.1831  0.2464  0.2025
 6013TIP3    H139454   6.238   2.094   4.674 -1.0231  0.5263  0.7238
 6013TIP3    H239455   6.337   2.161   4.767 -0.8378  0.6335  0.4512
 6014TIP3   OH239456   1.286   5.469  17.329 -0.2449  0.3718  0.4240
 6014TIP3    H139457   1.263   5.561  17.325 -0.9793  0.1578 -0.7720
 6014TIP3    H239458   1.233   5.433  17.400 -2.1826  0.2991 -0.9993
 6015TIP3   OH239459   3.018   4.778  14.471 -0.4288  0.0574 -0.0050
 6015TIP3    H139460   3.020   4.700  14.527  3.1697 -0.2340 -0.3080
 6015TIP3    H239461   3.078   4.757  14.399  0.1608  2.8421 -0.4409
 6016TIP3   OH239462   0.204   1.415  13.215  0.8253 -0.0414 -0.4003
 6016TIP3    H139463   0.291   1.427  13.178  0.8205 -0.6611 -0.6213
 6016TIP3    H239464   0.161   1.352  13.157  0.9183 -1.2590  0.7905
 6017TIP3   OH239465   3.324   4.271  13.698  0.1951  0.3302 -0.1032
 6017TIP3    H139466   3.375   4.350  13.716 -1.1608  1.0242  0.8965
 6017TIP3    H239467   3.252   4.275  13.761  0.0294 -1.6489 -0.1320
 6018TIP3   OH239468   2.148   3.759  11.459 -0.3107 -0.0973  0.0727
 6018TIP3    H139469   2.205   3.682  11.461 -1.2408 -0.9031 -1.6496
 6018TIP3    H239470   2.112   3.765  11.547  0.5172 -1.0687  0.4910
 6019TIP3   OH239471   4.662   4.587  13.676  0.5537  0.5862 -0.1234
 6019TIP3    H139472   4.681   4.661  13.618  0.1132  0.7266 -0.0912
 6019TIP3    H239473   4.744   4.536  13.677  1.6737  2.2929  1.7074
 6020TIP3   OH239474   3.275   0.582   0.396 -0.3067  0.3105  0.0609
 6020TIP3    H139475   3.215   0.555   0.465  1.4767 -1.2278  1.0976
 6020TIP3    H239476   3.344   0.516   0.396  0.0588  0.5343 -2.8663
 6021TIP3   OH239477   3.709   2.071  14.590 -0.2612 -0.4245  0.1777
 6021TIP3    H139478   3.793   2.117  14.599 -0.4808 -0.1984  1.2305
 6021TIP3    H239479   3.643   2.140  14.593 -0.4775 -0.5352 -1.3576
 6022TIP3   OH239480   3.083   2.679   1.857 -0.1378  0.0948 -0.3109
 6022TIP3    H139481   3.000   2.724   1.871  0.0938  0.0385  1.5505
 6022TIP3    H239482   3.132   2.693   1.938  1.8503  0.4649 -1.5042
 6023TIP3   OH239483   4.487   6.533   2.748 -0.0928  0.5053 -0.0969
 6023TIP3    H139484   4.493   6.463   2.812 -2.3876  0.0793 -0.2652
 6023TIP3    H239485   4.560   6.517   2.688  0.1941 -0.9485  0.6111
 6024TIP3   OH239486   4.751   3.811   3.808 -0.1585  0.2933  0.3856
 6024TIP3    H139487   4.846   3.803   3.814 -0.2211 -0.3403  0.6157
 6024TIP3    H239488   4.736   3.891   3.757  0.5055 -0.0848 -0.4123
 6025TIP3   OH239489   3.425   0.719  15.709  0.0221  0.2549  0.4872
 6025TIP3    H139490   3.366   0.791  15.727 -0.5583 -0.7004  2.7932
 6025TIP3    H239491   3.368   0.644  15.694  0.5354 -0.7772  3.1877
 6026TIP3   OH239492   1.145   0.626   3.260  0.1004  0.4394 -0.4686
 6026TIP3    H139493   1.173   0.574   3.185  1.5742 -0.1453  0.4456
 6026TIP3    H239494   1.108   0.706   3.222  0.4313 -0.0249 -1.8108
 6027TIP3   OH239495   5.154   4.438   5.139  0.0820 -0.7957  0.0774
 6027TIP3    H139496   5.171   4.515   5.085 -0.5750 -0.4779  0.3043
 6027TIP3    H239497   5.205   4.368   5.099  1.8670  0.0691  0.7155
 6028TIP3   OH239498   2.238   0.239  15.942 -0.5302  0.2272  0.1720
 6028TIP3    H139499   2.298   0.312  15.926 -1.4935  0.7419 -1.3447
 6028TIP3    H239500   2.251   0.217  16.034 -0.7516  2.8254  0.9161
 6029TIP3   OH239501   3.888   6.650  14.936  0.1051 -0.2925 -0.1566
 6029TIP3    H139502   3.891   6.645  15.031 -1.7223 -0.7790 -0.0772
 6029TIP3    H239503   3.967   6.698  14.912 -0.1112  1.1286  1.7155
 6030TIP3   OH239504   6.526   3.498   4.338 -0.3345 -0.2014 -0.4639
 6030TIP3    H139505   6.445   3.545   4.359  0.2402  0.8827 -0.5756
 6030TIP3    H239506   6.545   3.447   4.417  0.3063  1.6581  0.6605
 6031TIP3   OH239507   4.049   4.989  11.165  0.0936  0.0434 -0.1909
 6031TIP3    H139508   3.958   4.989  11.194  0.6294 -0.1405  1.5843
 6031TIP3    H239509   4.076   4.897  11.168  1.1714  0.3522  2.2583
 6032TIP3   OH239510   0.144   5.317  17.218 -0.0604  0.5432 -0.2586
 6032TIP3    H139511   0.112   5.232  17.249 -0.5708  0.8548  0.0841
 6032TIP3    H239512   0.098   5.381  17.272  0.4996  1.0347 -0.3529
 6033TIP3   OH239513   5.142   5.610   2.191  0.3660  0.2534  0.2697
 6033TIP3    H139514   5.105   5.666   2.123  0.2848 -0.2296 -0.0898
 6033TIP3    H239515   5.127   5.657   2.273 -2.0093 -0.4013  0.2736
 6034TIP3   OH239516   5.302   0.486   4.298 -0.3504  0.3587  0.6323
 6034TIP3    H139517   5.241   0.504   4.370 -2.3901 -0.3443 -0.8148
 6034TIP3    H239518   5.280   0.551   4.232  2.3043  1.7678  0.9840
 6035TIP3   OH239519   1.485   4.061  12.264  0.0294 -0.5408  0.2168
 6035TIP3    H139520   1.526   4.070  12.178  2.5507  1.8237  1.5167
 6035TIP3    H239521   1.438   4.143  12.277  2.3879  0.6159  2.2818
 6036TIP3   OH239522   3.017   1.388  16.497  0.0650 -0.1674  0.2553
 6036TIP3    H139523   3.093   1.331  16.489  1.6180  1.8074 -0.1541
 6036TIP3    H239524   3.002   1.421  16.408 -1.1267 -0.3289  0.3787
 6037TIP3   OH239525   4.629   3.266  16.950 -0.4474  0.0490 -0.1097
 6037TIP3    H139526   4.664   3.242  17.036 -0.7358  0.3917  0.1087
 6037TIP3    H239527   4.603   3.183  16.911  0.5036 -0.1972 -0.2321
 6038TIP3   OH239528   5.363   3.337  15.237 -0.4960 -0.0726  0.6552
 6038TIP3    H139529   5.401   3.317  15.151  1.2176 -1.7872  1.7320
 6038TIP3    H239530   5.274   3.302  15.232 -0.8294  0.8762 -0.7587
 6039TIP3   OH239531   0.253   2.927   2.757  0.0051  0.2763  0.1570
 6039TIP3    H139532   0.199   2.918   2.678  0.5336 -0.2378 -0.1519
 6039TIP3    H239533   0.343   2.915   2.726  0.3408  1.5117  0.6057
 6040TIP3   OH239534   0.258   3.206  13.239 -0.4213  0.0350  0.3421
 6040TIP3    H139535   0.343   3.175  13.269 -1.0200 -0.5171  1.5019
 6040TIP3    H239536   0.235   3.276  13.300 -0.3182  0.9554 -0.6334
 6041TIP3   OH239537   5.449   1.561  15.107 -0.2054  0.4995  1.0408
 6041TIP3    H139538   5.501   1.576  15.028 -0.0061 -1.3684  0.7713
 6041TIP3    H239539   5.470   1.635  15.164  1.5997  0.5613  0.3500
 6042TIP3   OH239540   0.979   4.474   3.650 -0.4397  0.2794 -0.2585
 6042TIP3    H139541   0.971   4.545   3.713 -1.7927 -0.8537  0.9263
 6042TIP3    H239542   0.967   4.515   3.565 -1.2944  1.4471  0.4094
 6043TIP3   OH239543   3.986   6.159   1.616  0.1903 -0.2147  0.1973
 6043TIP3    H139544   4.030   6.196   1.539 -1.0513  1.3071  0.1823
 6043TIP3    H239545   3.997   6.064   1.606 -0.3209 -0.0927 -2.1024
 6044TIP3   OH239546   1.412   2.386   0.922  0.1106  0.3294  0.2470
 6044TIP3    H139547   1.421   2.444   0.998 -0.8680 -1.1038  1.5103
 6044TIP3    H239548   1.501   2.361   0.899  0.4847  1.6323  0.2126
 6045TIP3   OH239549   5.671   4.683   4.051  0.0645  0.2371 -0.7882
 6045TIP3    H139550   5.613   4.754   4.023  0.4212  0.7801 -0.1863
 6045TIP3    H239551   5.744   4.686   3.989 -1.0149 -1.1642 -2.2509
 6046TIP3   OH239552   0.690   5.458   4.145  0.1467 -0.3397 -0.0516
 6046TIP3    H139553   0.705   5.393   4.076  0.9418  0.7737 -0.9680
 6046TIP3    H239554   0.778   5.484   4.174 -0.1521  0.3327  0.2819
 6047TIP3   OH239555   4.326   0.949   4.358 -0.1213  0.4363 -0.1159
 6047TIP3    H139556   4.276   0.926   4.437  0.9166 -0.2412  0.3553
 6047TIP3    H239557   4.333   0.867   4.309  2.3836 -0.0348  0.8914
 6048TIP3   OH239558   3.489   6.161  12.249  0.1676 -0.1098  0.1128
 6048TIP3    H139559   3.522   6.076  12.219 -0.6381 -0.0564 -0.9922
 6048TIP3    H239560   3.464   6.146  12.340 -0.0495 -1.0896 -0.0906
 6049TIP3   OH239561   5.471   3.655  12.586 -0.9846 -0.5063  0.1154
 6049TIP3    H139562   5.391   3.709  12.591 -0.7709 -0.2247  0.6083
 6049TIP3    H239563   5.514   3.670  12.670  0.4583  0.7122 -0.7922
 6050TIP3   OH239564   5.026   6.456  15.884 -0.0022  0.3113  0.1566
 6050TIP3    H139565   4.943   6.416  15.859 -0.4869  0.4885  1.4276
 6050TIP3    H239566   5.054   6.407  15.961  1.1324  0.1832 -0.3249
 6051TIP3   OH239567   5.330   4.228  16.027  0.5330 -0.5809  0.0318
 6051TIP3    H139568   5.289   4.180  15.955 -4.5559  0.6431  1.6766
 6051TIP3    H239569   5.375   4.161  16.079  1.2407 -2.0097 -2.2830
 6052TIP3   OH239570   0.527   3.957  11.395 -0.4830 -0.2361  0.4462
 6052TIP3    H139571   0.527   3.946  11.300  0.2478  0.8086  0.3043
 6052TIP3    H239572   0.482   4.039  11.410 -0.6112 -0.4043  1.0086
 6053TIP3   OH239573   4.006   1.436   4.937 -0.2081  0.3662 -0.3149
 6053TIP3    H139574   3.980   1.388   5.015  0.1118  1.2352  0.3451
 6053TIP3    H239575   4.038   1.520   4.970  0.4362  0.5420 -1.3387
 6054TIP3   OH239576   4.624   0.873   2.873 -0.5612  0.4479 -0.5475
 6054TIP3    H139577   4.687   0.894   2.941 -0.6487 -2.6743  0.6332
 6054TIP3    H239578   4.587   0.958   2.848  1.1621  1.9330  1.5922
 6055TIP3   OH239579   5.457   5.263   5.412 -0.2266  0.3660  0.1971
 6055TIP3    H139580   5.412   5.202   5.353 -0.4654 -0.9346  1.6475
 6055TIP3    H239581   5.550   5.246   5.397 -0.1999  1.4932 -1.2098
 6056TIP3   OH239582   0.839   6.072  16.415 -0.1373 -0.0225  0.2446
 6056TIP3    H139583   0.920   6.070  16.365  0.4927  1.0626  1.1851
 6056TIP3    H239584   0.811   5.980  16.418  1.4638 -0.5260  0.5614
 6057TIP3   OH239585   1.289   0.139  13.501  0.1521 -0.2054  0.0369
 6057TIP3    H139586   1.283   0.109  13.410  0.5767 -0.3746  0.0617
 6057TIP3    H239587   1.198   0.148  13.529 -0.0231 -2.4991  0.3808
 6058TIP3   OH239588   1.225   6.561  17.125  0.1018  0.2654 -0.8348
 6058TIP3    H139589   1.157   6.577  17.190  1.0189 -1.2600  0.5571
 6058TIP3    H239590   1.228   6.642  17.073 -3.8093 -0.1484 -2.0022
 6059TIP3   OH239591   6.085   5.256   0.844  0.0282  0.2111 -0.1333
 6059TIP3    H139592   5.997   5.250   0.881 -0.0675  0.9165 -0.2249
 6059TIP3    H239593   6.080   5.328   0.781  0.3675 -0.5168 -1.0090
 6060TIP3   OH239594   0.204   6.289  12.154 -0.0475 -0.1658 -0.3420
 6060TIP3    H139595   0.127   6.266  12.206  0.3431 -1.6392 -0.3674
 6060TIP3    H239596   0.262   6.213  12.163  1.9938  1.4128  0.7390
 6061TIP3   OH239597   4.672   1.148   3.109 -0.1351 -0.3666 -0.1265
 6061TIP3    H139598   4.654   1.118   3.197 -0.7883 -0.5096 -0.3036
 6061TIP3    H239599   4.594   1.197   3.084 -0.8947 -2.1108 -1.4040
 6062TIP3   OH239600   3.751   6.551  12.811  0.0522  0.6899  0.2369
 6062TIP3    H139601   3.840   6.519  12.796  0.1672  0.4610  1.3111
 6062TIP3    H239602   3.760   6.647  12.806  0.5297  0.7054  1.1110
 6063TIP3   OH239603   1.385   4.093  12.649  0.5625 -0.1266 -0.2180
 6063TIP3    H139604   1.332   4.021  12.615 -0.0380  1.4050 -2.8745
 6063TIP3    H239605   1.457   4.101  12.586  0.8174  1.3372  0.2266
 6064TIP3   OH239606   6.687   4.933   6.264  0.8411  0.2208 -0.0927
 6064TIP3    H139607   6.628   5.007   6.250  0.6652  0.1455  0.2437
 6064TIP3    H239608   6.743   4.960   6.336  1.1944  0.2732 -0.3814
 6065TIP3   OH239609   5.393   5.105   0.407 -0.3267 -0.3453  0.5836
 6065TIP3    H139610   5.337   5.054   0.349 -0.8129  0.5659  0.2402
 6065TIP3    H239611   5.449   5.155   0.349  1.8593 -2.2633  0.9112
 6066TIP3   OH239612   6.281   6.682  11.206 -0.2663 -0.6145 -0.4807
 6066TIP3    H139613   6.316   6.598  11.174 -0.7599 -0.6026 -1.0683
 6066TIP3    H239614   6.257   6.729  11.126 -2.1146 -0.8351 -0.0992
 6067TIP3   OH239615   0.982   1.891  15.216 -0.7906 -0.6612  0.3243
 6067TIP3    H139616   0.967   1.844  15.298 -1.5418 -1.1340 -0.0794
 6067TIP3    H239617   1.066   1.856  15.184  0.0984  0.3453  1.4379
 6068TIP3   OH239618   4.723   0.782   1.370  0.2710  0.1036 -0.5061
 6068TIP3    H139619   4.769   0.818   1.445 -2.9672 -0.2908  1.8606
 6068TIP3    H239620   4.736   0.687   1.377  0.0596  0.0752 -0.4727
 6069TIP3   OH239621   6.215   3.273   5.542  0.0250  0.2620  0.1215
 6069TIP3    H139622   6.237   3.298   5.452  0.5221 -0.0963  0.1428
 6069TIP3    H239623   6.289   3.222   5.572  0.1799  0.9758  0.9959
 6070TIP3   OH239624   1.547   0.776   4.029  0.1288 -0.6118  0.2190
 6070TIP3    H139625   1.531   0.724   4.107 -2.0578 -0.4066 -0.0164
 6070TIP3    H239626   1.634   0.814   4.042  0.8313 -2.5027  1.4096
 6071TIP3   OH239627   4.659   6.142   0.270  0.5328 -0.3238 -0.6332
 6071TIP3    H139628   4.570   6.109   0.261  1.3292 -2.5717 -0.8754
 6071TIP3    H239629   4.708   6.069   0.306  1.7199  1.8301  2.5387
 6072TIP3   OH239630   5.969   3.665  12.141  0.0780 -0.2900  0.0865
 6072TIP3    H139631   5.981   3.662  12.046  1.6481 -3.5489  0.2527
 6072TIP3    H239632   6.041   3.719  12.173 -1.3262  2.1215 -0.5578
 6073TIP3   OH239633   3.021   1.088   4.617  0.4181  0.0595  0.1973
 6073TIP3    H139634   3.110   1.117   4.639  1.5983 -2.6818 -0.5707
 6073TIP3    H239635   2.974   1.092   4.700  1.0158  2.1328  0.5020
 6074TIP3   OH239636   4.508   0.002  14.598 -0.7806 -0.5472 -0.2844
 6074TIP3    H139637   4.599   0.000  14.626 -0.8217  0.1780 -0.0906
 6074TIP3    H239638   4.483   0.094  14.603 -0.7161 -0.3108 -3.0080
 6075TIP3   OH239639   3.563   4.753   1.145 -0.1148  0.2303  0.6377
 6075TIP3    H139640   3.598   4.665   1.157  0.3927  0.3669  0.1964
 6075TIP3    H239641   3.633   4.811   1.174  0.0416  0.5031 -0.2462
 6076TIP3   OH239642   4.738   6.023   5.029  0.4103 -0.0029  0.4428
 6076TIP3    H139643   4.801   6.083   5.070  1.1505 -1.5220  1.6161
 6076TIP3    H239644   4.716   5.961   5.098  0.4376 -1.7009 -1.0259
 6077TIP3   OH239645   2.326   4.722  11.111  0.6077 -0.0961  0.2102
 6077TIP3    H139646   2.280   4.642  11.137  0.6792  0.3605  1.8497
 6077TIP3    H239647   2.269   4.793  11.142  0.7051  0.4912 -0.9293
 6078TIP3   OH239648   4.439   1.460  16.194 -0.1811  0.8022  0.1921
 6078TIP3    H139649   4.446   1.490  16.104 -2.0930 -0.0331 -0.2734
 6078TIP3    H239650   4.351   1.486  16.222 -1.3413 -2.7578  0.2930
 6079TIP3   OH239651   1.365   1.495   1.677 -0.6271  0.6148 -0.0405
 6079TIP3    H139652   1.419   1.508   1.599 -2.5780  3.0148 -1.1374
 6079TIP3    H239653   1.325   1.409   1.664  0.5253  0.1673 -0.7451
 6080TIP3   OH239654   2.106   2.908  16.637 -0.0885  0.4499 -0.1417
 6080TIP3    H139655   2.113   2.978  16.702  1.9344  0.5949 -0.4473
 6080TIP3    H239656   2.160   2.938  16.564 -1.8231  0.0183 -1.6641
 6081TIP3   OH239657   6.095   6.379   6.656  0.2523  0.0531 -0.1711
 6081TIP3    H139658   6.081   6.284   6.652  2.0786 -0.2595 -0.0754
 6081TIP3    H239659   6.024   6.412   6.711  0.3580 -1.4420  0.9190
 6082TIP3   OH239660   6.037   2.927  16.400  0.3125 -0.5328 -0.1527
 6082TIP3    H139661   6.069   2.929  16.490 -0.6844  1.2858  0.2264
 6082TIP3    H239662   6.008   2.837  16.386  1.5378 -1.1299  0.9306
 6083TIP3   OH239663   4.820   1.486   1.987  0.3392 -0.0156 -0.0772
 6083TIP3    H139664   4.822   1.564   2.042  1.4410  0.1166 -0.2844
 6083TIP3    H239665   4.856   1.515   1.903 -1.7222 -0.0984 -1.0437
 6084TIP3   OH239666   5.598   4.491  15.651  0.2569 -0.2629 -0.0561
 6084TIP3    H139667   5.658   4.432  15.696  0.2243 -1.0754 -1.0306
 6084TIP3    H239668   5.522   4.436  15.631  1.3120 -0.7721 -3.4023
 6085TIP3   OH239669   0.769   1.138  13.385 -0.0233 -0.0647  0.1860
 6085TIP3    H139670   0.814   1.061  13.420  0.7228  0.1817 -0.2098
 6085TIP3    H239671   0.806   1.212  13.434 -0.2622  0.1099  0.1072
 6086TIP3   OH239672   1.607   0.100  13.921 -0.2699  0.1527  0.4453
 6086TIP3    H139673   1.566   0.107  13.835  0.7965  0.0666 -0.0775
 6086TIP3    H239674   1.536   0.068  13.978 -0.7278 -0.7933 -0.6098
 6087TIP3   OH239675   1.263   1.402  14.835 -0.4176  0.4000  0.2434
 6087TIP3    H139676   1.312   1.481  14.858 -0.5519  0.3559  0.6964
 6087TIP3    H239677   1.219   1.425  14.753 -0.2537  0.7076  0.2391
 6088TIP3   OH239678   0.663   1.366  12.378  0.4247 -0.2798 -0.0279
 6088TIP3    H139679   0.578   1.404  12.359  1.0998  1.9969  1.1544
 6088TIP3    H239680   0.654   1.273  12.355 -2.3550 -0.1228  0.1439
 6089TIP3   OH239681   6.492   1.568  15.858  0.0878 -0.3965  0.1029
 6089TIP3    H139682   6.476   1.613  15.775  0.3077 -0.0586  0.2429
 6089TIP3    H239683   6.412   1.517  15.873  0.8628 -2.0896 -1.3384
 6090TIP3   OH239684   1.733   3.747   4.678  0.1132 -0.2500 -0.2874
 6090TIP3    H139685   1.655   3.753   4.623 -0.5202 -0.3119  0.5792
 6090TIP3    H239686   1.719   3.813   4.746  0.6568 -0.5080  0.0802
 6091TIP3   OH239687   3.857   3.986   4.293  0.3825 -0.0573 -0.1122
 6091TIP3    H139688   3.823   3.967   4.206 -1.6807 -0.8311  0.7796
 6091TIP3    H239689   3.872   3.899   4.332  1.6060  0.2791  0.2039
 6092TIP3   OH239690   5.347   2.491   2.444  0.5298  0.3709  0.5763
 6092TIP3    H139691   5.306   2.443   2.516  0.1846  1.5799  1.2068
 6092TIP3    H239692   5.305   2.577   2.444 -0.1772  0.0995 -1.7029
 6093TIP3   OH239693   2.921   6.428   1.189 -0.0315 -0.1128  0.2483
 6093TIP3    H139694   2.889   6.370   1.120 -2.4097 -0.1643  1.3044
 6093TIP3    H239695   2.894   6.516   1.161  0.0114  0.0032  0.5628
 6094TIP3   OH239696   2.124   2.388   2.911 -0.0909 -0.1306  0.3149
 6094TIP3    H139697   2.197   2.328   2.900  0.6827  0.6991  0.8370
 6094TIP3    H239698   2.140   2.458   2.849  0.6761  1.1007  1.8508
 6095TIP3   OH239699   5.303   0.151  12.504 -0.3752 -0.1402  0.3795
 6095TIP3    H139700   5.208   0.142  12.503 -0.4895  0.8156  0.8504
 6095TIP3    H239701   5.321   0.205  12.581  0.7578 -2.2204  1.6534
 6096TIP3   OH239702   0.453   2.387   1.734 -0.4664 -0.2450  0.0690
 6096TIP3    H139703   0.461   2.354   1.823  0.1962 -0.3846 -0.0307
 6096TIP3    H239704   0.421   2.476   1.744  0.6940  0.1431  0.5229
 6097TIP3   OH239705   2.751   4.020  14.124 -0.1054  0.5481  0.3749
 6097TIP3    H139706   2.738   4.075  14.046  0.4452 -0.9753 -0.8380
 6097TIP3    H239707   2.735   4.079  14.197  1.7512  2.7264 -0.8264
 6098TIP3   OH239708   4.943   3.421   3.138  0.5182 -0.2463 -0.0099
 6098TIP3    H139709   4.870   3.476   3.109 -0.1641 -0.0044  2.0306
 6098TIP3    H239710   5.022   3.469   3.110 -0.0812  0.3467 -0.7277
 6099TIP3   OH239711   2.593   0.891   2.291  0.1795 -0.6424  0.1994
 6099TIP3    H139712   2.533   0.951   2.248  0.6159  0.2081  0.7603
 6099TIP3    H239713   2.680   0.923   2.267  0.4191 -0.7299  0.9432
 6100TIP3   OH239714   4.159   5.943   4.167 -0.1912  0.1881 -0.0119
 6100TIP3    H139715   4.142   5.886   4.242  0.4593  1.2078  0.9489
 6100TIP3    H239716   4.072   5.967   4.135 -0.6796  2.4658  2.5990
 6101TIP3   OH239717   4.099   1.374  15.496 -0.1668 -0.0313  0.0509
 6101TIP3    H139718   4.086   1.290  15.451  2.5019 -0.6908  0.3481
 6101TIP3    H239719   4.189   1.371  15.527 -0.1778  2.7339  0.6165
 6102TIP3   OH239720   1.666   1.862   3.486 -0.7324  0.0964 -0.1764
 6102TIP3    H139721   1.612   1.836   3.411 -1.5071 -0.4531  0.5492
 6102TIP3    H239722   1.728   1.790   3.496  0.6675  1.0642 -1.4636
 6103TIP3   OH239723   4.600   2.234   1.344  0.4810  0.0133 -0.1043
 6103TIP3    H139724   4.671   2.233   1.407 -0.7570  1.5116  1.4034
 6103TIP3    H239725   4.604   2.321   1.304 -0.6616  0.2369  0.2301
 6104TIP3   OH239726   2.784   2.853   0.937 -0.0240  0.0828  0.1258
 6104TIP3    H139727   2.709   2.814   0.981 -1.1455  0.6926 -1.1687
 6104TIP3    H239728   2.854   2.788   0.945 -0.6539 -0.4487  1.4455
 6105TIP3   OH239729   5.029   0.813   6.887 -0.7054  0.3335  0.2472
 6105TIP3    H139730   4.952   0.764   6.916  0.1647 -1.2741 -0.0670
 6105TIP3    H239731   5.065   0.761   6.815  1.1891  0.5622  0.9713
 6106TIP3   OH239732   4.568   6.260   0.004  0.1428  0.0125 -0.3587
 6106TIP3    H139733   4.629   6.215  -0.055 -0.2494 -0.1737 -0.6279
 6106TIP3    H239734   4.596   6.234   0.092  0.9503  0.5731 -0.4394
 6107TIP3   OH239735   5.371   5.278  16.510 -0.7784  0.6854  0.1966
 6107TIP3    H139736   5.346   5.242  16.595 -1.8715  0.5204 -0.1838
 6107TIP3    H239737   5.335   5.217  16.446  1.7473 -0.2920 -0.3988
 6108TIP3   OH239738   0.208   6.710   6.868 -0.5273  0.3437 -0.4280
 6108TIP3    H139739   0.211   6.614   6.864  0.7379  0.4087 -2.2661
 6108TIP3    H239740   0.194   6.738   6.778  1.8500  1.9141 -0.4051
 6109TIP3   OH239741   6.142   5.023   0.942 -0.2275  0.0874 -0.4147
 6109TIP3    H139742   6.166   4.975   0.863  0.6970 -1.1499  0.5693
 6109TIP3    H239743   6.141   5.115   0.915 -0.3497 -0.3362 -1.9503
 6110TIP3   OH239744   5.839   3.911  12.480 -0.1658  0.1873  0.3652
 6110TIP3    H139745   5.904   3.981  12.489  1.3523 -0.6231 -2.8400
 6110TIP3    H239746   5.864   3.847  12.547  1.5215  0.5310  0.1274
 6111TIP3   OH239747   4.516   2.920   2.302  0.2644 -0.0571  0.3236
 6111TIP3    H139748   4.464   2.979   2.249  0.9613  1.2116  0.9943
 6111TIP3    H239749   4.527   2.965   2.386  2.7243 -0.0539  0.0978
 6112TIP3   OH239750   0.820   5.985  17.511  0.5647 -0.1878 -0.6799
 6112TIP3    H139751   0.881   5.967  17.440 -0.5117 -0.5743 -1.5349
 6112TIP3    H239752   0.769   5.904  17.521 -0.5124  0.4548 -0.7059
 6113TIP3   OH239753   2.449   2.723   4.309  0.2619 -0.1241  0.3302
 6113TIP3    H139754   2.394   2.791   4.348 -1.9187 -2.1385  0.9527
 6113TIP3    H239755   2.402   2.697   4.230  0.8197 -1.2457  0.3547
 6114TIP3   OH239756   4.622   2.300   5.327 -0.1123  0.7330 -0.3999
 6114TIP3    H139757   4.638   2.382   5.373 -0.4751  0.7605 -0.3157
 6114TIP3    H239758   4.707   2.273   5.294  0.5066 -0.2021  1.7751
 6115TIP3   OH239759   2.358   5.203  15.590  0.2649  0.0950  0.8314
 6115TIP3    H139760   2.421   5.233  15.655 -0.6439  1.2738  1.2292
 6115TIP3    H239761   2.287   5.268  15.594 -0.3537 -0.4464 -0.5185
 6116TIP3   OH239762   2.249   0.934  17.203  0.0789 -0.0264  0.1707
 6116TIP3    H139763   2.162   0.897  17.213  0.5796 -1.4947 -0.6206
 6116TIP3    H239764   2.249   0.973  17.116 -0.2635  1.4099  0.7821
 6117TIP3   OH239765   1.623   4.409   0.084  0.4112 -0.1706  0.0683
 6117TIP3    H139766   1.682   4.348   0.041 -0.3714 -1.5931  0.9228
 6117TIP3    H239767   1.598   4.365   0.166  0.2335  1.5323  0.9805
 6118TIP3   OH239768   1.485   5.232  10.963 -0.2312 -0.3839 -0.6442
 6118TIP3    H139769   1.511   5.140  10.967  1.6679 -0.0053 -2.5718
 6118TIP3    H239770   1.503   5.266  11.050 -1.2649 -1.8704  0.1989
 6119TIP3   OH239771   4.779   5.779  12.133 -0.2442  0.2951  0.1702
 6119TIP3    H139772   4.770   5.872  12.155 -0.7021  0.9317 -2.3414
 6119TIP3    H239773   4.734   5.733  12.203  0.0483  1.9383  1.5164
 6120TIP3   OH239774   3.999   6.267  17.454  0.2637  0.3126  0.7485
 6120TIP3    H139775   4.080   6.301  17.415  0.3371 -2.7815 -2.4362
 6120TIP3    H239776   3.930   6.322  17.418  0.7447  0.7369  0.4604
 6121TIP3   OH239777   2.519   5.155  15.152 -0.6447  0.5227  0.2467
 6121TIP3    H139778   2.529   5.231  15.095 -0.9457 -0.7938 -1.6553
 6121TIP3    H239779   2.540   5.188  15.239  1.0748  2.3445 -0.7612
 6122TIP3   OH239780   0.678   4.015   2.781  0.3608  0.1014  0.1358
 6122TIP3    H139781   0.702   3.925   2.805 -0.2170  0.3943  2.0503
 6122TIP3    H239782   0.703   4.023   2.689  1.2387 -1.7290  0.1596
 6123TIP3   OH239783   0.385   1.817   5.055  0.3990 -0.3071  0.1711
 6123TIP3    H139784   0.400   1.763   5.133  0.4464 -0.4013  0.0963
 6123TIP3    H239785   0.469   1.861   5.041  0.9438 -1.6303 -0.8673
 6124TIP3   OH239786   5.700   6.440  13.084  0.5871 -0.0361 -0.2064
 6124TIP3    H139787   5.657   6.440  13.170  1.1792  0.5295  0.0911
 6124TIP3    H239788   5.640   6.391  13.028  0.2585 -0.5315  0.5618
 6125TIP3   OH239789   0.877   4.142   5.670 -0.0879 -0.3644 -0.2261
 6125TIP3    H139790   0.960   4.127   5.625 -0.2476 -2.9923  0.1974
 6125TIP3    H239791   0.902   4.190   5.749  0.5717  1.5760 -1.5279
 6126TIP3   OH239792   3.196   2.850   5.585  0.4472 -0.1830  0.7951
 6126TIP3    H139793   3.279   2.804   5.572  0.6083  0.3132 -0.0184
 6126TIP3    H239794   3.221   2.941   5.605  0.0963  0.1901 -0.3927
 6127TIP3   OH239795   1.780   3.825  15.522  0.2348  0.1922  0.1469
 6127TIP3    H139796   1.761   3.915  15.547 -0.7345  0.0616 -0.0918
 6127TIP3    H239797   1.766   3.822  15.428  2.7046  0.3825 -0.3065
 6128TIP3   OH239798   2.780   6.646  11.717 -0.6011  0.1375  0.9075
 6128TIP3    H139799   2.875   6.641  11.702 -0.8277 -1.1450 -0.3253
 6128TIP3    H239800   2.757   6.735  11.690 -0.1392 -0.4172 -1.6121
 6129TIP3   OH239801   2.533   2.911   4.977 -0.2103  0.3014 -0.1980
 6129TIP3    H139802   2.590   2.867   4.914  1.5232  1.0716  0.7619
 6129TIP3    H239803   2.538   3.003   4.955 -0.0696  0.5143  0.6603
 6130TIP3   OH239804   1.864   2.510   0.058  0.1851  0.5610  0.5570
 6130TIP3    H139805   1.832   2.524  -0.031 -0.4248  0.0619  0.6858
 6130TIP3    H239806   1.847   2.417   0.076  3.4416 -0.2668 -0.0188
 6131TIP3   OH239807   2.796   5.604  13.431  0.0546  0.4312 -0.0801
 6131TIP3    H139808   2.877   5.577  13.475 -1.6882 -1.3897  2.2614
 6131TIP3    H239809   2.779   5.534  13.368 -0.3258  0.1583  0.3209
 6132TIP3   OH239810   1.417   2.771   0.044 -0.2967  0.1687  0.3533
 6132TIP3    H139811   1.490   2.831   0.033  0.5735 -0.8356  0.4405
 6132TIP3    H239812   1.350   2.822   0.089 -0.2370  1.5451 -1.0284
 6133TIP3   OH239813   4.921   0.454   1.685  0.0295  0.2380  0.0364
 6133TIP3    H139814   4.885   0.433   1.599  0.7566  1.2184 -0.5348
 6133TIP3    H239815   4.981   0.382   1.704  0.2496  0.2695 -0.5200
 6134TIP3   OH239816   3.873   4.232  12.556 -0.2708  0.7153 -0.4014
 6134TIP3    H139817   3.968   4.224  12.547 -0.3984 -0.0630 -1.2363
 6134TIP3    H239818   3.855   4.204  12.645  0.2004  0.0020 -0.5227
 6135TIP3   OH239819   2.122   2.232   3.227 -0.2299 -0.0710  0.1645
 6135TIP3    H139820   2.092   2.259   3.313 -0.4067  0.1978  0.0186
 6135TIP3    H239821   2.170   2.308   3.193  1.7163 -0.9073  0.9084
 6136TIP3   OH239822   5.032   1.765  17.032 -0.1806 -0.1222  0.2570
 6136TIP3    H139823   5.126   1.752  17.042 -0.2487 -0.2207  0.8329
 6136TIP3    H239824   5.006   1.705  16.962  0.2936  0.4170 -0.3995
 6137TIP3   OH239825   3.689   0.568  16.238 -0.5235 -0.4268  0.1320
 6137TIP3    H139826   3.624   0.525  16.183  0.3883 -1.7304  0.0161
 6137TIP3    H239827   3.743   0.496  16.271  2.4171  0.7396 -1.7688
 6138TIP3   OH239828   6.477   6.229   0.580 -0.2898 -0.0060 -0.0014
 6138TIP3    H139829   6.534   6.228   0.504 -1.1826 -0.5598 -0.6803
 6138TIP3    H239830   6.520   6.171   0.643 -0.5552 -1.1955 -0.8763
 6139TIP3   OH239831   0.072   3.065   2.893 -0.0048 -0.3037 -0.0680
 6139TIP3    H139832   0.115   3.149   2.905  0.2958 -0.5589  0.6565
 6139TIP3    H239833   0.137   3.010   2.848  0.6202 -0.8275  1.4160
 6140TIP3   OH239834   2.586   1.568   4.594  0.1869  0.3714  0.2878
 6140TIP3    H139835   2.680   1.564   4.579  0.4538  1.4347  1.5042
 6140TIP3    H239836   2.573   1.648   4.645 -1.4337  0.5095 -0.2642
 6141TIP3   OH239837   0.298   5.342   0.708  0.2517 -0.1150 -0.7270
 6141TIP3    H139838   0.247   5.264   0.731  1.1148 -0.2080  1.0996
 6141TIP3    H239839   0.356   5.313   0.638 -0.6817 -0.5946 -1.3258
 6142TIP3   OH239840   4.799   5.086  15.546 -1.0013  0.4412 -0.3632
 6142TIP3    H139841   4.780   5.131  15.463 -0.9847  0.0618 -0.5802
 6142TIP3    H239842   4.867   5.138  15.587 -2.9950  2.2680  0.7936
 6143TIP3   OH239843   3.061   1.156   1.398 -0.1907 -0.0614  0.2777
 6143TIP3    H139844   3.100   1.243   1.400 -0.6589  0.1611  2.6871
 6143TIP3    H239845   2.986   1.164   1.339 -0.0151  1.0861  0.1957
 6144TIP3   OH239846   5.146   4.459  12.539  0.0104 -0.1591  0.4112
 6144TIP3    H139847   5.207   4.519  12.496  0.9817 -0.6090  1.1314
 6144TIP3    H239848   5.061   4.480  12.500  0.4172  1.2819  0.2291
 6145TIP3   OH239849   6.423   3.365  13.305  0.0571 -0.4529  0.0705
 6145TIP3    H139850   6.484   3.301  13.343  2.4747  1.2550 -0.6881
 6145TIP3    H239851   6.358   3.378  13.374  1.5640 -1.0379  1.6999
 6146TIP3   OH239852   3.524   2.516  14.703 -0.3765  1.1910  0.4026
 6146TIP3    H139853   3.571   2.569  14.639  1.0898 -0.2773  0.1983
 6146TIP3    H239854   3.434   2.514  14.671  0.1515  1.2092 -1.1331
 6147TIP3   OH239855   6.127   6.662   6.208  0.0929 -0.1529 -0.3237
 6147TIP3    H139856   6.164   6.604   6.275 -1.7794  0.0989  1.0106
 6147TIP3    H239857   6.062   6.608   6.164  1.6215 -0.4580 -2.3389
 6148TIP3   OH239858   4.314   5.370  16.719 -0.0748 -0.1515 -0.0341
 6148TIP3    H139859   4.254   5.423  16.668  0.5685  0.4193 -0.2067
 6148TIP3    H239860   4.313   5.284  16.676 -0.7874 -0.1535 -0.0115
 6149TIP3   OH239861   1.107   4.389   4.195 -1.0379  0.1050  0.1195
 6149TIP3    H139862   1.110   4.295   4.176  0.8664  0.0552  0.4288
 6149TIP3    H239863   1.091   4.394   4.289 -0.4004  0.0436  0.2393
 6150TIP3   OH239864   0.457   3.879   6.455 -0.3446  0.0815 -0.8142
 6150TIP3    H139865   0.368   3.914   6.454 -1.2871 -1.8641  2.2343
 6150TIP3    H239866   0.513   3.953   6.431 -2.4922  2.4714  1.1062
 6151TIP3   OH239867   4.866   1.455  16.858 -0.0345  0.0214  0.2925
 6151TIP3    H139868   4.957   1.469  16.832 -0.4803 -0.4160 -1.7192
 6151TIP3    H239869   4.816   1.474  16.779 -1.4631 -2.6087  0.4498
 6152TIP3   OH239870   2.998   6.350   1.420  0.8349 -0.2443  0.0835
 6152TIP3    H139871   3.000   6.371   1.327  0.4774  1.5249  0.4401
 6152TIP3    H239872   3.004   6.255   1.423  0.1992 -0.3832 -1.7703
 6153TIP3   OH239873   2.728   0.730   3.461 -0.4115  0.2063  0.1408
 6153TIP3    H139874   2.708   0.654   3.408  0.3414  0.5384 -0.6490
 6153TIP3    H239875   2.822   0.744   3.448 -0.2066  0.3090  1.5481
 6154TIP3   OH239876   5.405   5.856   3.447  0.4678  0.3363  0.2155
 6154TIP3    H139877   5.467   5.818   3.509 -1.3474 -0.1236  1.8414
 6154TIP3    H239878   5.372   5.782   3.398  0.2905  0.4219  0.2054
 6155TIP3   OH239879   5.714   6.448  15.639 -0.0954 -0.0525 -0.0209
 6155TIP3    H139880   5.681   6.534  15.614 -1.3191 -1.2388 -3.0176
 6155TIP3    H239881   5.635   6.398  15.662  0.3216 -0.9901 -0.5663
 6156TIP3   OH239882   6.535   3.279  14.757 -0.3039  0.3814 -1.1381
 6156TIP3    H139883   6.545   3.191  14.794  1.6975  0.6683 -0.8561
 6156TIP3    H239884   6.452   3.276  14.710 -0.7386 -1.3688 -0.3627
 6157TIP3   OH239885   4.808   0.262  16.926 -0.5359 -0.2997  0.0914
 6157TIP3    H139886   4.852   0.247  17.009 -0.1601 -0.5415 -0.1487
 6157TIP3    H239887   4.723   0.300  16.950 -1.0605 -1.7438  0.6787
 6158TIP3   OH239888   3.012   5.534  17.498  0.2002 -0.1892  0.3497
 6158TIP3    H139889   3.024   5.585  17.417  0.7658 -0.5674  0.1863
 6158TIP3    H239890   2.942   5.579  17.544  1.1620  1.1818  0.5405
 6159TIP3   OH239891   1.342   2.055  15.872 -0.0552 -0.2990  0.0857
 6159TIP3    H139892   1.437   2.067  15.864 -0.2441 -0.1013 -3.8365
 6159TIP3    H239893   1.331   1.960  15.879  0.4369 -0.5058 -1.4964
 6160TIP3   OH239894   5.821   1.891  13.052  0.3109 -0.3173 -0.0303
 6160TIP3    H139895   5.847   1.802  13.078  3.6995  0.2399 -1.0920
 6160TIP3    H239896   5.902   1.941  13.053 -1.0974  2.2060 -1.7498
 6161TIP3   OH239897   2.362   3.304   5.974  0.2340  0.0965 -0.4959
 6161TIP3    H139898   2.454   3.326   5.985  0.2377  0.4820 -1.2039
 6161TIP3    H239899   2.322   3.324   6.059  0.3946  2.1355 -0.8302
 6162TIP3   OH239900   5.733   4.093  12.952 -0.1513 -0.5657  0.0774
 6162TIP3    H139901   5.760   4.149  12.879 -0.6389  0.1154  0.4151
 6162TIP3    H239902   5.694   4.016  12.909 -2.2899  0.7234 -0.4174
 6163TIP3   OH239903   1.427   3.270   4.062  0.8203  0.2785  0.4803
 6163TIP3    H139904   1.411   3.270   3.967 -0.5715 -0.9299  0.6728
 6163TIP3    H239905   1.412   3.360   4.089  3.1242  1.0923 -0.6980
 6164TIP3   OH239906   5.811   0.137   2.068 -0.8192  0.3655 -0.2734
 6164TIP3    H139907   5.902   0.164   2.074 -0.5823 -0.6197  0.8331
 6164TIP3    H239908   5.761   0.218   2.078 -0.0821  0.8649 -0.5392
 6165TIP3   OH239909   0.837   0.391   3.177  0.0552  0.2274  0.0563
 6165TIP3    H139910   0.830   0.324   3.245  2.2335  0.2765  0.4306
 6165TIP3    H239911   0.807   0.471   3.220 -0.2850 -0.0767  0.3916
 6166TIP3   OH239912   2.369   3.083   0.413  0.2675 -0.2636 -0.1596
 6166TIP3    H139913   2.413   3.137   0.347 -0.4414  0.1514 -0.3122
 6166TIP3    H239914   2.398   2.994   0.395  0.1683 -0.1410 -0.9758
 6167TIP3   OH239915   6.300   3.429   2.046  0.0697  0.4858  0.3450
 6167TIP3    H139916   6.222   3.429   1.990  0.1203  0.8005  0.2725
 6167TIP3    H239917   6.307   3.339   2.077 -0.8264  0.6441  1.0513
 6168TIP3   OH239918   1.878   5.862   2.414  0.3202  0.0706  0.2301
 6168TIP3    H139919   1.928   5.921   2.357 -0.3243  1.3308  0.9091
 6168TIP3    H239920   1.931   5.855   2.493 -0.5209  1.4637  0.9790
 6169TIP3   OH239921   0.888   5.027   1.414 -0.5165  0.0234  0.2261
 6169TIP3    H139922   0.866   4.990   1.500  0.6980 -0.4768  0.3423
 6169TIP3    H239923   0.882   5.121   1.426 -0.0542 -0.0283  0.9600
 6170TIP3   OH239924   6.411   2.372  14.164  0.4849 -0.0646  0.3953
 6170TIP3    H139925   6.337   2.339  14.215  0.4601  0.6883  0.8536
 6170TIP3    H239926   6.481   2.309  14.180 -0.3916 -1.4821 -1.0164
 6171TIP3   OH239927   5.956   5.308   2.914 -0.0002 -0.1530 -0.0782
 6171TIP3    H139928   5.872   5.308   2.869 -0.5677  0.6091  0.9479
 6171TIP3    H239929   6.018   5.340   2.849 -0.9049  1.5830 -0.1464
 6172TIP3   OH239930   4.908   4.406   4.872 -0.1515 -0.0558 -0.2224
 6172TIP3    H139931   4.865   4.484   4.837  0.6093 -0.1911 -1.5173
 6172TIP3    H239932   4.970   4.380   4.804  1.9095  0.0733  1.5055
 6173TIP3   OH239933   0.119   4.307   1.844 -0.2008  0.2102  0.0326
 6173TIP3    H139934   0.070   4.389   1.840 -0.1319  0.2113 -2.7086
 6173TIP3    H239935   0.184   4.315   1.774  1.2519 -1.3240  1.1365
 6174TIP3   OH239936   4.497   1.629   1.701 -0.5155 -0.1805  0.5900
 6174TIP3    H139937   4.530   1.546   1.667  1.5838  0.6298  0.5114
 6174TIP3    H239938   4.572   1.688   1.698 -1.6861  1.4517  1.5949
 6175TIP3   OH239939   4.564   1.118   2.136 -0.3991 -0.0721 -0.8474
 6175TIP3    H139940   4.538   1.036   2.179  1.7150 -0.7998 -0.8328
 6175TIP3    H239941   4.642   1.094   2.085 -0.8316  1.5402 -2.3593
 6176TIP3   OH239942   5.881   0.129   2.421  0.4181  0.0153 -0.0647
 6176TIP3    H139943   5.792   0.104   2.445  0.7742  0.1494  1.4843
 6176TIP3    H239944   5.880   0.225   2.423  0.7097  0.0106  0.4286
 6177TIP3   OH239945   6.357   6.584   6.049 -0.2686  0.3810 -0.0623
 6177TIP3    H139946   6.374   6.678   6.046  1.2895  0.1265 -0.4855
 6177TIP3    H239947   6.411   6.552   6.122 -2.0555  0.0211  1.1595
 6178TIP3   OH239948   0.131   2.950   2.512 -0.6416  0.2126 -0.6900
 6178TIP3    H139949   0.041   2.978   2.530 -0.8018  0.9935 -2.5179
 6178TIP3    H239950   0.176   3.030   2.484  0.8629 -0.0030  0.9200
 6179TIP3   OH239951   5.950   6.216  12.518  0.1738  0.0695  0.4371
 6179TIP3    H139952   6.029   6.264  12.494  1.0301 -0.7895  1.4331
 6179TIP3    H239953   5.931   6.246  12.607  0.3255 -0.9120  0.8079
 6180TIP3   OH239954   5.819   5.526  12.490 -0.8433  0.5360 -0.3364
 6180TIP3    H139955   5.792   5.445  12.533 -0.9266  1.0286  0.5571
 6180TIP3    H239956   5.737   5.564  12.459 -0.7978  0.2593 -0.8137
 6181TIP3   OH239957   0.228   6.659  12.665 -0.2378 -0.3041  0.0996
 6181TIP3    H139958   0.309   6.617  12.633  0.0000  1.6719 -2.1812
 6181TIP3    H239959   0.249   6.752  12.668 -2.0834  0.1263  0.6746
 6182TIP3   OH239960   1.870   1.149  14.585 -0.2586 -0.1559 -0.3116
 6182TIP3    H139961   1.883   1.211  14.513  1.9419  0.1618  0.2807
 6182TIP3    H239962   1.901   1.065  14.551  1.7505  0.1991  0.5172
 6183TIP3   OH239963   3.509   5.505   3.369 -0.1652 -0.0883 -0.3447
 6183TIP3    H139964   3.566   5.582   3.374 -2.2144  1.4386  1.0873
 6183TIP3    H239965   3.444   5.528   3.302  0.8040 -1.7915 -1.9490
 6184TIP3   OH239966   1.172   1.142  16.682 -0.3678  0.1540  0.1389
 6184TIP3    H139967   1.162   1.233  16.655 -0.0767  0.5840  1.3872
 6184TIP3    H239968   1.150   1.091  16.604 -0.3662  1.2875 -0.6330
 6185TIP3   OH239969   5.830   3.827   2.370  0.8288  0.5107  0.0113
 6185TIP3    H139970   5.905   3.881   2.395  2.2990 -1.1953 -0.4379
 6185TIP3    H239971   5.807   3.857   2.282 -0.0347  2.0669  0.7466
 6186TIP3   OH239972   4.202   1.776   3.469 -0.3678 -0.1649  0.5601
 6186TIP3    H139973   4.230   1.862   3.437 -0.0064 -0.2538  0.6297
 6186TIP3    H239974   4.173   1.792   3.559  2.2389 -0.5341  1.5708
 6187TIP3   OH239975   6.081   0.293  11.561  0.0408 -0.2415  0.0190
 6187TIP3    H139976   6.176   0.300  11.558  0.0870 -0.3002  0.9952
 6187TIP3    H239977   6.054   0.287  11.470  1.0178 -0.8120 -0.2416
 6188TIP3   OH239978   4.431   1.024  12.243 -0.1754  0.1354  0.6504
 6188TIP3    H139979   4.505   0.995  12.296 -0.0780  1.6297  1.4033
 6188TIP3    H239980   4.354   1.003  12.296 -0.2984 -1.1988 -0.0266
 6189TIP3   OH239981   4.789   0.088   2.000 -0.1302  0.3715 -0.4631
 6189TIP3    H139982   4.805  -0.004   2.018 -0.4130  0.4646  0.2987
 6189TIP3    H239983   4.837   0.106   1.919  0.3229 -0.3234 -0.3504
 6190TIP3   OH239984   0.373   0.920   2.345 -0.4176 -0.4391 -0.3353
 6190TIP3    H139985   0.411   0.924   2.257 -2.7009 -0.8787 -1.4052
 6190TIP3    H239986   0.310   0.991   2.348 -0.8301 -0.8188  0.7322
 6191TIP3   OH239987   0.059   5.778   6.112 -0.0380  0.5138  0.0815
 6191TIP3    H139988   0.093   5.830   6.184  0.5986  0.3289 -0.0856
 6191TIP3    H239989   0.108   5.696   6.117  0.6358  0.8260 -1.0936
 6192TIP3   OH239990   0.016   4.794  12.534  0.0282 -0.1057  0.5385
 6192TIP3    H139991   0.057   4.847  12.602 -0.7340  0.0834  0.8609
 6192TIP3    H239992   0.000   4.855  12.462  1.6531 -0.4899 -0.1947
 6193TIP3   OH239993   5.449   4.085  17.300 -0.2487 -0.4364  0.2634
 6193TIP3    H139994   5.491   4.049  17.221  1.0038  0.6522  0.4100
 6193TIP3    H239995   5.521   4.121  17.351 -1.1745 -0.2058  1.4327
 6194TIP3   OH239996   3.641   0.129   4.262  0.2198 -0.0992  0.3170
 6194TIP3    H139997   3.671   0.120   4.352 -0.7611  0.1132  0.6853
 6194TIP3    H239998   3.590   0.049   4.246 -0.7727  0.4835  0.4437
 6195TIP3   OH239999   4.677   4.410   2.420 -0.3289 -0.1439  0.6175
 6195TIP3    H140000   4.620   4.404   2.497 -0.7430  1.2150  0.4588
 6195TIP3    H240001   4.648   4.490   2.376  0.9587 -0.0454 -0.0960
 6196TIP3   OH240002   3.530   4.462   6.142  0.4390  0.7280  0.4804
 6196TIP3    H140003   3.591   4.451   6.069 -0.2928 -0.1220 -0.0047
 6196TIP3    H240004   3.534   4.556   6.162  0.3989  1.0321 -0.8660
 6197TIP3   OH240005   1.662   5.898   2.188  0.2679 -0.9559  0.1672
 6197TIP3    H140006   1.602   5.966   2.220 -0.3108 -0.9190 -0.9542
 6197TIP3    H240007   1.749   5.939   2.194 -0.1657  0.3572 -1.5544
 6198TIP3   OH240008   0.344   0.227   4.637 -1.1242 -0.1973  0.6008
 6198TIP3    H140009   0.386   0.278   4.706 -0.8928 -1.0962  1.1428
 6198TIP3    H240010   0.316   0.146   4.680 -0.2029 -1.1578 -0.5203
 6199TIP3   OH240011   0.503   3.585  15.355  0.1682 -0.2067  0.0344
 6199TIP3    H140012   0.433   3.650  15.349  1.0722  0.6270 -1.9462
 6199TIP3    H240013   0.457   3.501  15.349 -0.6835  0.3254 -1.3258
 6200TIP3   OH240014   3.243   2.923   0.314  0.0240 -0.8321 -0.2255
 6200TIP3    H140015   3.266   2.962   0.399  1.1609 -0.9892 -0.4392
 6200TIP3    H240016   3.177   2.981   0.278  0.1283 -0.3027  0.4155
 6201TIP3   OH240017   3.712   6.074  12.819 -0.5386 -0.3308  0.7193
 6201TIP3    H140018   3.648   6.135  12.855 -3.7890 -1.1384 -2.9812
 6201TIP3    H240019   3.773   6.130  12.771  1.8144  0.4434  4.2543
 6202TIP3   OH240020   5.279   6.701   4.906 -0.3220 -0.2658  0.2471
 6202TIP3    H140021   5.303   6.683   4.815 -1.6563  1.5159 -0.4965
 6202TIP3    H240022   5.363   6.696   4.953  0.1027 -3.5732 -0.5745
 6203TIP3   OH240023   3.474   3.243   0.315  0.0192  0.1363  0.0553
 6203TIP3    H140024   3.511   3.183   0.381  2.0571 -0.2041 -1.2964
 6203TIP3    H240025   3.504   3.208   0.231 -0.5136  1.8808 -0.9217
 6204TIP3   OH240026   5.586   5.233  14.528  0.3623  0.1770 -0.2591
 6204TIP3    H140027   5.646   5.179  14.580 -0.0156 -0.1243 -0.1211
 6204TIP3    H240028   5.596   5.321  14.563  0.2669  0.0143  0.1845
 6205TIP3   OH240029   4.287   4.230   2.608 -0.0346  0.4792  0.1276
 6205TIP3    H140030   4.221   4.219   2.677 -0.4796  0.7504 -0.2478
 6205TIP3    H240031   4.350   4.291   2.645 -1.1320  1.9142 -0.2925
 6206TIP3   OH240032   1.306   5.512  15.356  0.5342 -0.2527 -0.0449
 6206TIP3    H140033   1.392   5.513  15.398  0.9746 -0.1533 -0.9109
 6206TIP3    H240034   1.266   5.430  15.384  1.1335 -0.5534 -0.0481
 6207TIP3   OH240035   3.799   2.545  17.076  0.8084 -0.0630  0.1864
 6207TIP3    H140036   3.785   2.639  17.067 -0.7052 -0.2540  0.3763
 6207TIP3    H240037   3.879   2.538  17.127  0.9491  1.1193  0.1575
 6208TIP3   OH240038   3.745   2.583  11.406 -0.0371  0.1974  0.6402
 6208TIP3    H140039   3.702   2.586  11.491 -1.3100  4.8026  0.1141
 6208TIP3    H240040   3.674   2.574  11.343  0.7627 -1.6238 -0.0648
 6209TIP3   OH240041   5.565   2.042   1.370  0.2468 -0.3171  0.1257
 6209TIP3    H140042   5.597   1.978   1.307 -1.0423 -1.0454  0.1739
 6209TIP3    H240043   5.634   2.107   1.376  0.5550 -0.4423 -1.7292
 6210TIP3   OH240044   0.951   3.762  14.992  0.0350  0.3815  0.0131
 6210TIP3    H140045   0.888   3.799  15.054  0.2349  0.2247  0.3110
 6210TIP3    H240046   1.028   3.742  15.045 -0.2802 -1.0384 -0.0262
 6211TIP3   OH240047   2.371   3.138   1.424 -0.2874  0.0333 -0.0660
 6211TIP3    H140048   2.464   3.155   1.438 -0.1468  0.5471 -1.4975
 6211TIP3    H240049   2.368   3.052   1.382 -0.5927 -0.6926  1.3508
 6212TIP3   OH240050   3.944   4.358  16.649  0.3266 -0.3797  0.6560
 6212TIP3    H140051   3.851   4.339  16.664 -0.5516  1.4800 -1.5932
 6212TIP3    H240052   3.962   4.433  16.706 -0.3122  0.7455 -0.5380
 6213TIP3   OH240053   2.861   3.600   2.873  0.0257  0.0632  0.3451
 6213TIP3    H140054   2.864   3.657   2.796  0.8365  0.4372  0.6447
 6213TIP3    H240055   2.950   3.601   2.907 -0.1842 -0.5983  0.9325
 6214TIP3   OH240056   0.646   4.322   1.346  0.0030  0.0090 -0.3865
 6214TIP3    H140057   0.714   4.303   1.410  0.1296  1.0202 -0.2127
 6214TIP3    H240058   0.688   4.379   1.282 -0.9333  1.5515  0.3071
 6215TIP3   OH240059   4.366   5.590  10.814  0.1242  0.0791  0.3289
 6215TIP3    H140060   4.411   5.640  10.882 -0.8010  0.1627  0.8994
 6215TIP3    H240061   4.387   5.499  10.833  0.1623  0.1247  0.5081
 6216TIP3   OH240062   0.831   2.349  12.744  0.5933 -0.1722  0.3490
 6216TIP3    H140063   0.818   2.440  12.717 -2.4349  0.5025  3.4156
 6216TIP3    H240064   0.847   2.302  12.663  2.6024  3.0409 -1.3505
 6217TIP3   OH240065   6.342   4.193  10.802 -0.3940 -0.6843  0.1166
 6217TIP3    H140066   6.333   4.237  10.717 -1.6480 -1.1071  0.0052
 6217TIP3    H240067   6.428   4.151  10.798  0.7059  1.4456  0.1125
 6218TIP3   OH240068   0.489   3.308  16.849  0.2966 -0.1962  0.1505
 6218TIP3    H140069   0.526   3.243  16.909 -0.5581 -1.7892 -0.9773
 6218TIP3    H240070   0.456   3.257  16.775  0.8578  1.6440 -1.4724
 6219TIP3   OH240071   0.630   5.894  11.653  0.3744 -0.0125 -0.2630
 6219TIP3    H140072   0.627   5.965  11.588 -0.9182  1.0016  0.8425
 6219TIP3    H240073   0.710   5.910  11.702  1.1761 -0.5764 -1.3318
 6220TIP3   OH240074   5.366   0.519  11.692 -0.0210 -0.0194 -0.4034
 6220TIP3    H140075   5.441   0.553  11.644 -0.9259  1.0207 -1.1464
 6220TIP3    H240076   5.345   0.435  11.649 -0.8844  0.9444 -1.9732
 6221TIP3   OH240077   0.791   4.447   4.532 -0.3486  0.2865 -0.4471
 6221TIP3    H140078   0.788   4.378   4.599  0.0286  0.7653  0.0725
 6221TIP3    H240079   0.710   4.436   4.483  0.6303 -1.8492 -1.7139
 6222TIP3   OH240080   5.586   0.852  15.730 -0.7345  0.4039 -0.1272
 6222TIP3    H140081   5.681   0.856  15.729 -0.7435  0.5580 -0.4563
 6222TIP3    H240082   5.565   0.779  15.789 -0.4407  1.4323  1.3117
 6223TIP3   OH240083   2.969   2.407  17.569  0.5915 -0.0350 -0.5618
 6223TIP3    H140084   3.012   2.327  17.538  0.1524  0.1031 -1.5525
 6223TIP3    H240085   2.875   2.389  17.560  0.4828  0.9647 -1.8391
 6224TIP3   OH240086   1.119   4.286   0.456 -0.2886  0.2908 -0.2273
 6224TIP3    H140087   1.189   4.231   0.491  0.7680  0.6647 -1.6738
 6224TIP3    H240088   1.063   4.304   0.531  0.8389 -0.5028  0.8442
 6225TIP3   OH240089   3.106   2.487  12.074 -0.2885 -0.2294  0.1131
 6225TIP3    H140090   3.075   2.412  12.123 -0.4066 -0.1804  0.1135
 6225TIP3    H240091   3.123   2.554  12.140 -0.1037 -0.2817  0.1204
 6226TIP3   OH240092   1.006   4.229   3.409 -0.1588  0.1865  0.7673
 6226TIP3    H140093   0.981   4.271   3.491  1.0894 -2.4757  2.6500
 6226TIP3    H240094   0.962   4.144   3.410  2.1453 -1.1072  0.1664
 6227TIP3   OH240095   3.896   1.640   5.155  0.7513 -0.1840 -0.3076
 6227TIP3    H140096   3.975   1.605   5.196  0.3424 -0.2526  0.4486
 6227TIP3    H240097   3.824   1.600   5.205  0.2037 -1.1782 -1.8282
 6228TIP3   OH240098   4.106   2.320  13.976 -0.4231 -0.1169 -0.4780
 6228TIP3    H140099   4.123   2.336  13.883 -3.6875  0.8825 -1.0666
 6228TIP3    H240100   4.090   2.226  13.982  0.9557 -0.3752 -0.6695
 6229TIP3   OH240101   3.406   6.043   5.180  0.0791  0.2278 -0.4816
 6229TIP3    H140102   3.318   6.044   5.217  0.4889  2.4726  0.6075
 6229TIP3    H240103   3.396   6.080   5.092 -0.3198 -1.3965 -1.1456
 6230TIP3   OH240104   0.156   6.144   4.287 -0.3555  0.1052 -0.4510
 6230TIP3    H140105   0.091   6.212   4.268 -1.0530 -0.4479 -0.0907
 6230TIP3    H240106   0.112   6.086   4.349  0.6675 -0.0054  0.1932
 6231TIP3   OH240107   5.547   5.447  15.545  0.2251  0.0869  0.1954
 6231TIP3    H140108   5.519   5.426  15.456 -0.0512  0.7094  0.1288
 6231TIP3    H240109   5.465   5.454  15.595  0.4281 -1.5012  0.7939
 6232TIP3   OH240110   4.108   3.619   4.276 -0.0396 -0.1420  0.0567
 6232TIP3    H140111   4.172   3.602   4.345  0.5023 -1.4762 -0.7369
 6232TIP3    H240112   4.157   3.606   4.195 -0.3769  2.4025 -0.6512
 6233TIP3   OH240113   1.310   0.455   3.949  0.8541 -0.4575 -0.7643
 6233TIP3    H140114   1.366   0.531   3.930  2.6015 -1.6425 -0.5694
 6233TIP3    H240115   1.225   0.478   3.910  1.0113  2.0035  0.1352
 6234TIP3   OH240116   4.309   1.108   2.925 -0.3068  0.0782  0.3554
 6234TIP3    H140117   4.363   1.146   2.856  1.0992  0.8137  1.7989
 6234TIP3    H240118   4.317   1.169   2.999 -2.1108 -0.4568  1.0484
 6235TIP3   OH240119   6.613   2.535   0.305  0.6802 -0.3854 -0.4533
 6235TIP3    H140120   6.647   2.506   0.390  2.2819  1.4238 -0.4077
 6235TIP3    H240121   6.686   2.526   0.245 -0.1875 -0.8243 -1.4759
 6236TIP3   OH240122   3.498   3.234  13.311 -0.5521 -0.2851  0.1317
 6236TIP3    H140123   3.479   3.287  13.234  0.8692 -0.1433 -0.1507
 6236TIP3    H240124   3.571   3.178  13.284  0.2759  0.0799  1.4933
 6237TIP3   OH240125   2.289   6.036   0.964  0.0318 -0.7081 -0.2730
 6237TIP3    H140126   2.284   6.106   1.029  0.4455  0.1354 -1.1321
 6237TIP3    H240127   2.268   6.078   0.881  0.2498 -1.6115 -0.8000
 6238TIP3   OH240128   4.651   0.593  14.732  0.1350 -0.0326 -0.1697
 6238TIP3    H140129   4.641   0.681  14.697  0.9405  0.2854  0.3711
 6238TIP3    H240130   4.701   0.604  14.813 -3.6375 -0.4773  2.4423
 6239TIP3   OH240131   1.981   5.170   6.033 -0.7236  0.0026  0.4367
 6239TIP3    H140132   1.914   5.239   6.036 -0.0574  0.6203  1.3884
 6239TIP3    H240133   1.941   5.101   5.979 -1.4591  1.0623 -0.4326
 6240TIP3   OH240134   3.434   6.206   1.277 -0.3757  0.1405 -0.1962
 6240TIP3    H140135   3.488   6.129   1.295 -0.7336 -0.3066 -0.9986
 6240TIP3    H240136   3.414   6.242   1.363  1.1689  0.3024  0.1299
 6241TIP3   OH240137   3.424   2.870   4.720 -0.1773 -0.2766 -0.3326
 6241TIP3    H140138   3.405   2.802   4.656 -1.3884 -0.2909  0.0086
 6241TIP3    H240139   3.493   2.923   4.680 -0.4195 -0.7040 -1.3388
 6242TIP3   OH240140   5.449   1.764  12.032 -0.0245 -0.1385 -0.0644
 6242TIP3    H140141   5.383   1.789  11.967  0.5890 -1.1750 -1.1244
 6242TIP3    H240142   5.531   1.799  11.997  0.2024 -0.0777  0.5288
 6243TIP3   OH240143   6.008   1.338  16.535  0.1342  0.2096 -0.6124
 6243TIP3    H140144   5.987   1.429  16.515  0.0006  0.5771  1.0622
 6243TIP3    H240145   5.924   1.298  16.560  0.2697 -0.2566 -0.8745
 6244TIP3   OH240146   4.240   5.394  16.983  0.0738 -0.0768 -0.3781
 6244TIP3    H140147   4.264   5.395  16.890  1.0030 -1.8191 -0.1950
 6244TIP3    H240148   4.146   5.375  16.983  0.2734 -1.1577 -0.9673
 6245TIP3   OH240149   1.086   6.315  12.729  0.8796 -0.0723 -0.5057
 6245TIP3    H140150   1.081   6.379  12.658  0.9509  1.0866  0.5118
 6245TIP3    H240151   1.149   6.353  12.791  1.0213 -1.1914  0.0612
 6246TIP3   OH240152   1.813   0.187   4.313  0.1383 -1.1185  0.1986
 6246TIP3    H140153   1.789   0.234   4.393 -0.5148 -1.7673  0.3938
 6246TIP3    H240154   1.793   0.248   4.242  2.8386  0.3827  0.5708
 6247TIP3   OH240155   3.691   0.755   2.345  0.0390 -0.1499 -0.1556
 6247TIP3    H140156   3.613   0.710   2.378  0.4171 -2.6448 -2.3667
 6247TIP3    H240157   3.760   0.732   2.407 -0.1892 -1.1223 -0.2437
 6248TIP3   OH240158   1.661   2.004  12.423 -0.2018  0.0567 -0.3156
 6248TIP3    H140159   1.602   1.938  12.387 -0.1675  0.0825 -0.4212
 6248TIP3    H240160   1.639   2.084  12.375 -2.2091  0.8418  1.7615
 6249TIP3   OH240161   0.225   2.499   0.275 -0.2961  0.3587  0.1893
 6249TIP3    H140162   0.229   2.543   0.190  1.6724 -1.0618 -0.5276
 6249TIP3    H240163   0.302   2.532   0.323  0.9811 -1.8718 -0.2075
 6250TIP3   OH240164   2.576   5.168   2.009 -0.1025  0.1480 -0.0439
 6250TIP3    H140165   2.559   5.254   2.046 -1.5963  0.2244 -0.8154
 6250TIP3    H240166   2.664   5.146   2.038  0.9635  2.6133 -1.1079
 6251TIP3   OH240167   6.252   0.268   3.753 -0.2434  0.2992  0.2104
 6251TIP3    H140168   6.216   0.228   3.832  0.7814  2.5470  1.9242
 6251TIP3    H240169   6.202   0.349   3.741  1.2988  1.2967  0.1434
 6252TIP3   OH240170   4.364   3.278   6.757  0.5255 -0.7111  0.2571
 6252TIP3    H140171   4.389   3.219   6.686 -0.6313  1.1001 -1.8001
 6252TIP3    H240172   4.388   3.365   6.724  3.4402  0.0217  3.7191
 6253TIP3   OH240173   2.954   0.771  11.853 -0.2695  0.4440  0.2970
 6253TIP3    H140174   2.872   0.777  11.803 -0.5181  0.2148  0.6687
 6253TIP3    H240175   3.014   0.829  11.807 -0.0532 -0.8095 -1.0762
 6254TIP3   OH240176   6.311   6.061  12.701  0.2666  0.1683 -0.2328
 6254TIP3    H140177   6.235   6.008  12.675 -0.5145  0.9991  0.2923
 6254TIP3    H240178   6.364   6.001  12.754 -0.7629 -0.0165  0.6289
 6255TIP3   OH240179   2.488   1.236   3.658 -0.1352  0.1304  0.5706
 6255TIP3    H140180   2.491   1.257   3.565 -1.4047  2.8455  1.0185
 6255TIP3    H240181   2.396   1.247   3.682 -0.0838 -1.8912  1.9030
 6256TIP3   OH240182   5.023   3.541   1.108  0.1924 -0.1623  0.0975
 6256TIP3    H140183   4.960   3.600   1.067 -0.5876  1.2266  3.0068
 6256TIP3    H240184   4.974   3.460   1.124 -0.0625 -0.0318 -0.0189
 6257TIP3   OH240185   4.246   5.969  12.980  0.5742 -0.1238 -0.2466
 6257TIP3    H140186   4.264   5.875  12.986  3.0517  0.3255  0.6128
 6257TIP3    H240187   4.210   5.981  12.892 -0.4472 -1.9370 -0.1165
 6258TIP3   OH240188   2.886   6.564   3.698  0.5952  0.9004 -0.4802
 6258TIP3    H140189   2.919   6.620   3.769  0.4923 -0.3337  0.5917
 6258TIP3    H240190   2.850   6.625   3.634 -0.9020  2.0284  1.3308
 6259TIP3   OH240191   2.747   0.479  16.300  0.1370  0.4409 -0.3357
 6259TIP3    H140192   2.666   0.519  16.271  0.4122  1.3401  0.1021
 6259TIP3    H240193   2.725   0.437  16.383  0.1649  0.8930 -0.0953
 6260TIP3   OH240194   2.863   1.139  12.607 -0.1592  0.1127  0.0289
 6260TIP3    H140195   2.958   1.144  12.615 -0.1291 -0.9670  0.6231
 6260TIP3    H240196   2.844   1.045  12.613 -1.1786  0.2212 -1.1074
 6261TIP3   OH240197   4.174   4.612  16.724 -0.3068  0.3444  0.0473
 6261TIP3    H140198   4.197   4.564  16.644 -0.7354  0.0059  0.1273
 6261TIP3    H240199   4.233   4.576  16.790  0.3337  0.9124 -0.2028
 6262TIP3   OH240200   6.485   6.349  13.706 -1.0077  0.1846 -0.2137
 6262TIP3    H140201   6.474   6.274  13.647 -1.1248  0.3915 -0.4510
 6262TIP3    H240202   6.418   6.411  13.680 -0.5895  0.5859 -0.3443
 6263TIP3   OH240203   6.433   2.337  12.130  0.1256  0.3963  0.1854
 6263TIP3    H140204   6.442   2.311  12.039 -2.8631  0.5281 -0.2713
 6263TIP3    H240205   6.354   2.392  12.131  1.1728  2.0114  2.5548
 6264TIP3   OH240206   5.924   5.530   0.535 -0.4392 -0.4002  0.1259
 6264TIP3    H140207   5.922   5.520   0.440 -2.1669 -0.2448  0.1219
 6264TIP3    H240208   5.880   5.613   0.551 -0.1314 -0.4091  1.0727
 6265TIP3   OH240209   4.841   2.992  10.442 -0.9277  0.1362  0.1118
 6265TIP3    H140210   4.814   2.909  10.481  0.9432  0.2455  1.7449
 6265TIP3    H240211   4.916   2.969  10.386  0.7451  0.8938  1.9398
 6266TIP3   OH240212   6.112   6.330  11.888  0.9124 -0.5848 -0.1703
 6266TIP3    H140213   6.018   6.333  11.902  0.9438  3.5214  0.3002
 6266TIP3    H240214   6.140   6.422  11.891  5.0879 -1.6878  0.7600
 6267TIP3   OH240215   1.790   1.055  13.871 -0.3534 -0.2239 -0.2150
 6267TIP3    H140216   1.723   1.021  13.930 -0.3055  2.1149  1.3254
 6267TIP3    H240217   1.777   1.150  13.872  2.7522  0.3061 -0.1144
 6268TIP3   OH240218   1.035   2.444  13.922  0.1980  0.0653  0.1825
 6268TIP3    H140219   0.944   2.459  13.947  0.3254  0.1282  0.6184
 6268TIP3    H240220   1.043   2.348  13.918  0.3896  0.0145  1.2422
 6269TIP3   OH240221   5.040   2.218   4.672 -0.0421  0.1794  0.1463
 6269TIP3    H140222   4.955   2.193   4.635  0.4008 -4.2603  1.5202
 6269TIP3    H240223   5.104   2.188   4.608  0.6579  2.6084 -0.4204
 6270TIP3   OH240224   0.614   5.503   0.649  0.6059 -0.3645  0.9396
 6270TIP3    H140225   0.703   5.469   0.637  0.6159  0.1776 -1.0211
 6270TIP3    H240226   0.562   5.458   0.581 -0.0679  1.0835  0.4508
 6271TIP3   OH240227   5.315   0.759  16.874 -0.0002 -0.0993 -0.4468
 6271TIP3    H140228   5.326   0.664  16.877 -1.3669 -0.3104 -1.1014
 6271TIP3    H240229   5.220   0.771  16.869  0.0966  1.3500  0.8123
 6272TIP3   OH240230   6.152   0.851  15.437 -0.3066 -0.2378  0.5825
 6272TIP3    H140231   6.170   0.834  15.344  0.1611  0.0579  0.6119
 6272TIP3    H240232   6.202   0.785  15.484  0.3478  0.2859  0.6506
 6273TIP3   OH240233   1.988   4.717   2.494  0.3346  0.0170 -0.8822
 6273TIP3    H140234   1.902   4.676   2.494 -0.4171  1.5190 -0.2024
 6273TIP3    H240235   2.020   4.707   2.583 -0.7373  2.5549 -0.1273
 6274TIP3   OH240236   4.774   6.379  14.706 -0.0375 -0.1142 -0.2537
 6274TIP3    H140237   4.760   6.293  14.745  0.8364 -0.4120 -0.5722
 6274TIP3    H240238   4.691   6.424  14.717 -0.8009 -1.3139 -0.8728
 6275TIP3   OH240239   4.941   3.534  14.489  0.1301  0.3332 -0.5671
 6275TIP3    H140240   5.009   3.592  14.454 -0.1815  1.6237  0.8406
 6275TIP3    H240241   4.989   3.468  14.539  0.4109  0.5253 -0.5806
 6276TIP3   OH240242   2.766   6.702  11.137 -0.4244  0.6864 -0.3990
 6276TIP3    H140243   2.735   6.658  11.057 -0.4117  1.1553 -0.6625
 6276TIP3    H240244   2.855   6.730  11.116 -0.4615  0.9081 -0.2618
 6277TIP3   OH240245   2.416   0.203   0.709  0.3325 -0.2970  0.8464
 6277TIP3    H140246   2.394   0.278   0.765 -0.5873 -0.7742  1.1546
 6277TIP3    H240247   2.460   0.241   0.633  2.2978  0.3191  2.1966
 6278TIP3   OH240248   2.674   4.011   6.023 -0.0853 -0.5940 -0.4175
 6278TIP3    H140249   2.675   4.101   6.054 -0.6344 -0.6179 -0.3277
 6278TIP3    H240250   2.677   3.958   6.103 -0.4234 -0.6555 -0.4465
 6279TIP3   OH240251   3.433   1.910  17.090  0.4045  0.4509 -0.2414
 6279TIP3    H140252   3.472   1.970  17.027 -0.2943  1.3176  0.1083
 6279TIP3    H240253   3.364   1.962  17.132 -0.7762 -0.8529 -0.4911
 6280TIP3   OH240254   4.086   6.209  15.251  0.5114 -0.3822  0.6383
 6280TIP3    H140255   4.155   6.146  15.233  0.8270  0.2985 -0.6572
 6280TIP3    H240256   4.037   6.216  15.169  0.2401  0.7492  0.8803
 6281TIP3   OH240257   4.463   5.105  14.400  0.3236  0.1720  0.1609
 6281TIP3    H140258   4.497   5.027  14.442 -0.2589 -0.8427 -1.1941
 6281TIP3    H240259   4.403   5.073  14.332  3.1011  1.5412 -3.2475
 6282TIP3   OH240260   1.497   3.225   3.415  0.1129  0.4310 -0.3360
 6282TIP3    H140261   1.461   3.304   3.455 -0.4450  0.3372 -0.6385
 6282TIP3    H240262   1.563   3.258   3.354  1.8779  0.5149  1.5130
 6283TIP3   OH240263   3.332   5.613  14.509  0.4066 -0.1094  0.0125
 6283TIP3    H140264   3.250   5.565  14.497  1.1663 -1.6244  0.7298
 6283TIP3    H240265   3.307   5.705  14.496 -1.2043 -0.6097 -0.7402
 6284TIP3   OH240266   1.435   1.261   0.506  0.3938  0.1786  0.2624
 6284TIP3    H140267   1.486   1.317   0.565  1.2562  1.2927 -1.4462
 6284TIP3    H240268   1.364   1.318   0.476 -0.8833 -0.8280  1.2981
 6285TIP3   OH240269   6.357   6.295   5.191 -0.1422  0.2887  0.6493
 6285TIP3    H140270   6.299   6.356   5.236 -1.4323 -0.6295  0.2877
 6285TIP3    H240271   6.310   6.271   5.111  0.9602 -0.1115  0.0955
 6286TIP3   OH240272   4.656   3.638   2.417  0.3802 -0.4080 -0.2625
 6286TIP3    H140273   4.609   3.688   2.484  1.9792  0.3509  0.3398
 6286TIP3    H240274   4.608   3.555   2.412 -2.7696  1.3155 -1.7884
 6287TIP3   OH240275   4.227   1.475  17.280  0.5020 -0.3998 -0.5792
 6287TIP3    H140276   4.295   1.533  17.315  0.3119 -0.8987  0.6887
 6287TIP3    H240277   4.163   1.535  17.241 -0.0603  0.3740  1.3617
 6288TIP3   OH240278   3.926   2.941   5.200 -0.3756 -0.3879  0.1431
 6288TIP3    H140279   3.831   2.928   5.210 -0.5747  1.2554  0.7293
 6288TIP3    H240280   3.947   3.008   5.265  0.6582  1.3948 -1.9319
 6289TIP3   OH240281   1.005   3.826   1.423 -0.0715  0.1738 -0.0199
 6289TIP3    H140282   0.941   3.755   1.430  0.3377 -0.3717 -1.4921
 6289TIP3    H240283   1.066   3.797   1.355  0.9492  1.3010  0.3788
 6290TIP3   OH240284   1.168   3.895   0.834  0.0431  0.9777  0.3114
 6290TIP3    H140285   1.129   3.983   0.829  0.1461  1.1219  1.7086
 6290TIP3    H240286   1.094   3.835   0.821 -0.1360  1.2562  0.0137
 6291TIP3   OH240287   3.332   6.483   5.147  0.2717 -0.0837 -0.0147
 6291TIP3    H140288   3.328   6.487   5.052 -2.1524 -1.7305 -0.0756
 6291TIP3    H240289   3.414   6.436   5.165  1.0448  0.7492 -1.2243
 6292TIP3   OH240290   4.356   2.082  14.117  0.7289  0.6542  0.8117
 6292TIP3    H140291   4.352   2.177  14.130  0.9428  0.6598  0.8483
 6292TIP3    H240292   4.293   2.064  14.048  2.7650  1.2158 -1.3337
 6293TIP3   OH240293   0.359   1.388  14.520  0.0827  0.1970  0.0907
 6293TIP3    H140294   0.388   1.393  14.430  0.6591 -0.0124  0.2630
 6293TIP3    H240295   0.357   1.479  14.550  0.5948  0.2087  0.0896
 6294TIP3   OH240296   5.820   1.551  15.083  0.3082 -0.3108  0.4150
 6294TIP3    H140297   5.866   1.635  15.075  1.9035 -0.7445  3.4841
 6294TIP3    H240298   5.748   1.569  15.143  0.1873 -0.9834  0.4738
 6295TIP3   OH240299   3.114   3.689   5.875 -0.5868  0.3969  0.0360
 6295TIP3    H140300   3.039   3.644   5.913  0.6849 -1.9972 -0.0462
 6295TIP3    H240301   3.139   3.754   5.941 -0.9482 -0.8195  1.4319
 6296TIP3   OH240302   4.256   6.033  12.058  0.0683 -0.7596 -0.2041
 6296TIP3    H140303   4.195   5.966  12.029  1.6075 -2.2966 -0.0539
 6296TIP3    H240304   4.335   5.985  12.082  0.9963  1.0522  0.5800
 6297TIP3   OH240305   2.942   3.572  16.303  0.2862  0.0949  0.4405
 6297TIP3    H140306   2.875   3.536  16.244  0.2921  0.6463  0.0862
 6297TIP3    H240307   2.966   3.499  16.360 -0.8680 -0.0165  0.8022
 6298TIP3   OH240308   4.260   4.448   4.367  0.0681  0.2066 -0.4504
 6298TIP3    H140309   4.226   4.440   4.456  1.2405  0.8865  0.0819
 6298TIP3    H240310   4.215   4.526   4.331 -0.9131 -0.4607 -0.7186
 6299TIP3   OH240311   1.935   2.061  13.614  0.3264 -0.2943 -0.0528
 6299TIP3    H140312   1.933   2.122  13.541  0.0139 -0.3264 -0.0728
 6299TIP3    H240313   2.027   2.055  13.638  0.2311  1.2795  0.8538
 6300TIP3   OH240314   2.039   0.024   1.422  0.9754 -0.6511  0.0066
 6300TIP3    H140315   2.089   0.072   1.488  0.5563 -0.8316  0.4632
 6300TIP3    H240316   2.100  -0.039   1.385  1.7072  0.6023 -1.0046
 6301TIP3   OH240317   5.816   6.587  15.037 -0.2809  0.5255 -0.0911
 6301TIP3    H140318   5.825   6.615  14.946 -0.0628  1.8951  0.3268
 6301TIP3    H240319   5.774   6.662  15.081 -0.0578  0.0291  0.9990
 6302TIP3   OH240320   4.974   4.472  13.093 -0.5154  0.6210  0.2491
 6302TIP3    H140321   5.016   4.535  13.033  3.0926 -1.4163  0.3418
 6302TIP3    H240322   5.010   4.387  13.068 -3.7891 -1.2439  1.3171
 6303TIP3   OH240323   4.948   5.398   1.216 -0.0698  0.3358  0.4572
 6303TIP3    H140324   4.944   5.462   1.288 -3.1071 -0.2348  0.9170
 6303TIP3    H240325   4.912   5.318   1.253 -1.5806 -0.0219 -1.6026
 6304TIP3   OH240326   5.185   5.110  16.309 -0.6424 -0.6263 -0.0745
 6304TIP3    H140327   5.222   5.040  16.362 -0.0474  0.3540  0.8538
 6304TIP3    H240328   5.198   5.081  16.218  1.5114 -0.7969  0.2283
 6305TIP3   OH240329   2.241   5.286  14.965 -0.6460 -0.1094  0.0148
 6305TIP3    H140330   2.157   5.239  14.967 -0.9409  0.4339  0.5617
 6305TIP3    H240331   2.243   5.335  15.047 -0.7277  1.5310 -0.9386
 6306TIP3   OH240332   2.034   4.189  11.719 -0.2224  0.2878  0.3827
 6306TIP3    H140333   2.070   4.278  11.720 -1.2019  0.7013  0.0088
 6306TIP3    H240334   2.011   4.173  11.628 -1.5150  0.2711  0.6882
 6307TIP3   OH240335   3.709   2.826   1.131  0.1660 -0.2173 -0.2979
 6307TIP3    H140336   3.623   2.815   1.171  0.5245 -1.3642  0.2288
 6307TIP3    H240337   3.726   2.743   1.087  0.6624  0.2893 -1.0850
 6308TIP3   OH240338   3.165   6.306   5.245  0.4323  0.3382 -0.1242
 6308TIP3    H140339   3.229   6.377   5.247 -0.8225  1.5106 -0.1614
 6308TIP3    H240340   3.080   6.350   5.244 -0.3750 -1.1545 -1.2477
 6309TIP3   OH240341   5.903   4.861   1.619 -0.2260 -0.0641 -0.2220
 6309TIP3    H140342   5.824   4.909   1.644 -0.9898 -1.2399 -0.2701
 6309TIP3    H240343   5.967   4.881   1.687 -0.6662  0.6619 -0.0149
 6310TIP3   OH240344   5.524   0.631   4.422 -0.0386 -0.1509 -0.2959
 6310TIP3    H140345   5.465   0.556   4.419  0.1511 -0.2929 -0.4947
 6310TIP3    H240346   5.584   0.618   4.348 -0.2946  0.4325 -0.6083
 6311TIP3   OH240347   5.163   2.030   0.229 -0.6977 -0.0888  0.0390
 6311TIP3    H140348   5.192   2.117   0.258 -1.6576  0.1162  0.4289
 6311TIP3    H240349   5.141   2.042   0.137  2.6886 -0.8202 -1.0118
 6312TIP3   OH240350   1.405   2.584   4.511  0.0748 -0.5560  0.5983
 6312TIP3    H140351   1.439   2.515   4.454 -0.4796 -1.2681  1.1054
 6312TIP3    H240352   1.312   2.588   4.492 -0.4703 -1.9771  2.5865
 6313TIP3   OH240353   3.416   2.547   3.252  0.3904  0.4061  0.0731
 6313TIP3    H140354   3.497   2.590   3.224  0.8245  0.1133  0.8381
 6313TIP3    H240355   3.406   2.572   3.344 -0.0530 -0.0562  0.1546
 6314TIP3   OH240356   1.472   1.381  16.769 -0.3384  0.7003 -0.2605
 6314TIP3    H140357   1.482   1.343  16.856 -1.3308 -0.5178 -0.6450
 6314TIP3    H240358   1.478   1.475  16.783 -2.5190  0.6621  1.4539
 6315TIP3   OH240359   5.217   3.545   1.291 -0.5947  0.0759 -0.4892
 6315TIP3    H140360   5.133   3.551   1.245  0.3908  0.9520 -2.2847
 6315TIP3    H240361   5.213   3.615   1.357 -1.5954 -0.4722  0.0583
 6316TIP3   OH240362   2.601   1.298   4.468  0.4371 -0.3896  0.6405
 6316TIP3    H140363   2.630   1.390   4.471 -0.1900 -0.2085  1.3770
 6316TIP3    H240364   2.522   1.300   4.415  0.3462 -0.4893  0.7739
 6317TIP3   OH240365   3.907   1.920   3.069 -0.1088 -0.8350 -0.2807
 6317TIP3    H140366   3.936   1.985   3.133  0.1432 -0.5138 -0.7164
 6317TIP3    H240367   3.953   1.943   2.989 -0.4958 -1.1762 -0.6052
 6318TIP3   OH240368   0.125   4.433  11.133 -0.2540 -0.2699  0.1556
 6318TIP3    H140369   0.213   4.396  11.131 -0.5093 -0.8828  0.1028
 6318TIP3    H240370   0.123   4.493  11.058 -0.2340 -1.0736 -0.4986
 6319TIP3   OH240371   2.267   5.163  16.879 -0.7523  0.6435  0.3733
 6319TIP3    H140372   2.257   5.140  16.971 -0.1258 -0.6255  0.1488
 6319TIP3    H240373   2.214   5.099  16.832  0.3217  0.1652 -0.2332
 6320TIP3   OH240374   4.787   2.298   2.254  0.0600 -0.0542 -0.4060
 6320TIP3    H140375   4.813   2.273   2.166 -1.5603 -2.4975 -0.3024
 6320TIP3    H240376   4.691   2.291   2.253 -0.1785  2.1655  0.9417
 6321TIP3   OH240377   6.601   5.100  13.008  0.2857 -0.4223  0.3270
 6321TIP3    H140378   6.606   5.095  13.103 -2.9899 -0.3364  0.6202
 6321TIP3    H240379   6.618   5.010  12.979  2.4390 -0.2393  0.8080
 6322TIP3   OH240380   5.180   4.462   3.016 -0.7360  0.5543 -0.1856
 6322TIP3    H140381   5.088   4.442   3.030 -0.1181 -2.2220  0.7189
 6322TIP3    H240382   5.196   4.442   2.924 -1.1869  1.9129 -0.5763
 6323TIP3   OH240383   3.347   0.556   5.319  0.1059  0.0619  0.1615
 6323TIP3    H140384   3.304   0.642   5.324  1.2819  0.6321  1.2042
 6323TIP3    H240385   3.365   0.533   5.410 -2.2547 -2.4399  0.1054
 6324TIP3   OH240386   5.365   2.362   3.966  0.4317 -0.1235 -0.3995
 6324TIP3    H140387   5.302   2.301   3.928 -1.1438  0.7083  0.7732
 6324TIP3    H240388   5.437   2.307   3.996 -0.7275 -1.3662  0.2062
 6325TIP3   OH240389   1.455   6.092   2.217  0.6545 -0.2050 -0.5022
 6325TIP3    H140390   1.399   6.049   2.153  0.0112  0.3372 -0.3183
 6325TIP3    H240391   1.476   6.177   2.178  1.1837 -0.3156 -0.4756
 6326TIP3   OH240392   3.500   3.387   2.764  0.4542  0.0878 -0.1446
 6326TIP3    H140393   3.578   3.404   2.817  1.0534  0.0291 -0.9883
 6326TIP3    H240394   3.523   3.309   2.713 -0.2393 -0.0438 -0.2566
 6327TIP3   OH240395   2.547   0.046   5.794 -0.0815  0.2168 -0.1275
 6327TIP3    H140396   2.579   0.128   5.832  0.5011 -1.0400  2.2721
 6327TIP3    H240397   2.623   0.011   5.746  0.1968  0.2593  0.2815
 6328TIP3   OH240398   5.773   2.462  11.607  0.7511 -0.2402  0.4483
 6328TIP3    H140399   5.716   2.522  11.655  0.3471  0.7740 -1.1997
 6328TIP3    H240400   5.857   2.507  11.604  0.3464  0.4737 -1.1189
 6329TIP3   OH240401   2.800   1.581   3.991 -0.6290 -0.6317 -0.0070
 6329TIP3    H140402   2.797   1.496   4.035  4.0015 -1.4692 -0.8169
 6329TIP3    H240403   2.828   1.642   4.058 -2.0224 -0.0720  0.1004
 6330TIP3   OH240404   0.489   4.912  15.465 -0.0867  0.3563 -0.4056
 6330TIP3    H140405   0.531   4.937  15.383 -0.4697  2.1076 -0.1088
 6330TIP3    H240406   0.479   4.817  15.459  3.0995 -0.0582 -0.8376
 6331TIP3   OH240407   3.523   0.258   2.124  0.0874  0.1080 -0.5317
 6331TIP3    H140408   3.444   0.290   2.168 -0.4062  0.4088 -1.6056
 6331TIP3    H240409   3.589   0.324   2.144  0.0835 -0.1388  0.3691
 6332TIP3   OH240410   3.142   1.203   0.288 -0.1297  0.1573  0.3880
 6332TIP3    H140411   3.103   1.128   0.332 -0.1028  0.5840  1.1752
 6332TIP3    H240412   3.074   1.270   0.291  0.4782  0.7674  1.3822
 6333TIP3   OH240413   2.045   1.113   3.611  0.3130 -0.0236  0.2751
 6333TIP3    H140414   1.957   1.144   3.590  0.0860 -1.9132 -1.9900
 6333TIP3    H240415   2.096   1.193   3.625 -1.3237  1.1688 -0.2766
 6334TIP3   OH240416   2.671   5.360   2.627 -0.5593  0.2113  0.2477
 6334TIP3    H140417   2.715   5.433   2.583 -1.3977  0.4078 -0.2854
 6334TIP3    H240418   2.606   5.402   2.684 -1.2269 -0.1075 -0.2551
 6335TIP3   OH240419   1.611   0.795  14.794  0.1837 -0.3560 -0.4635
 6335TIP3    H140420   1.535   0.746  14.824 -0.2482  1.0124  0.8245
 6335TIP3    H240421   1.673   0.790  14.867  0.1210  0.9816 -0.2914
 6336TIP3   OH240422   6.172   0.272   5.729  0.2887  0.0066 -0.2584
 6336TIP3    H140423   6.213   0.256   5.814  0.5109  0.9834 -0.1677
 6336TIP3    H240424   6.169   0.186   5.687 -1.5860 -0.8985  1.4944
 6337TIP3   OH240425   0.261   2.926  11.860  0.4361 -0.0833  0.2707
 6337TIP3    H140426   0.305   2.868  11.798 -0.3653  1.1318 -1.5057
 6337TIP3    H240427   0.278   3.014  11.828 -2.3967  0.4801  0.0298
 6338TIP3   OH240428   4.206   6.143   0.619 -0.0796 -0.1754 -0.4941
 6338TIP3    H140429   4.293   6.180   0.631  0.0769 -0.4687 -0.7087
 6338TIP3    H240430   4.155   6.215   0.582 -0.2059  0.3127  0.5810
 6339TIP3   OH240431   2.175   0.710  12.788 -0.2865 -0.4407  0.2594
 6339TIP3    H140432   2.238   0.718  12.860  1.6221 -1.2706 -1.2209
 6339TIP3    H240433   2.159   0.801  12.761  1.7290 -0.2319 -0.4500
 6340TIP3   OH240434   4.929   2.136   4.902  0.5821 -0.1039 -0.0821
 6340TIP3    H140435   5.005   2.191   4.882  1.9386 -2.3739 -1.7919
 6340TIP3    H240436   4.877   2.138   4.822 -0.4942  0.4020  0.6209
 6341TIP3   OH240437   1.038   2.844   3.239 -0.1168  0.1853 -0.7321
 6341TIP3    H140438   1.065   2.862   3.329  0.9399 -1.2289 -0.7290
 6341TIP3    H240439   0.946   2.818   3.246  0.1511 -0.6161  0.0552
 6342TIP3   OH240440   4.970   2.130   3.023  0.0984  0.3297 -0.2238
 6342TIP3    H140441   4.922   2.132   3.106  1.4143  0.7777  0.5709
 6342TIP3    H240442   4.927   2.062   2.972 -0.8468  0.1497  0.7662
 6343TIP3   OH240443   2.352   1.961   0.312  0.2139 -0.5597  0.3687
 6343TIP3    H140444   2.408   1.974   0.235  0.0670 -2.4933 -0.1293
 6343TIP3    H240445   2.263   1.969   0.278  0.1501  1.3328  0.9215
 6344TIP3   OH240446   5.932   2.545   0.590 -0.3884 -0.5448 -0.3017
 6344TIP3    H140447   5.898   2.575   0.506 -0.7274  0.6753  0.2548
 6344TIP3    H240448   6.027   2.553   0.582 -0.4402 -0.0909 -0.4432
 6345TIP3   OH240449   1.372   1.903  15.534  0.9077 -0.4491  0.2047
 6345TIP3    H140450   1.432   1.884  15.607  0.0779 -1.1406  0.7154
 6345TIP3    H240451   1.420   1.967  15.481  2.2081 -1.1820  0.4573
 6346TIP3   OH240452   5.614   1.755  14.409 -0.1000  0.0784 -0.6428
 6346TIP3    H140453   5.577   1.671  14.382 -0.0338 -0.9870  2.2301
 6346TIP3    H240454   5.543   1.818  14.396 -1.0320 -0.9089 -0.5059
 6347TIP3   OH240455   1.727   5.127   3.947  0.8360 -0.7634 -0.1510
 6347TIP3    H140456   1.745   5.119   3.854  1.6725  0.5536 -0.1187
 6347TIP3    H240457   1.813   5.140   3.988  0.2308  2.8571  0.3101
 6348TIP3   OH240458   5.389   6.313  15.074 -0.7145 -0.0780 -0.6244
 6348TIP3    H140459   5.349   6.384  15.024 -0.4360  0.4809 -0.0676
 6348TIP3    H240460   5.345   6.316  15.159  0.7777  0.8335  0.1565
 6349TIP3   OH240461   0.522   0.327   6.049 -0.1209  0.0536 -0.1051
 6349TIP3    H140462   0.616   0.328   6.070 -0.1685  0.7648  0.1197
 6349TIP3    H240463   0.499   0.235   6.046  0.5546 -0.1285 -0.0026
 6350TIP3   OH240464   0.619   5.040  12.143 -0.6964 -0.1935 -0.1453
 6350TIP3    H140465   0.629   5.067  12.235 -1.7380 -0.2961  0.0100
 6350TIP3    H240466   0.679   4.967  12.133  0.4601  0.6953  0.0675
 6351TIP3   OH240467   3.112   2.878   4.046 -0.0129  0.4411 -0.2708
 6351TIP3    H140468   3.112   2.923   3.962  1.4914  2.8484  0.9182
 6351TIP3    H240469   3.099   2.786   4.024 -2.3389  1.2765 -2.8943
 6352TIP3   OH240470   1.951   1.772   2.846 -0.0638  0.2430  0.3770
 6352TIP3    H140471   1.893   1.798   2.775 -1.1372 -1.4141  0.5778
 6352TIP3    H240472   1.897   1.776   2.925 -0.0050 -1.4531  0.5505
 6353TIP3   OH240473   2.806   6.159  13.681  0.4114  0.0751  0.7065
 6353TIP3    H140474   2.755   6.133  13.604 -0.7114  1.6706  0.8709
 6353TIP3    H240475   2.897   6.156  13.652 -0.0111  0.9292 -0.7875
 6354TIP3   OH240476   0.334   2.315  11.622 -0.3372  0.0740  0.1426
 6354TIP3    H140477   0.336   2.237  11.678 -0.3856  0.0517  0.1135
 6354TIP3    H240478   0.302   2.385  11.680 -2.3063 -0.3549 -0.3558
 6355TIP3   OH240479   5.799   3.952   2.703 -0.0027  0.0086 -0.1787
 6355TIP3    H140480   5.779   3.861   2.681 -1.9656  0.6331 -1.2553
 6355TIP3    H240481   5.863   3.980   2.638 -0.1141 -0.3352 -0.4334
 6356TIP3   OH240482   1.133   4.115  14.161 -0.4544  0.1722 -0.4540
 6356TIP3    H140483   1.205   4.052  14.169 -0.5276  0.0397 -0.8400
 6356TIP3    H240484   1.175   4.200  14.173 -0.5192  0.0090  1.1365
 6357TIP3   OH240485   5.120   3.814   4.691  0.3511  0.1251  0.0074
 6357TIP3    H140486   5.208   3.776   4.690  0.7811  0.9272  2.1395
 6357TIP3    H240487   5.132   3.905   4.665 -0.1690 -0.2225 -1.5702
 6358TIP3   OH240488   2.114   5.407   0.961 -0.0985 -0.2311  0.4490
 6358TIP3    H140489   2.075   5.321   0.974 -2.5126  0.6536 -0.3787
 6358TIP3    H240490   2.144   5.433   1.048  1.2874 -2.1182  0.6042
 6359TIP3   OH240491   5.928   3.751  15.717  0.0329  0.3152 -0.1308
 6359TIP3    H140492   5.870   3.722  15.646  1.3236 -1.2370 -0.6214
 6359TIP3    H240493   5.916   3.845  15.720 -0.3136  0.3947 -2.2226
 6360TIP3   OH240494   5.033   5.748   1.955  0.4621 -0.0413 -0.3720
 6360TIP3    H140495   4.993   5.734   1.869  0.1047  0.8002 -0.3516
 6360TIP3    H240496   5.011   5.838   1.977 -1.1907 -0.8427  1.5196
 6361TIP3   OH240497   3.464   4.711  16.624 -0.1659  0.1392 -0.0931
 6361TIP3    H140498   3.518   4.785  16.651 -0.1009 -0.1427  0.5599
 6361TIP3    H240499   3.480   4.703  16.530  1.2191 -0.1656  0.1521
 6362TIP3   OH240500   5.984   0.971   1.459 -0.0158 -0.4938 -0.8205
 6362TIP3    H140501   6.034   1.033   1.406  0.7404 -1.4340 -1.2339
 6362TIP3    H240502   5.950   0.907   1.396  0.7924 -1.5523 -0.1983
 6363TIP3   OH240503   3.064   1.509   0.286 -0.3948  0.0253  0.1705
 6363TIP3    H140504   3.017   1.493   0.204 -0.2992  0.2880  0.0632
 6363TIP3    H240505   3.156   1.496   0.263 -0.4246 -0.7063  0.4305
 6364TIP3   OH240506   2.964   1.640   4.274 -0.1598 -0.4180  0.2666
 6364TIP3    H140507   3.028   1.571   4.259  1.2765  0.7391  0.7855
 6364TIP3    H240508   2.930   1.623   4.362  1.1155  0.1923  0.9090
 6365TIP3   OH240509   2.697   2.587   2.384  0.0553  0.0166 -0.6560
 6365TIP3    H140510   2.630   2.604   2.318  2.0079 -0.0087 -2.7734
 6365TIP3    H240511   2.744   2.670   2.393  1.2064 -0.5747 -1.0139
 6366TIP3   OH240512   5.162   6.508  11.754  0.1670 -0.3835 -0.1600
 6366TIP3    H140513   5.200   6.505  11.666 -0.7808 -0.4990 -0.5785
 6366TIP3    H240514   5.171   6.600  11.781 -0.4945 -0.1110 -0.8233
 6367TIP3   OH240515   3.264   6.661  13.614 -0.5314 -0.2963 -0.0587
 6367TIP3    H140516   3.182   6.706  13.635 -0.1147 -0.4245  2.0464
 6367TIP3    H240517   3.332   6.726  13.631 -0.0798 -0.8705  0.3900
 6368TIP3   OH240518   0.498   5.938   1.080 -0.1796  0.2601 -0.2695
 6368TIP3    H140519   0.442   5.875   1.035 -0.5857  0.5352 -0.1518
 6368TIP3    H240520   0.464   5.941   1.170  0.7731 -0.4623  0.1350
 6369TIP3   OH240521   0.852   3.858   0.774  0.0543  0.2679 -0.1050
 6369TIP3    H140522   0.824   3.766   0.765 -1.4518  0.6190  0.6437
 6369TIP3    H240523   0.858   3.889   0.684  0.7048 -0.5819 -0.3770
 6370TIP3   OH240524   1.899   5.027   5.657  0.0558 -0.1009 -0.5526
 6370TIP3    H140525   1.915   5.116   5.687 -0.2643 -0.2403  0.0463
 6370TIP3    H240526   1.900   4.974   5.737  1.8413 -0.8786 -1.0499
 6371TIP3   OH240527   6.598   2.765   3.670 -0.1471 -0.1579  0.1553
 6371TIP3    H140528   6.601   2.708   3.594  1.5261 -1.3843  1.0783
 6371TIP3    H240529   6.689   2.771   3.700 -0.6923  0.6415  1.7971
 6372TIP3   OH240530   5.043   1.335   1.424 -0.1851  0.3908  0.0683
 6372TIP3    H140531   4.968   1.393   1.411 -0.1089  0.2715 -1.0052
 6372TIP3    H240532   5.109   1.389   1.467 -0.6627  0.6725  0.4472
 6373TIP3   OH240533   4.500   6.203  12.179  0.3374  0.2314  0.5460
 6373TIP3    H140534   4.467   6.206  12.089  1.1723  1.1650  0.2569
 6373TIP3    H240535   4.502   6.294  12.207  1.5295  0.0895  0.9693
 6374TIP3   OH240536   4.205   2.611  13.408 -0.1756  0.0899  0.0936
 6374TIP3    H140537   4.121   2.634  13.448  0.2903 -0.9512  1.7564
 6374TIP3    H240538   4.264   2.598  13.482  0.5827 -2.4950 -0.8655
 6375TIP3   OH240539   3.954   4.169  11.520  0.3672 -0.6792  0.0540
 6375TIP3    H140540   3.994   4.255  11.503  0.5808 -0.3762  1.8078
 6375TIP3    H240541   3.996   4.140  11.601 -2.6350 -0.5437  1.8142
 6376TIP3   OH240542   2.069   1.958  14.958 -0.2528  0.0394 -0.1301
 6376TIP3    H140543   2.058   1.970  14.864 -0.1497 -0.2246 -0.1758
 6376TIP3    H240544   2.164   1.957  14.971 -0.0330  4.9795  0.5832
 6377TIP3   OH240545   0.877   1.971  12.648 -0.0250  0.3930 -0.0389
 6377TIP3    H140546   0.939   1.919  12.597 -0.3579 -0.8434  0.7753
 6377TIP3    H240547   0.919   1.981  12.734 -0.7588 -0.1357  0.3961
 6378TIP3   OH240548   0.210   5.542   0.860 -0.2541 -0.0329  0.6092
 6378TIP3    H140549   0.136   5.496   0.901  0.4816 -1.9681 -0.1332
 6378TIP3    H240550   0.246   5.479   0.799  1.9708  0.9125  0.8736
 6379TIP3   OH240551   1.865   6.475   4.735  0.4062  0.1581 -0.7316
 6379TIP3    H140552   1.800   6.454   4.668 -0.7132 -1.0367  0.6959
 6379TIP3    H240553   1.946   6.436   4.702 -0.5156 -1.9604 -0.6001
 6380TIP3   OH240554   2.381   6.109  17.460  0.3475  0.3874  0.0013
 6380TIP3    H140555   2.310   6.121  17.522  0.1229  1.0344 -0.3756
 6380TIP3    H240556   2.390   6.014  17.453 -2.1063  0.1842 -1.7607
 6381TIP3   OH240557   1.224   3.898  12.510  0.7823  0.2272 -0.2575
 6381TIP3    H140558   1.301   3.873  12.458  1.0044 -0.0143  0.1879
 6381TIP3    H240559   1.172   3.819  12.517 -0.3756  0.7757 -1.9984
 6382TIP3   OH240560   2.871   2.090   0.020  0.2058 -0.3854 -0.3559
 6382TIP3    H140561   2.808   2.162   0.029 -0.4040 -0.8087 -1.1290
 6382TIP3    H240562   2.883   2.058   0.110 -2.3003 -1.6334 -0.3717
 6383TIP3   OH240563   5.001   1.744  15.466  0.0299  0.1380  0.1798
 6383TIP3    H140564   5.032   1.709  15.382  1.3181 -0.3957  0.8480
 6383TIP3    H240565   5.077   1.788  15.503 -0.4405  0.1277  1.1947
 6384TIP3   OH240566   2.216   4.794   5.136  0.7621  0.3608 -0.3101
 6384TIP3    H140567   2.283   4.854   5.169 -0.9089  2.4132 -0.4769
 6384TIP3    H240568   2.146   4.799   5.200  0.2280 -0.8046 -0.7759
 6385TIP3   OH240569   5.630   5.213  17.119  0.2949 -0.5107 -0.4735
 6385TIP3    H140570   5.578   5.257  17.187 -0.3123 -0.9385 -0.6527
 6385TIP3    H240571   5.625   5.272  17.043 -0.5980 -0.9206 -0.7459
 6386TIP3   OH240572   1.254   3.886   1.608 -0.2166 -0.1085  0.2646
 6386TIP3    H140573   1.255   3.816   1.544  0.7670 -0.4505  0.6341
 6386TIP3    H240574   1.304   3.852   1.682  0.1009  0.8938  0.5345
 6387TIP3   OH240575   4.962   3.101  13.992  0.1078  0.4656  0.5149
 6387TIP3    H140576   5.014   3.045  13.934 -2.3068  0.9324 -2.3147
 6387TIP3    H240577   4.909   3.039  14.043  1.0771  0.0857  1.0822
 6388TIP3   OH240578   4.917   3.150   3.225 -0.0195 -0.3870 -0.7454
 6388TIP3    H140579   4.910   3.104   3.141  1.5440 -0.0964 -1.0656
 6388TIP3    H240580   4.934   3.241   3.200 -1.4341  0.0946 -0.1037
 6389TIP3   OH240581   1.719   2.749  11.286 -0.1634 -0.4649 -0.0522
 6389TIP3    H140582   1.811   2.732  11.268  1.2354  1.9480  3.5967
 6389TIP3    H240583   1.694   2.815  11.222  1.3754  0.4263  0.2030
 6390TIP3   OH240584   5.192   2.417  13.600 -0.3024  0.0378 -0.3095
 6390TIP3    H140585   5.164   2.506  13.579 -0.1400  0.8018  2.3801
 6390TIP3    H240586   5.223   2.421  13.690  1.2372 -2.4370 -0.6130
 6391TIP3   OH240587   1.241   4.446  15.852 -0.2781  0.4176  0.1089
 6391TIP3    H140588   1.258   4.526  15.801 -0.4890  0.9407  0.8367
 6391TIP3    H240589   1.152   4.421  15.825 -0.7169  1.1620  0.8031
 6392TIP3   OH240590   6.337   4.796  13.024 -0.0470 -0.4279  0.7444
 6392TIP3    H140591   6.296   4.882  13.020 -0.5932 -0.6213  1.9541
 6392TIP3    H240592   6.408   4.806  13.087  0.2592 -0.7262  0.4557
 6393TIP3   OH240593   0.380   5.807  13.751 -0.0883  0.0645  0.5854
 6393TIP3    H140594   0.357   5.875  13.814 -0.2874 -0.0589  0.6436
 6393TIP3    H240595   0.303   5.800  13.694  0.6136  1.2096 -0.5864
 6394TIP3   OH240596   5.476   5.370   6.141  0.1832  0.2435 -0.7052
 6394TIP3    H140597   5.518   5.412   6.215  0.9432 -3.0868  0.9735
 6394TIP3    H240598   5.386   5.403   6.143  1.1157  3.0622 -0.7568
 6395TIP3   OH240599   3.597   3.121   1.155 -0.3188  0.8467  0.5541
 6395TIP3    H140600   3.672   3.065   1.133 -1.1574  0.1771 -0.7510
 6395TIP3    H240601   3.609   3.199   1.101 -1.1871  0.1941 -0.6237
 6396TIP3   OH240602   3.279   3.796   0.721  0.1539 -0.0480 -0.6180
 6396TIP3    H140603   3.305   3.838   0.640  2.1694  1.5183  0.7404
 6396TIP3    H240604   3.301   3.703   0.708  0.6771  0.2186 -1.7607
 6397TIP3   OH240605   3.832   6.552   1.003  0.5591  0.4851 -0.1511
 6397TIP3    H140606   3.876   6.594   1.077 -0.6396  1.5209  0.0170
 6397TIP3    H240607   3.771   6.618   0.971  0.5089 -0.2271 -1.5917
 6398TIP3   OH240608   1.469   0.340  11.636 -0.3717  0.0845 -0.1328
 6398TIP3    H140609   1.508   0.396  11.704  1.5213  2.8549 -3.1534
 6398TIP3    H240610   1.401   0.394  11.597  0.6042 -0.1385 -2.3015
 6399TIP3   OH240611   6.622   3.946  13.764  0.0537 -0.3966  0.5891
 6399TIP3    H140612   6.642   4.039  13.778  1.5963 -0.5986 -0.1042
 6399TIP3    H240613   6.588   3.942  13.675  1.7187 -0.6975 -0.0768
 6400TIP3   OH240614   5.290   3.120   5.755  0.1156  0.6382  0.4637
 6400TIP3    H140615   5.244   3.138   5.837  1.3315  0.4082  1.2267
 6400TIP3    H240616   5.372   3.077   5.782  0.1469 -0.2511 -0.9216
 6401TIP3   OH240617   3.278   4.860  16.173  0.7568  0.2339  0.3442
 6401TIP3    H140618   3.223   4.787  16.201  0.6055  0.1515 -0.1546
 6401TIP3    H240619   3.365   4.822  16.165  0.9788  0.4519  1.5100
 6402TIP3   OH240620   3.795   2.168  13.545  0.5504 -0.0781  0.1929
 6402TIP3    H140621   3.810   2.187  13.453  2.9097 -1.1587  0.2720
 6402TIP3    H240622   3.867   2.212  13.591 -1.0252  1.1206  1.6558
 6403TIP3   OH240623   5.127   0.382  16.385 -0.0647 -0.0902  0.3391
 6403TIP3    H140624   5.190   0.438  16.338 -1.2290  1.2581  0.2999
 6403TIP3    H240625   5.105   0.432  16.464 -0.2370 -1.0559  0.9080
 6404TIP3   OH240626   5.379   3.818  17.506  0.2050  0.0967  0.1921
 6404TIP3    H140627   5.296   3.793  17.464  0.0781  2.1671 -0.9426
 6404TIP3    H240628   5.397   3.905  17.472  2.5440 -0.0388  0.9484
 6405TIP3   OH240629   2.381   4.031   3.795 -0.4028  0.2439 -0.1067
 6405TIP3    H140630   2.437   3.989   3.861 -1.3979  2.9297  2.7063
 6405TIP3    H240631   2.430   4.109   3.769 -0.9095  0.2397 -1.1140
 6406TIP3   OH240632   6.464   6.164  11.436  0.3860 -0.2084 -0.1213
 6406TIP3    H140633   6.422   6.231  11.490  2.0090  1.4273 -0.7754
 6406TIP3    H240634   6.525   6.120  11.495  0.4566 -0.0275 -0.0587
 6407TIP3   OH240635   5.682   2.383   1.478 -0.2444  0.3745  0.0729
 6407TIP3    H140636   5.739   2.315   1.443 -1.5604  0.3206 -2.1154
 6407TIP3    H240637   5.739   2.460   1.486  0.3963  0.0312 -0.9854
 6408TIP3   OH240638   2.140   5.685  15.995  0.0647  0.4386 -0.6807
 6408TIP3    H140639   2.123   5.668  15.903  2.1117 -2.3962 -0.6806
 6408TIP3    H240640   2.234   5.672  16.005 -0.1108  0.5812  1.8030
 6409TIP3   OH240641   1.856   1.133   4.442  0.6700  0.4817 -0.1514
 6409TIP3    H140642   1.911   1.199   4.486 -0.4847  0.7156  0.9975
 6409TIP3    H240643   1.903   1.114   4.361  2.3298  0.8455  0.6623
 6410TIP3   OH240644   0.540   2.975   1.944 -0.8253 -0.0609  0.6108
 6410TIP3    H140645   0.481   3.011   1.878  1.1279  1.1333 -0.5904
 6410TIP3    H240646   0.628   2.988   1.907  0.2388 -1.2011  2.5705
 6411TIP3   OH240647   4.200   4.440  12.390 -0.3989  0.4652 -0.7442
 6411TIP3    H140648   4.177   4.361  12.439 -0.6889 -0.4625 -2.3197
 6411TIP3    H240649   4.295   4.434  12.379  0.2664  2.3795  2.4712
 6412TIP3   OH240650   5.366   4.788  14.060  0.0812 -0.0953 -0.2593
 6412TIP3    H140651   5.391   4.796  13.968 -0.9098 -1.2330 -0.6546
 6412TIP3    H240652   5.310   4.863  14.076  0.4268  0.2229 -0.5150
 6413TIP3   OH240653   6.261   2.093  11.487 -0.0058  0.0107  0.1799
 6413TIP3    H140654   6.316   2.137  11.423  1.5129 -0.0161  1.3881
 6413TIP3    H240655   6.239   2.009  11.446 -0.2244  0.5562 -0.8406
 6414TIP3   OH240656   6.455   5.431  12.865 -0.0525  0.3570 -0.2548
 6414TIP3    H140657   6.458   5.336  12.866  0.6670  0.3732 -0.1872
 6414TIP3    H240658   6.397   5.453  12.792 -0.1029 -0.1269 -0.3635
 6415TIP3   OH240659   0.732   2.027   1.110 -0.3545 -0.2083  0.4035
 6415TIP3    H140660   0.810   2.034   1.165 -0.4755  1.8377  0.3648
 6415TIP3    H240661   0.658   2.039   1.170 -0.6241 -1.1297  0.2778
 6416TIP3   OH240662   2.427   0.165   4.211 -0.0048 -0.6506 -0.1852
 6416TIP3    H140663   2.356   0.205   4.262 -0.1754  2.6082 -2.6662
 6416TIP3    H240664   2.506   0.207   4.245  0.1952 -0.6281 -0.6848
 6417TIP3   OH240665   1.654   4.840   6.332  0.5996  0.2870  0.2037
 6417TIP3    H140666   1.726   4.778   6.323  0.0117 -0.4099  0.2174
 6417TIP3    H240667   1.697   4.925   6.346  1.4097 -0.4202  2.3262
 6418TIP3   OH240668   5.219   3.283  17.534 -0.5840 -0.0323 -0.4722
 6418TIP3    H140669   5.169   3.359  17.561  0.1982  0.6587 -0.9108
 6418TIP3    H240670   5.276   3.315  17.464  1.3726 -0.4384  0.8227
 6419TIP3   OH240671   2.192   5.641   3.592  0.7420  0.1454 -0.2145
 6419TIP3    H140672   2.255   5.644   3.665  0.9574 -1.5312 -0.2992
 6419TIP3    H240673   2.133   5.714   3.610  1.2614  0.2643  1.2189
 6420TIP3   OH240674   3.860   1.133  11.167  0.7756  0.3314 -0.4938
 6420TIP3    H140675   3.784   1.177  11.130  0.7386  0.6962  0.0021
 6420TIP3    H240676   3.888   1.071  11.100  0.1004  0.2680 -0.7195
 6421TIP3   OH240677   0.721   5.253  13.344  0.2766  0.0506  0.3114
 6421TIP3    H140678   0.639   5.260  13.392 -0.0468  0.1174 -0.2479
 6421TIP3    H240679   0.698   5.272  13.253  0.8911 -0.0284  0.1335
 6422TIP3   OH240680   2.228   1.034   6.518  0.4266  0.5481  0.4563
 6422TIP3    H140681   2.275   1.058   6.598  1.5880 -0.0647 -0.0309
 6422TIP3    H240682   2.252   0.943   6.502 -0.5029  0.3863 -0.1196
 6423TIP3   OH240683   3.525   4.173   4.200  0.8271 -0.1981 -0.3173
 6423TIP3    H140684   3.478   4.109   4.255 -1.4033  1.7884  0.2515
 6423TIP3    H240685   3.551   4.123   4.123  2.6318 -2.7019  1.7131
 6424TIP3   OH240686   0.925   0.349  14.178 -0.0411  0.7933  0.6351
 6424TIP3    H140687   0.934   0.419  14.113 -0.8071  1.9520  1.7284
 6424TIP3    H240688   1.014   0.333  14.208  0.1108  1.5134  0.5852
 6425TIP3   OH240689   4.763   1.747  13.776 -0.4743  0.0184 -0.7184
 6425TIP3    H140690   4.737   1.734  13.685 -0.0892  0.5653 -0.9108
 6425TIP3    H240691   4.803   1.664  13.802 -0.9908 -0.2937 -0.9029
 6426TIP3   OH240692   4.947   2.168  16.304 -0.1971  0.3404  0.2190
 6426TIP3    H140693   5.037   2.179  16.335 -0.8154  0.6411  2.0273
 6426TIP3    H240694   4.953   2.103  16.234  1.7093  2.0373 -1.3075
 6427TIP3   OH240695   2.498   6.613   3.484  0.6713 -0.3599  0.3687
 6427TIP3    H140696   2.457   6.677   3.542 -0.2138 -0.1927 -0.4300
 6427TIP3    H240697   2.530   6.545   3.544  0.0029 -0.0680  1.0725
 6428TIP3   OH240698   5.495   6.012  12.114 -0.3304  0.3054  0.2416
 6428TIP3    H140699   5.503   6.107  12.103 -0.3649  0.3439  0.5444
 6428TIP3    H240700   5.548   5.975  12.044  0.2584  0.5493  0.5546
 6429TIP3   OH240701   0.347   5.115   3.200  0.9473 -0.1722  0.2571
 6429TIP3    H140702   0.357   5.109   3.295  1.1349  0.2894  0.2725
 6429TIP3    H240703   0.253   5.116   3.186  0.9073 -1.2594  0.3584
 6430TIP3   OH240704   4.417   3.165  11.460 -0.0029 -0.0696  0.2044
 6430TIP3    H140705   4.488   3.216  11.421 -0.3059  1.5435  1.6031
 6430TIP3    H240706   4.344   3.228  11.468 -0.9799 -1.1944  0.4299
 6431TIP3   OH240707   0.035   3.833   1.509 -0.6483  0.2874  0.4338
 6431TIP3    H140708   0.023   3.756   1.453  0.7903 -0.2368  0.7757
 6431TIP3    H240709  -0.020   3.900   1.471 -0.0858 -0.1990 -1.3368
 6432TIP3   OH240710   3.535   6.220   2.919 -0.0093  0.0241  0.2794
 6432TIP3    H140711   3.540   6.145   2.979  0.6730  0.3642  0.6583
 6432TIP3    H240712   3.625   6.230   2.887 -0.2538  0.2114 -0.3529
 6433TIP3   OH240713   5.038   4.013  16.590 -0.3470  0.3888 -0.0726
 6433TIP3    H140714   5.075   4.035  16.676  1.1164  1.3890 -0.9221
 6433TIP3    H240715   5.040   4.095  16.541 -0.6134 -0.2977 -1.2614
 6434TIP3   OH240716   0.980   4.980   0.309 -0.7244 -0.0077  0.2261
 6434TIP3    H140717   1.026   4.904   0.273 -1.6726 -0.4535 -0.0761
 6434TIP3    H240718   0.912   4.943   0.364 -2.2544  0.5560 -1.1960
 6435TIP3   OH240719   2.333   3.164  12.686  0.6397 -0.0227 -0.0690
 6435TIP3    H140720   2.334   3.213  12.604  1.3033 -0.5441 -0.3725
 6435TIP3    H240721   2.330   3.072  12.661  0.1369 -0.1754  0.5002
 6436TIP3   OH240722   1.938   6.556   0.575 -0.0584  0.0703 -0.3948
 6436TIP3    H140723   1.950   6.649   0.593  0.1222  0.2152 -1.2310
 6436TIP3    H240724   1.843   6.544   0.573 -0.0855  0.0178  0.7744
 6437TIP3   OH240725   2.326   5.804  16.260 -0.1696 -0.4260  0.3895
 6437TIP3    H140726   2.387   5.773  16.326  0.5278 -0.8421 -0.4340
 6437TIP3    H240727   2.242   5.764  16.284  0.1503 -0.8420  0.8249
 6438TIP3   OH240728   5.258   4.556  13.876  0.0175 -0.1606 -0.0137
 6438TIP3    H140729   5.339   4.605  13.891 -0.4339  0.2861  1.0806
 6438TIP3    H240730   5.199   4.621  13.837  0.3324 -0.6129 -1.2658
 6439TIP3   OH240731   5.162   0.275  15.804 -0.2274  0.2381  0.8221
 6439TIP3    H140732   5.156   0.345  15.869 -0.7232 -2.1075  3.4888
 6439TIP3    H240733   5.073   0.266  15.769  0.3786  2.6964 -1.7261
 6440TIP3   OH240734   2.779   4.698  11.395  0.7331  0.4150  0.5228
 6440TIP3    H140735   2.714   4.724  11.330 -0.1589 -1.5739  0.5482
 6440TIP3    H240736   2.738   4.626  11.443  2.1023  0.5870  2.0479
 6441TIP3   OH240737   1.579   5.076  14.241  0.3034 -0.4884  0.2212
 6441TIP3    H140738   1.516   5.038  14.180  0.2594  0.2400 -0.2017
 6441TIP3    H240739   1.587   5.167  14.213  1.9847 -0.7016 -0.1054
 6442TIP3   OH240740   6.568   1.447   5.328 -0.0891  0.3272  0.2699
 6442TIP3    H140741   6.534   1.523   5.281 -0.0644 -0.3437 -0.8774
 6442TIP3    H240742   6.662   1.463   5.336 -0.2557  0.9368  1.0445
 6443TIP3   OH240743   2.721   2.424  16.132 -0.1295 -0.4994  0.3825
 6443TIP3    H140744   2.778   2.494  16.101 -1.3540  0.2425 -0.3026
 6443TIP3    H240745   2.671   2.398  16.054  0.8640 -2.7419  0.4119
 6444TIP3   OH240746   0.180   6.453   3.540 -0.1249 -0.9557  0.0433
 6444TIP3    H140747   0.111   6.393   3.514 -0.4149 -0.8989  0.6760
 6444TIP3    H240748   0.231   6.405   3.605  0.2104 -0.8554 -0.1389
 6445TIP3   OH240749   3.594   5.473  15.789 -0.2508  0.3132 -0.3069
 6445TIP3    H140750   3.582   5.560  15.828  1.4446 -0.4819  2.1931
 6445TIP3    H240751   3.560   5.413  15.855  0.0220 -0.9962 -1.3374
 6446TIP3   OH240752   0.154   5.629   3.229 -0.5751  0.2651 -1.0207
 6446TIP3    H140753   0.185   5.672   3.308 -1.6562 -1.9662  0.7308
 6446TIP3    H240754   0.094   5.692   3.189 -2.3378  0.4134  1.5790
 6447TIP3   OH240755   2.995   4.623  13.228 -0.3801 -0.2929  0.1869
 6447TIP3    H140756   2.928   4.682  13.193 -0.8587 -1.1573 -0.4090
 6447TIP3    H240757   3.077   4.658  13.194 -0.7605 -0.6251 -1.1770
 6448TIP3   OH240758   3.130   3.336   6.511  0.3034  0.1793  0.3307
 6448TIP3    H140759   3.114   3.291   6.594  0.4221 -0.4348  0.0226
 6448TIP3    H240760   3.132   3.429   6.535  1.8372 -0.0565  1.2761
 6449TIP3   OH240761   4.989   1.638  14.846  1.1135 -0.3747  0.5267
 6449TIP3    H140762   5.080   1.642  14.877  1.2840  0.7175 -0.0829
 6449TIP3    H240763   4.956   1.555  14.881  2.0134 -0.2888  1.6471
 6450TIP3   OH240764   3.838   3.933  12.686 -0.4902  0.5967 -0.0424
 6450TIP3    H140765   3.915   3.949  12.631 -1.2646  1.9599 -0.7829
 6450TIP3    H240766   3.872   3.930  12.775  0.4837  0.6316 -0.4048
 6451TIP3   OH240767   0.962   2.383   0.510  0.4839  0.2024  0.0896
 6451TIP3    H140768   0.932   2.311   0.565  1.2187 -0.2127 -0.0459
 6451TIP3    H240769   1.024   2.343   0.449 -0.9743  0.4922 -1.6430
 6452TIP3   OH240770   2.311   6.557   5.667  0.0270  0.4801  0.6276
 6452TIP3    H140771   2.354   6.642   5.675  3.8830 -1.4252  3.2419
 6452TIP3    H240772   2.283   6.536   5.756  3.6423 -2.8624  1.2292
 6453TIP3   OH240773   3.994   0.594   5.170 -0.1320 -0.4057  0.1566
 6453TIP3    H140774   4.068   0.554   5.124 -0.3170 -2.0922  1.2658
 6453TIP3    H240775   3.923   0.596   5.105  0.9109  1.6068 -1.0553
 6454TIP3   OH240776   2.207   1.797  15.189  0.1264  0.3208 -0.0436
 6454TIP3    H140777   2.259   1.813  15.268  0.5412 -0.9797 -0.0321
 6454TIP3    H240778   2.120   1.832  15.211 -0.1623 -1.2369  1.5486
 6455TIP3   OH240779   2.860   6.621   0.732 -0.5818  0.2552 -0.0742
 6455TIP3    H140780   2.844   6.536   0.691 -0.7281  0.2696 -0.0482
 6455TIP3    H240781   2.824   6.612   0.821 -0.9929  0.4850 -0.2148
 6456TIP3   OH240782   2.584   0.714  13.347  0.8991 -0.0014 -0.2992
 6456TIP3    H140783   2.552   0.663  13.421  2.9900 -2.2085 -0.7997
 6456TIP3    H240784   2.602   0.800  13.384  0.5201 -0.6136  1.4114
 6457TIP3   OH240785   4.250   5.555  13.709  0.2534  0.0118  0.4962
 6457TIP3    H140786   4.275   5.629  13.653 -1.9576  0.8010  0.4803
 6457TIP3    H240787   4.287   5.577  13.795 -1.3872  1.7976  0.8138
 6458TIP3   OH240788   6.459   3.806   1.471  0.2343  0.8774  0.0773
 6458TIP3    H140789   6.471   3.766   1.557 -3.3196  0.7795  0.6378
 6458TIP3    H240790   6.449   3.732   1.411  1.1754  0.9633 -0.2086
 6459TIP3   OH240791   3.343   5.294   6.585 -0.0858 -0.0067  0.5045
 6459TIP3    H140792   3.302   5.348   6.516 -0.9503 -1.5323 -0.2380
 6459TIP3    H240793   3.396   5.231   6.537 -0.7845 -1.1621  1.2045
 6460TIP3   OH240794   2.411   0.105   3.620 -0.0933  0.1474 -0.3954
 6460TIP3    H140795   2.425   0.138   3.709 -0.0586 -0.1244 -0.3003
 6460TIP3    H240796   2.322   0.071   3.622  0.1474 -0.4893 -0.2678
 6461TIP3   OH240797   2.889   2.982  17.190  0.6188 -0.1303  0.5579
 6461TIP3    H140798   2.985   2.986  17.190  0.6771 -1.0796  1.9632
 6461TIP3    H240799   2.869   2.889  17.191 -0.2881  0.0580  2.3969
 6462TIP3   OH240800   1.697   6.078  16.644  0.3819  0.0377 -0.2373
 6462TIP3    H140801   1.671   6.018  16.574 -0.1973  0.3277 -0.2752
 6462TIP3    H240802   1.687   6.027  16.724 -0.3081  0.1355 -0.2521
 6463TIP3   OH240803   4.109   6.477  14.234 -0.0099  0.0476  0.8240
 6463TIP3    H140804   4.127   6.459  14.142 -1.6035 -2.1730  0.8455
 6463TIP3    H240805   4.169   6.547  14.258  1.4777 -0.3433 -1.4991
 6464TIP3   OH240806   4.127   3.169  11.649 -0.4510 -0.1711 -0.2401
 6464TIP3    H140807   4.128   3.098  11.584  0.5202  1.3926 -2.0380
 6464TIP3    H240808   4.128   3.249  11.596 -2.7083  1.2461  1.6802
 6465TIP3   OH240809   6.126   4.077   6.787 -0.4290  0.1858 -0.7165
 6465TIP3    H140810   6.183   4.152   6.770 -1.6917  1.4041  0.2859
 6465TIP3    H240811   6.178   4.020   6.844 -0.0263  1.0412 -0.2091
 6466TIP3   OH240812   5.237   4.550  13.009  0.5512  0.4536  0.0028
 6466TIP3    H140813   5.262   4.595  12.928 -0.9536 -0.6222 -1.1140
 6466TIP3    H240814   5.217   4.460  12.981  0.8040 -0.1695  1.7172
 6467TIP3   OH240815   0.134   3.175  17.326 -0.3015  0.0172 -0.3461
 6467TIP3    H140816   0.157   3.268  17.323 -1.0812  0.2001 -2.3593
 6467TIP3    H240817   0.217   3.129  17.325  0.1055  0.6816  1.2163
 6468TIP3   OH240818   5.593   3.016  15.654  0.0919  0.0684 -0.2874
 6468TIP3    H140819   5.539   2.940  15.675  0.7406 -0.2438  0.2789
 6468TIP3    H240820   5.541   3.064  15.589 -0.8430 -0.2423  0.1992
 6469TIP3   OH240821   5.379   3.337   1.654  0.2182  0.1080  0.3008
 6469TIP3    H140822   5.402   3.334   1.561 -1.1839 -2.3828 -0.0664
 6469TIP3    H240823   5.413   3.255   1.689  0.3685  0.8291  1.9357
 6470TIP3   OH240824   5.578   5.040  14.259 -0.3580 -0.3309 -0.0282
 6470TIP3    H140825   5.654   4.986  14.238 -0.5611 -1.7775  2.6203
 6470TIP3    H240826   5.562   5.090  14.179  2.8432 -0.5700 -0.9534
 6471TIP3   OH240827   3.059   3.767   3.965  0.2203 -0.0945  0.1264
 6471TIP3    H140828   3.109   3.712   3.905 -0.0694 -0.7454  0.4680
 6471TIP3    H240829   3.124   3.826   4.004  0.3382  0.6317 -1.1321
 6472TIP3   OH240830   0.744   5.052   1.653 -0.3940  0.4136 -0.6528
 6472TIP3    H140831   0.765   5.136   1.693 -0.7799  0.4667 -0.5590
 6472TIP3    H240832   0.651   5.058   1.630 -0.8300 -0.5371  0.7110
 6473TIP3   OH240833   5.518   3.816   5.763 -0.5867 -0.0582  0.1556
 6473TIP3    H140834   5.562   3.900   5.749 -0.7743  0.1672  0.8512
 6473TIP3    H240835   5.551   3.759   5.693  0.9936  0.0254  0.7962
 6474TIP3   OH240836   0.225   1.483   0.991  0.7386 -0.0920 -0.2371
 6474TIP3    H140837   0.296   1.546   1.009 -0.3756  0.9982  0.4816
 6474TIP3    H240838   0.148   1.537   0.977 -0.1457 -1.2920 -0.1559
 6475TIP3   OH240839   6.569   4.422   2.092 -0.2507 -0.1953  0.0626
 6475TIP3    H140840   6.654   4.462   2.075 -0.4811 -0.4337 -1.8233
 6475TIP3    H240841   6.517   4.492   2.131  0.0743  0.6763 -1.0197
 6476TIP3   OH240842   4.342   3.804   6.125  0.0657 -0.4429  0.2195
 6476TIP3    H140843   4.249   3.793   6.144 -0.3671 -0.0159 -1.5412
 6476TIP3    H240844   4.346   3.833   6.034  1.9858 -1.6809 -0.1590
 6477TIP3   OH240845   5.517   2.974   6.276  0.2518 -0.3206 -0.3516
 6477TIP3    H140846   5.569   2.955   6.354  0.1579  1.0902  0.0831
 6477TIP3    H240847   5.582   2.992   6.208  0.4590  2.5589  0.4639
 6478TIP3   OH240848   0.809   4.164   5.365 -0.3984  0.1620 -0.1327
 6478TIP3    H140849   0.723   4.206   5.369 -0.2352  0.6964 -1.6237
 6478TIP3    H240850   0.835   4.154   5.457 -1.1423  1.9021  0.3140
 6479TIP3   OH240851   5.595   5.116  13.305  0.0789  0.1183  0.5739
 6479TIP3    H140852   5.572   5.166  13.227 -1.2867 -1.7571 -0.3240
 6479TIP3    H240853   5.512   5.078  13.334  0.6832  0.1986  2.5432
 6480TIP3   OH240854   0.083   5.848  16.878 -0.2580 -0.7358 -0.3699
 6480TIP3    H140855   0.026   5.778  16.908 -1.4765  0.1152 -0.6255
 6480TIP3    H240856   0.024   5.922  16.860  0.9448  0.2523 -0.4233
 6481TIP3   OH240857   3.076   4.176   4.661 -0.1353 -0.0295 -0.2081
 6481TIP3    H140858   3.032   4.096   4.690 -1.1334  0.6309  0.1886
 6481TIP3    H240859   3.084   4.167   4.567  1.0530 -1.2051 -0.0215
 6482TIP3   OH240860   4.446   4.763   2.451  0.1157 -0.5738  0.1158
 6482TIP3    H140861   4.512   4.757   2.382 -1.4417  1.4037 -1.6886
 6482TIP3    H240862   4.497   4.765   2.533  2.3217  1.0535 -1.1842
 6483TIP3   OH240863   2.186   3.156   4.088 -0.8061  0.4953 -0.1233
 6483TIP3    H140864   2.128   3.115   4.023 -0.3241  1.8265 -1.4483
 6483TIP3    H240865   2.128   3.214   4.138 -1.4659 -1.5884  1.6746
 6484TIP3   OH240866   5.156   3.349  16.355 -0.4916 -0.1060  0.3416
 6484TIP3    H140867   5.213   3.296  16.411 -0.6063 -1.7661 -1.0151
 6484TIP3    H240868   5.207   3.426  16.334  0.7784 -0.9615  0.1744
 6485TIP3   OH240869   4.869   4.914   3.704  0.0480 -0.1853 -0.4321
 6485TIP3    H140870   4.846   4.823   3.691 -0.1456  0.0017 -1.4508
 6485TIP3    H240871   4.789   4.955   3.737 -0.4676  0.0029 -1.8393
 6486TIP3   OH240872   3.409   1.574  16.288  0.2881 -0.2032  0.3095
 6486TIP3    H140873   3.411   1.539  16.377  0.0405 -1.0755 -0.0173
 6486TIP3    H240874   3.487   1.629  16.282 -0.3876  0.9780  1.4914
 6487TIP3   OH240875   0.851   5.677  16.919 -0.1500 -0.1037 -0.0107
 6487TIP3    H140876   0.868   5.597  16.968 -0.6255 -0.2171 -0.0231
 6487TIP3    H240877   0.756   5.689  16.926  0.1038  1.4225  1.5006
 6488TIP3   OH240878   0.936   2.464  14.225  0.4353 -0.0585 -0.7468
 6488TIP3    H140879   0.900   2.415  14.299  1.4743 -0.5768 -0.5615
 6488TIP3    H240880   0.865   2.466  14.161 -0.1218 -0.5291 -0.1595
 6489TIP3   OH240881   6.014   0.756  13.026 -0.1376  0.0343 -0.6604
 6489TIP3    H140882   5.990   0.698  13.098  0.5606 -0.4653 -0.8140
 6489TIP3    H240883   6.020   0.843  13.065 -0.8322 -0.0555 -0.3484
 6490TIP3   OH240884   5.157   3.366  16.826  0.2870 -0.2204 -0.6854
 6490TIP3    H140885   5.239   3.354  16.778  1.9790  2.5301  1.2398
 6490TIP3    H240886   5.180   3.423  16.900 -3.1140 -0.4086  0.6994
 6491TIP3   OH240887   2.268   0.244  13.106 -0.0803  0.6324  0.1831
 6491TIP3    H140888   2.220   0.168  13.139  0.4033 -0.4336 -1.4367
 6491TIP3    H240889   2.204   0.314  13.104 -1.5749 -0.6834 -1.6696
 6492TIP3   OH240890   6.422   0.153   3.543  0.3265 -0.2854 -0.3689
 6492TIP3    H140891   6.481   0.118   3.609  1.2634  0.2623 -0.8938
 6492TIP3    H240892   6.351   0.194   3.592  1.1434  0.3431  0.3053
 6493TIP3   OH240893   3.849   0.319   4.806  0.7287  0.0964  0.1696
 6493TIP3    H140894   3.801   0.385   4.857 -3.6569 -1.6713 -1.2082
 6493TIP3    H240895   3.862   0.360   4.720  0.9711  0.3032  0.3038
 6494TIP3   OH240896   0.676   5.567  13.944 -0.5266  0.2497 -0.0660
 6494TIP3    H140897   0.619   5.527  14.010 -0.4717  1.4678  0.7391
 6494TIP3    H240898   0.617   5.590  13.872 -1.7962  4.3607  1.9899
 6495TIP3   OH240899   3.245   4.081  13.385 -0.2475 -0.9034  0.0844
 6495TIP3    H140900   3.294   4.112  13.309  0.3163 -2.8224 -0.3984
 6495TIP3    H240901   3.274   3.990  13.396  0.4418 -0.4150  3.2099
 6496TIP3   OH240902   3.472   4.201   0.784  0.1554  0.9477 -0.5273
 6496TIP3    H140903   3.428   4.284   0.798 -0.3947  0.7917 -1.2516
 6496TIP3    H240904   3.503   4.205   0.693  1.1791  0.8435 -0.1962
 6497TIP3   OH240905   5.415   3.602  16.293 -0.0991  0.2333  0.9123
 6497TIP3    H140906   5.478   3.664  16.258  0.1619 -0.6137 -0.1876
 6497TIP3    H240907   5.336   3.615  16.240  0.4968 -1.4854 -0.4791
 6498TIP3   OH240908   1.633   2.338  14.972 -0.2869 -0.4203 -0.0778
 6498TIP3    H140909   1.667   2.335  15.061  0.9626  0.2676 -0.5122
 6498TIP3    H240910   1.658   2.253  14.934 -1.8423 -1.2042  0.5493
 6499TIP3   OH240911   3.055   4.583   2.527  0.1988 -0.2230  0.5129
 6499TIP3    H140912   3.056   4.573   2.432 -0.3786 -0.0961  0.4851
 6499TIP3    H240913   3.079   4.675   2.541 -1.2127  0.1992  0.3915
 6500TIP3   OH240914   0.961   4.109   3.712 -0.2042 -0.6617  0.5222
 6500TIP3    H140915   0.952   4.015   3.727 -2.1574 -0.4794  0.6700
 6500TIP3    H240916   1.050   4.118   3.678  0.6629 -2.3293  2.1478
 6501TIP3   OH240917   0.209   2.355  14.930 -0.1280 -0.0249 -0.0737
 6501TIP3    H140918   0.185   2.272  14.891  0.1837 -0.3893  0.4886
 6501TIP3    H240919   0.232   2.411  14.856 -1.9568  0.1149 -0.5720
 6502TIP3   OH240920   1.590   5.430  13.914  0.0007 -0.2293 -0.2691
 6502TIP3    H140921   1.550   5.370  13.851  0.1109 -0.5649 -0.0236
 6502TIP3    H240922   1.595   5.514  13.868 -0.4243 -0.3360 -0.5110
 6503TIP3   OH240923   1.237   6.534  16.375  0.2458 -0.0702 -0.3126
 6503TIP3    H140924   1.289   6.612  16.353 -1.3157  2.0895  2.8908
 6503TIP3    H240925   1.301   6.466  16.394  1.6588  0.3611 -3.0028
 6504TIP3   OH240926   2.789   1.469  17.044 -0.8317 -0.0505 -0.2192
 6504TIP3    H140927   2.773   1.562  17.057 -0.2571  0.1813 -1.0624
 6504TIP3    H240928   2.870   1.466  16.993 -0.9091 -1.0045 -0.3009
 6505TIP3   OH240929   4.806   6.249   1.876  0.5757  0.4758  0.2285
 6505TIP3    H140930   4.746   6.320   1.899 -0.8592 -0.3584 -0.7422
 6505TIP3    H240931   4.876   6.292   1.827  1.3204  1.6019  2.1669
 6506TIP3   OH240932   3.665   4.053  15.241  0.2192 -0.1206 -0.0488
 6506TIP3    H140933   3.625   4.135  15.270  1.6621  0.7187 -0.3223
 6506TIP3    H240934   3.725   4.080  15.172  1.3893 -1.2984  0.4803
 6507TIP3   OH240935   4.415   2.659   3.345 -0.3206  0.0834 -0.2344
 6507TIP3    H140936   4.408   2.585   3.406 -0.8540 -0.3549 -0.8075
 6507TIP3    H240937   4.478   2.718   3.386  0.2090 -0.7431  0.1881
 6508TIP3   OH240938   2.493   3.099   2.332 -0.3830 -0.0069 -0.3347
 6508TIP3    H140939   2.449   3.160   2.391  0.7013 -0.0141  0.4978
 6508TIP3    H240940   2.528   3.153   2.262 -1.1939  0.0678 -0.6937
 6509TIP3   OH240941   3.892   3.440   0.368 -0.2821  0.0090 -0.0437
 6509TIP3    H140942   3.909   3.366   0.310 -2.7071 -0.2009 -0.6181
 6509TIP3    H240943   3.959   3.505   0.346  0.6127 -1.2119 -0.9956
 6510TIP3   OH240944   2.608   0.976  13.405  0.2491  0.0525  0.4080
 6510TIP3    H140945   2.601   1.029  13.325 -0.9452  0.2385  0.6197
 6510TIP3    H240946   2.533   1.003  13.458 -0.0266 -1.3971  0.7952
 6511TIP3   OH240947   2.439   0.022  11.596 -0.4680 -0.0139 -0.2733
 6511TIP3    H140948   2.442   0.034  11.502 -0.6997 -1.2500 -0.4592
 6511TIP3    H240949   2.398  -0.064  11.608 -1.0330  0.3958  0.9721
 6512TIP3   OH240950   3.703   1.480   0.860  0.6568 -0.7749  0.0971
 6512TIP3    H140951   3.720   1.415   0.928 -2.0744 -1.0732  0.6252
 6512TIP3    H240952   3.686   1.429   0.781 -1.3392 -0.8005  0.4775
 6513TIP3   OH240953   5.837   1.773   4.942  0.0914  0.0337  0.1861
 6513TIP3    H140954   5.925   1.798   4.969 -0.4463  0.4938  1.6449
 6513TIP3    H240955   5.849   1.725   4.860  1.6306  0.5892  0.0507
 6514TIP3   OH240956   2.981   5.620   0.210  0.0809 -0.1171 -0.0317
 6514TIP3    H140957   2.905   5.626   0.152  0.3565  0.4717 -0.3420
 6514TIP3    H240958   3.024   5.539   0.184 -0.4098 -0.4324  0.1139
 6515TIP3   OH240959   0.488   1.737  12.292 -0.1672 -0.2267 -0.0041
 6515TIP3    H140960   0.571   1.751  12.338  0.4172  0.3685 -1.2122
 6515TIP3    H240961   0.507   1.754  12.200 -1.4455 -0.8661 -0.4216
 6516TIP3   OH240962   3.928   1.079  14.837 -0.8578 -0.1842  0.8091
 6516TIP3    H140963   3.895   1.087  14.926 -3.4335 -1.5457  0.0732
 6516TIP3    H240964   3.902   0.991  14.810  0.5732 -0.0986 -1.0379
 6517TIP3   OH240965   3.698   4.149  11.609 -0.7181  0.3890 -0.0413
 6517TIP3    H140966   3.636   4.165  11.537 -0.6292  0.1053 -0.1831
 6517TIP3    H240967   3.778   4.194  11.582 -0.8404  0.7016  0.1128
 6518TIP3   OH240968   3.764   1.845   3.485  0.4047 -0.0527 -0.0385
 6518TIP3    H140969   3.704   1.839   3.558 -0.4993 -1.2498 -0.8520
 6518TIP3    H240970   3.744   1.769   3.430 -0.4049  1.8878 -2.6080
 6519TIP3   OH240971   3.692   6.670  11.515 -0.5125 -0.2398  0.1912
 6519TIP3    H140972   3.686   6.616  11.437  0.0503  1.1514 -0.8667
 6519TIP3    H240973   3.712   6.758  11.482 -1.5609  0.6691  1.8133
 6520TIP3   OH240974   2.595   5.780  13.531 -0.1130  0.4202  0.3116
 6520TIP3    H140975   2.604   5.786  13.626 -1.2347 -0.1358  0.4722
 6520TIP3    H240976   2.660   5.715  13.505  0.7214  1.1209  0.5864
 6521TIP3   OH240977   6.600   3.312   4.522  0.3791 -0.2624  0.3291
 6521TIP3    H140978   6.624   3.351   4.606  0.9998  2.4713 -1.0237
 6521TIP3    H240979   6.683   3.281   4.485  0.2361 -0.6660  0.3444
 6522TIP3   OH240980   1.851   0.863   1.780 -0.1565 -0.3757 -0.5716
 6522TIP3    H140981   1.882   0.795   1.720 -0.0737 -0.0918 -0.8513
 6522TIP3    H240982   1.814   0.930   1.724  1.5235  0.7220 -0.4333
 6523TIP3   OH240983   2.355   1.505  13.569  0.3411 -0.7766 -0.8067
 6523TIP3    H140984   2.266   1.518  13.537  0.1554 -0.3414 -0.1357
 6523TIP3    H240985   2.350   1.423  13.619  0.7106 -1.6374 -2.1579
 6524TIP3   OH240986   6.678   3.380  15.184  0.0902 -0.4710 -0.5135
 6524TIP3    H140987   6.629   3.298  15.191 -0.2850 -0.1185  2.2342
 6524TIP3    H240988   6.637   3.437  15.249  0.2977  1.9633 -2.4072
 6525TIP3   OH240989   0.560   6.573   5.560  0.5372  0.2228  0.0691
 6525TIP3    H140990   0.494   6.511   5.590  0.9857 -0.4407 -0.2803
 6525TIP3    H240991   0.535   6.656   5.599 -0.8002  0.1022 -0.5051
 6526TIP3   OH240992   5.440   5.310   3.720 -0.6236 -0.1656 -0.4058
 6526TIP3    H140993   5.423   5.251   3.647  0.5618 -0.4291 -0.4903
 6526TIP3    H240994   5.488   5.256   3.784  2.6072  1.1829 -1.4551
 6527TIP3   OH240995   3.818   3.376   1.425  0.4375 -0.1109 -0.2109
 6527TIP3    H140996   3.828   3.463   1.384  1.1659 -0.8060 -1.5871
 6527TIP3    H240997   3.862   3.385   1.509 -0.8636  1.2891  0.3742
 6528TIP3   OH240998   2.555   4.913  14.991 -0.1387  0.3324 -0.1164
 6528TIP3    H140999   2.566   4.992  15.046 -3.7095 -0.2002  1.6453
 6528TIP3    H241000   2.621   4.852  15.024 -0.1617  1.1176  1.4873
 6529TIP3   OH241001   4.075   2.187  12.765  0.3810 -0.3189  0.1088
 6529TIP3    H141002   4.126   2.107  12.750 -0.4910 -0.6337 -1.4855
 6529TIP3    H241003   4.121   2.254  12.715  0.9215  0.1157  1.1704
 6530TIP3   OH241004   2.407   2.714  16.323 -0.4000 -0.0604  0.0889
 6530TIP3    H141005   2.442   2.754  16.244  0.2949  1.4061  1.0856
 6530TIP3    H241006   2.312   2.718  16.313 -0.3178  0.4966 -0.4908
 6531TIP3   OH241007   3.642   2.884  17.566  0.4260  0.0999 -0.0489
 6531TIP3    H141008   3.608   2.796  17.551  0.3332  0.3356 -1.3141
 6531TIP3    H241009   3.688   2.907  17.486 -1.5949  2.1154 -0.7667
 6532TIP3   OH241010   6.659   1.960  12.804 -0.2306 -0.2823  0.0873
 6532TIP3    H141011   6.672   2.053  12.784  1.0311 -0.5774 -0.5298
 6532TIP3    H241012   6.710   1.914  12.738 -2.5993 -1.5045 -1.0302
 6533TIP3   OH241013   3.847   5.179  12.156 -0.1196  0.1320 -0.0836
 6533TIP3    H141014   3.929   5.219  12.184  0.5760 -0.6299 -0.9962
 6533TIP3    H241015   3.842   5.098  12.206  1.2717 -1.3832 -2.2332
 6534TIP3   OH241016   4.688   6.133   2.517 -0.6377 -0.1176 -0.4805
 6534TIP3    H141017   4.655   6.085   2.592 -2.4569  0.5052 -0.8475
 6534TIP3    H241018   4.715   6.065   2.455 -1.7998 -0.6561 -0.4095
 6535TIP3   OH241019   5.330   5.476  15.719  0.1020 -0.1065  0.0069
 6535TIP3    H141020   5.341   5.551  15.778 -0.5351  0.5250 -0.6687
 6535TIP3    H241021   5.327   5.401  15.777 -2.6450  0.6565  1.0214
 6536TIP3   OH241022   4.722   0.543   1.133 -0.1129  0.4213 -0.1674
 6536TIP3    H141023   4.637   0.508   1.105 -0.0697  0.1422  0.0350
 6536TIP3    H241024   4.719   0.635   1.110 -0.2801  0.3092 -0.6105
 6537TIP3   OH241025   0.310   5.250   5.970 -0.3811 -0.2879 -0.0501
 6537TIP3    H141026   0.341   5.175   6.020 -0.2134  0.1860  0.5602
 6537TIP3    H241027   0.368   5.322   5.995  0.3634 -0.2728 -1.6988
 6538TIP3   OH241028   0.458   1.821  11.298  0.1623  0.7011  0.1819
 6538TIP3    H141029   0.422   1.735  11.277 -0.3591  0.7641  0.7937
 6538TIP3    H241030   0.553   1.808  11.295  0.0916  0.0888  0.3111
 6539TIP3   OH241031   3.972   0.436   0.781 -0.6139  0.7716  0.4810
 6539TIP3    H141032   4.063   0.438   0.812 -0.2763 -0.7904 -0.3495
 6539TIP3    H241033   3.929   0.505   0.832  0.4504 -0.0867  2.6934
 6540TIP3   OH241034   4.638   2.763   4.740 -0.5858  0.1405 -0.4230
 6540TIP3    H141035   4.668   2.672   4.737 -1.2781 -0.1860  1.1498
 6540TIP3    H241036   4.601   2.779   4.653 -0.5607 -1.1290 -0.6891
 6541TIP3   OH241037   4.268   2.672  16.806  0.1745  0.4379 -0.1348
 6541TIP3    H141038   4.333   2.626  16.754 -0.6597 -0.6332 -0.2480
 6541TIP3    H241039   4.281   2.640  16.895 -3.1259 -3.4439 -0.7682
 6542TIP3   OH241040   6.178   6.286   1.940 -0.7508  0.1560  0.6672
 6542TIP3    H141041   6.246   6.286   2.007  0.5179 -2.7277 -0.4475
 6542TIP3    H241042   6.200   6.360   1.884  0.1416  0.5952  1.5643
 6543TIP3   OH241043   5.020   0.749   3.517 -0.0656  0.6497  0.2733
 6543TIP3    H141044   5.057   0.791   3.595 -2.6842  0.5253  1.6921
 6543TIP3    H241045   4.967   0.678   3.551 -0.6040  0.0369 -1.7238
 6544TIP3   OH241046   6.619   5.271  16.095  0.0419  0.0750  0.7434
 6544TIP3    H141047   6.608   5.355  16.051  0.1959 -0.4630 -0.3601
 6544TIP3    H241048   6.554   5.271  16.165 -0.3244  0.8865  0.4055
 6545TIP3   OH241049   6.286   4.187  13.360  0.8420  0.0112  0.3558
 6545TIP3    H141050   6.288   4.136  13.279  2.2739 -1.2978  1.1612
 6545TIP3    H241051   6.234   4.135  13.420  1.4814 -0.0224  0.8867
 6546TIP3   OH241052   4.672   6.203   5.826  0.2452 -0.0937 -0.0298
 6546TIP3    H141053   4.608   6.145   5.784 -2.6721  3.5615 -1.1075
 6546TIP3    H241054   4.732   6.227   5.755  0.4742 -0.4786  0.0280
 6547TIP3   OH241055   4.892   1.498   5.818  0.2033 -0.4095 -0.1276
 6547TIP3    H141056   4.978   1.467   5.790  0.1213 -2.1988  1.3972
 6547TIP3    H241057   4.833   1.424   5.803 -0.9649  0.5888 -0.5982
 6548TIP3   OH241058   6.415   3.670  12.782  0.1628  0.2606  0.4313
 6548TIP3    H141059   6.466   3.731  12.835 -1.2617  0.8062  1.2304
 6548TIP3    H241060   6.324   3.690  12.803 -0.4046 -0.6202 -1.0134
 6549TIP3   OH241061   6.544   4.128  15.366  0.3844  0.8916  0.4532
 6549TIP3    H141062   6.531   4.221  15.348  0.0950  0.5654 -1.1412
 6549TIP3    H241063   6.458   4.088  15.351  1.0066  0.0570 -1.1132
 6550TIP3   OH241064   6.376   5.886   4.633 -0.1250  0.4307  0.4859
 6550TIP3    H141065   6.383   5.861   4.725  0.4318  1.3896  0.7175
 6550TIP3    H241066   6.283   5.881   4.614 -0.1078 -1.2500  0.6589
 6551TIP3   OH241067   2.793   4.375   3.194 -0.1984 -0.0731  0.7766
 6551TIP3    H141068   2.801   4.342   3.284 -0.0436 -0.8787  0.4720
 6551TIP3    H241069   2.717   4.328   3.158 -0.3121  0.3085  0.5085
 6552TIP3   OH241070   3.536   6.035  17.038 -0.3685  0.0069 -1.1146
 6552TIP3    H141071   3.493   6.101  17.093 -0.4915 -0.2614 -0.8859
 6552TIP3    H241072   3.614   6.080  17.004 -1.1692  0.7109 -2.0729
 6553TIP3   OH241073   2.692   2.550  10.987  0.0558 -0.4355 -0.5634
 6553TIP3    H141074   2.629   2.498  10.938  0.0969 -0.0088 -1.0808
 6553TIP3    H241075   2.703   2.630  10.935  0.5940 -0.2611 -0.1936
 6554TIP3   OH241076   5.294   2.918   2.663  0.2195 -0.1969  0.1190
 6554TIP3    H141077   5.284   3.000   2.615 -0.2518 -1.0314 -1.2920
 6554TIP3    H241078   5.262   2.851   2.602 -0.3857 -1.3285  1.6046
 6555TIP3   OH241079   1.992   3.781   0.121 -0.5440 -0.4826 -0.4019
 6555TIP3    H141080   2.064   3.833   0.156 -0.8852 -0.0398 -0.3473
 6555TIP3    H241081   2.027   3.741   0.041 -0.1794 -0.4306 -0.2705
 6556TIP3   OH241082   3.933   2.680   0.298  0.1556 -0.8212 -0.1751
 6556TIP3    H141083   4.002   2.725   0.249 -0.1494 -1.2765 -1.0424
 6556TIP3    H241084   3.918   2.735   0.375  0.8563 -0.2525 -0.4335
 6557TIP3   OH241085   4.762   3.059   5.747 -0.3205 -0.0159 -0.2358
 6557TIP3    H141086   4.694   3.010   5.794 -0.1890  2.3642  2.7593
 6557TIP3    H241087   4.843   3.037   5.792  0.6179 -1.1120 -2.3579
 6558TIP3   OH241088   6.322   0.256  12.657  0.0176 -0.4062 -0.3529
 6558TIP3    H141089   6.295   0.295  12.741 -0.0875 -0.9129 -0.1494
 6558TIP3    H241090   6.372   0.325  12.614 -0.1261 -0.0598  0.0271
 6559TIP3   OH241091   4.621   3.872  15.004 -0.4729  0.5330 -0.0083
 6559TIP3    H141092   4.619   3.805  15.072 -1.1338 -1.2824 -1.7275
 6559TIP3    H241093   4.533   3.911  15.005 -0.4373  0.6076  0.2549
 6560TIP3   OH241094   1.558   3.554   3.928  0.5977 -0.6862 -0.0558
 6560TIP3    H141095   1.606   3.552   4.011  1.1453  0.4966 -0.3122
 6560TIP3    H241096   1.624   3.534   3.861  0.4102 -0.5178 -0.2959
 6561TIP3   OH241097   2.801   3.072   2.360  0.1578  0.1703  0.1688
 6561TIP3    H141098   2.756   3.134   2.417 -1.4308 -0.3007 -0.5267
 6561TIP3    H241099   2.799   2.989   2.408 -0.9946 -0.1772 -0.4526
 6562TIP3   OH241100   2.820   4.432  12.119 -0.2363 -0.0194 -0.0125
 6562TIP3    H141101   2.835   4.386  12.201  1.6797  0.5515 -0.0029
 6562TIP3    H241102   2.902   4.424  12.071 -0.6585  1.3282 -1.0341
 6563TIP3   OH241103   1.779   1.199   4.735 -0.0089 -0.0248  0.3369
 6563TIP3    H141104   1.737   1.279   4.705 -0.3652 -0.4678 -0.3984
 6563TIP3    H241105   1.741   1.182   4.821  0.4414  0.8551  0.7197
 6564TIP3   OH241106   2.176   5.458  14.285  0.3523 -0.0070  0.3743
 6564TIP3    H141107   2.226   5.385  14.249  1.5476  1.7435 -1.8108
 6564TIP3    H241108   2.188   5.451  14.379  2.1173 -1.4790  0.1024
 6565TIP3   OH241109   5.277   4.349   4.020  0.4135  0.3671  0.8657
 6565TIP3    H141110   5.328   4.271   4.042 -0.0479 -0.2239 -0.0858
 6565TIP3    H241111   5.186   4.324   4.038  0.2851  0.7764  0.7972
 6566TIP3   OH241112   0.210   5.313   6.359  0.3234 -0.2496  0.4963
 6566TIP3    H141113   0.142   5.307   6.292 -0.5866  1.7717  1.1513
 6566TIP3    H241114   0.283   5.357   6.316 -0.1121  0.6791  0.6551
 6567TIP3   OH241115   4.306   3.285  14.678  0.1129  0.0621 -0.3372
 6567TIP3    H141116   4.285   3.243  14.595 -1.3319  2.1006 -1.0878
 6567TIP3    H241117   4.402   3.293  14.677  0.1341 -0.0719 -1.7585
 6568TIP3   OH241118   0.199   0.469  11.344  0.2633 -0.1836 -0.0346
 6568TIP3    H141119   0.280   0.438  11.385 -0.1056 -1.2185 -0.0671
 6568TIP3    H241120   0.227   0.498  11.257  0.7304  0.2375  0.2512
 6569TIP3   OH241121   3.996   0.326  16.779  0.3787 -0.2463 -0.3003
 6569TIP3    H141122   3.933   0.315  16.708 -1.1801 -0.6268  1.0892
 6569TIP3    H241123   3.955   0.387  16.839  2.3196  1.2485 -0.3720
 6570TIP3   OH241124   2.908   2.883   3.128  0.2688  0.1103  0.0545
 6570TIP3    H141125   2.838   2.943   3.100  0.0703  0.5586  1.4645
 6570TIP3    H241126   2.988   2.936   3.123  0.5789 -0.4434 -1.6977
 6571TIP3   OH241127   2.411   4.517  16.261  0.0209 -0.3315  0.6903
 6571TIP3    H141128   2.407   4.468  16.178  0.9065 -1.6394  1.3874
 6571TIP3    H241129   2.485   4.479  16.308 -1.9191 -1.3815  3.1518
 6572TIP3   OH241130   1.007   5.269   2.060  0.1106  0.0317  0.3313
 6572TIP3    H141131   1.011   5.315   1.976 -2.4069 -3.2739 -1.8678
 6572TIP3    H241132   1.098   5.264   2.089  0.9378  2.3657 -1.5590
 6573TIP3   OH241133   2.742   3.753  14.264 -0.2440  0.3621  0.2760
 6573TIP3    H141134   2.664   3.796  14.300  0.6668  2.1408  0.2143
 6573TIP3    H241135   2.809   3.821  14.262  0.8994 -0.7306 -1.0743
 6574TIP3   OH241136   4.772   5.540   4.466  0.7643  0.3066  0.2721
 6574TIP3    H141137   4.729   5.619   4.433  0.3115 -0.5514 -1.2697
 6574TIP3    H241138   4.809   5.567   4.550  0.3095  2.0568 -0.0434
 6575TIP3   OH241139   2.123   5.046  11.196  0.2330 -0.4541  0.3859
 6575TIP3    H141140   2.162   5.130  11.218 -0.3922 -0.1646  0.4079
 6575TIP3    H241141   2.130   5.040  11.100  0.1356 -0.3059  0.3695
 6576TIP3   OH241142   6.025   2.895  12.603 -0.4456 -0.5705 -0.2755
 6576TIP3    H141143   6.044   2.825  12.541  1.1807 -1.6713  1.3692
 6576TIP3    H241144   5.948   2.866  12.650  0.0584 -1.1232  0.2095
 6577TIP3   OH241145   5.703   4.187  13.947  0.1963 -0.6910 -0.0441
 6577TIP3    H141146   5.651   4.108  13.963 -0.1752 -0.3740  0.3068
 6577TIP3    H241147   5.714   4.227  14.033 -0.9181  0.4494 -0.3869
 6578TIP3   OH241148   1.955   3.834   3.109 -0.5884  0.0183 -0.2603
 6578TIP3    H141149   2.051   3.838   3.111 -0.5621  1.7939 -1.7578
 6578TIP3    H241150   1.927   3.891   3.181 -0.5577 -1.1295  0.6861
 6579TIP3   OH241151   1.501   1.663  14.572  0.2271 -0.0773  0.1776
 6579TIP3    H141152   1.554   1.584  14.575 -0.8326 -0.7875  0.5255
 6579TIP3    H241153   1.543   1.718  14.506  1.3646 -0.6331  0.4240
 6580TIP3   OH241154   6.489   1.477   2.331  0.0916 -0.1577  0.6314
 6580TIP3    H141155   6.578   1.486   2.296 -0.5216  0.3729 -0.8918
 6580TIP3    H241156   6.433   1.505   2.259 -1.2715  1.1276  2.1254
 6581TIP3   OH241157   4.052   3.333   0.864 -0.0752  0.7557  0.0916
 6581TIP3    H141158   4.082   3.244   0.843 -1.4163 -0.0291  1.2600
 6581TIP3    H241159   4.122   3.371   0.916  1.5676  1.3141 -2.3318
 6582TIP3   OH241160   2.447   1.354  15.231 -0.5523  0.4343 -0.3592
 6582TIP3    H141161   2.381   1.420  15.213 -0.3202  0.4908 -1.0245
 6582TIP3    H241162   2.530   1.398  15.212 -0.3532  0.1914 -0.0637
 6583TIP3   OH241163   0.824   5.351   0.303 -0.0563 -0.1485 -1.1000
 6583TIP3    H141164   0.831   5.442   0.273 -3.8317  0.3811 -0.8100
 6583TIP3    H241165   0.806   5.357   0.397  1.5963 -1.3753 -0.6417
 6584TIP3   OH241166   1.392   3.873  13.417  0.3599 -0.5213  0.2992
 6584TIP3    H141167   1.464   3.936  13.421  0.6454 -0.7158 -1.2336
 6584TIP3    H241168   1.385   3.850  13.325 -1.3698 -0.8798  0.4908
 6585TIP3   OH241169   5.608   2.808   4.098 -0.5458 -0.3815 -0.3573
 6585TIP3    H141170   5.641   2.853   4.020 -2.6064 -0.6270 -1.4439
 6585TIP3    H241171   5.534   2.756   4.066 -1.8067 -0.0644  1.8457
 6586TIP3   OH241172   3.041   2.947   1.938 -0.2300  0.0036  0.0840
 6586TIP3    H141173   3.123   2.960   1.891 -0.7385  0.7283 -0.6283
 6586TIP3    H241174   3.032   3.025   1.993 -0.0007 -0.5024  0.8627
 6587TIP3   OH241175   2.894   0.269  14.367 -0.6804 -0.0510 -0.3384
 6587TIP3    H141176   2.963   0.332  14.383  1.3790 -1.7122 -1.9760
 6587TIP3    H241177   2.818   0.321  14.342  0.4553  1.8060 -0.0618
 6588TIP3   OH241178   5.121   0.390  14.580  0.0665  0.5062  0.0461
 6588TIP3    H141179   5.138   0.380  14.674  0.4414 -0.0402 -0.0743
 6588TIP3    H241180   5.106   0.483  14.568  0.0357  0.5824  0.6497
 6589TIP3   OH241181   3.317   5.221  15.135 -0.3407  0.1648  0.0056
 6589TIP3    H141182   3.358   5.289  15.081  0.1422  1.0222  1.4116
 6589TIP3    H241183   3.339   5.139  15.090 -1.0708  0.9098 -1.8099
 6590TIP3   OH241184   5.793   6.316  17.548 -0.2038  0.3798  0.4475
 6590TIP3    H141185   5.714   6.277  17.512 -0.4980 -0.7740  2.2193
 6590TIP3    H241186   5.812   6.390  17.490 -3.9155  2.2128  1.2905
 6591TIP3   OH241187   6.558   2.291  15.584 -0.6584 -0.2122  0.3954
 6591TIP3    H141188   6.640   2.261  15.622  0.1514 -0.5154 -1.4832
 6591TIP3    H241189   6.498   2.299  15.658  0.3237 -2.3834  1.4909
 6592TIP3   OH241190   6.308   4.509  13.096  0.4506  0.3354  0.4170
 6592TIP3    H141191   6.270   4.572  13.035  1.8134  0.8498  0.0527
 6592TIP3    H241192   6.325   4.560  13.175  1.4344  0.4218  0.1667
 6593TIP3   OH241193   2.833   3.217  13.359 -0.0063 -0.2309  0.3556
 6593TIP3    H141194   2.842   3.311  13.371  1.3217 -0.2752 -0.1187
 6593TIP3    H241195   2.825   3.182  13.448 -1.6164  0.4103  0.4764
 6594TIP3   OH241196   4.162   2.389  16.778 -0.3196  0.6613 -0.0109
 6594TIP3    H141197   4.139   2.478  16.801  0.0993  1.0227 -0.9102
 6594TIP3    H241198   4.255   2.381  16.802 -0.7580 -0.0631  1.5483
 6595TIP3   OH241199   0.271   0.079  16.486  0.3733 -0.9438 -0.0127
 6595TIP3    H141200   0.227   0.056  16.568  1.0919 -2.5930 -0.0413
 6595TIP3    H241201   0.345   0.019  16.482  0.2506 -1.0231 -1.9511
 6596TIP3   OH241202   0.235   0.556  12.844  0.5516  0.5949 -0.2066
 6596TIP3    H141203   0.292   0.479  12.852  0.1850  0.1353 -1.6751
 6596TIP3    H241204   0.248   0.604  12.926  1.6618 -0.4347  0.2577
 6597TIP3   OH241205   1.207   0.361  17.382 -0.1211  0.2141 -0.3478
 6597TIP3    H141206   1.296   0.370  17.415  0.1081 -0.2768 -0.8014
 6597TIP3    H241207   1.154   0.346  17.460  0.5045 -1.6341 -0.2227
 6598TIP3   OH241208   4.871   6.544   2.076 -0.5056 -0.1289  0.6372
 6598TIP3    H141209   4.784   6.512   2.052 -0.3532  0.2795 -0.4959
 6598TIP3    H241210   4.931   6.486   2.030 -0.1419 -0.7816  1.8806
 6599TIP3   OH241211   1.072   2.227  12.591  0.6901 -0.7090 -0.3478
 6599TIP3    H141212   1.123   2.174  12.653  1.3297 -0.1482 -0.3834
 6599TIP3    H241213   1.106   2.315  12.602 -0.6382 -0.2224 -0.0154
 6600TIP3   OH241214   0.059   3.948   1.050  0.1264  0.1425  0.7096
 6600TIP3    H141215   0.108   3.950   0.968 -1.5291  1.0923 -0.3223
 6600TIP3    H241216  -0.028   3.920   1.025 -0.9929  2.3955  1.7513
 6601TIP3   OH241217   0.766   4.720  14.240  0.2134  0.0997  0.0676
 6601TIP3    H141218   0.735   4.734  14.150 -1.4319 -0.3305  0.5242
 6601TIP3    H241219   0.795   4.806  14.269 -1.5862  0.7891 -0.0661
 6602TIP3   OH241220   3.184   4.339   0.183  0.2873 -0.2832  0.2527
 6602TIP3    H141221   3.239   4.281   0.130 -0.3186  0.5993 -1.4079
 6602TIP3    H241222   3.121   4.376   0.122  0.4697  1.9203  1.2854
 6603TIP3   OH241223   0.088   1.812   4.046 -0.3899  0.3094 -0.0639
 6603TIP3    H141224   0.147   1.742   4.072 -0.2737  0.1024 -0.8750
 6603TIP3    H241225   0.140   1.867   3.988  0.1358  2.1400  1.9705
 6604TIP3   OH241226   0.778   2.231   3.093 -0.8824 -0.1979 -0.3510
 6604TIP3    H141227   0.796   2.274   3.009  1.6469  1.4546  0.9222
 6604TIP3    H241228   0.684   2.244   3.107 -1.3380 -0.3983 -2.8267
 6605TIP3   OH241229   5.534   6.455   5.225 -0.1809 -0.6750 -0.5071
 6605TIP3    H141230   5.514   6.379   5.280  1.6441 -1.3381 -0.6856
 6605TIP3    H241231   5.553   6.526   5.287 -3.1548  0.0947 -0.3227
 6606TIP3   OH241232   1.884   6.697   4.914  0.1996  0.4568 -0.1018
 6606TIP3    H141233   1.978   6.704   4.932 -0.1175 -0.1582  2.0628
 6606TIP3    H241234   1.875   6.614   4.867  0.6812  0.2536  0.1521
 6607TIP3   OH241235   2.393   0.270  17.212  0.7800 -0.3007 -0.6314
 6607TIP3    H141236   2.358   0.339  17.268  1.7568  1.4264 -2.0163
 6607TIP3    H241237   2.410   0.196  17.271 -0.9703  0.3679  0.7756
 6608TIP3   OH241238   5.707   0.974   3.182  0.5984  0.2421  0.6083
 6608TIP3    H141239   5.789   0.985   3.134  0.9695 -0.7497  0.9921
 6608TIP3    H241240   5.704   1.049   3.242  0.5237  1.0546 -0.3743
 6609TIP3   OH241241   3.362   3.810  17.453  0.5699 -1.0089  0.1511
 6609TIP3    H141242   3.297   3.881  17.454 -0.9602 -2.3433 -0.3771
 6609TIP3    H241243   3.446   3.854  17.465 -0.3794  0.8376  0.3321
 6610TIP3   OH241244   0.074   1.058   6.123  0.1702 -0.4854 -0.4108
 6610TIP3    H141245   0.051   0.975   6.164  2.2004 -1.3454 -0.9268
 6610TIP3    H241246   0.031   1.055   6.037 -1.4393 -0.0673  0.3402
 6611TIP3   OH241247   5.793   4.123   3.705 -0.3322  0.2169  0.0540
 6611TIP3    H141248   5.873   4.142   3.657 -0.1838 -1.0419 -0.2482
 6611TIP3    H241249   5.788   4.027   3.705 -2.1436  0.2787 -0.4510
 6612TIP3   OH241250   0.061   3.055  14.652 -0.0920 -0.9309 -0.3398
 6612TIP3    H141251   0.056   2.960  14.661 -2.6663 -0.6957  2.8739
 6612TIP3    H241252   0.033   3.089  14.738 -2.6783  2.6972 -2.3070
 6613TIP3   OH241253   1.710   5.894   4.991  0.1299  0.6820 -0.1912
 6613TIP3    H141254   1.660   5.967   5.027  1.6057  1.0657  1.1696
 6613TIP3    H241255   1.653   5.818   5.004 -0.6161  1.2856  0.1759
 6614TIP3   OH241256   3.294   1.477  12.545 -0.3463 -0.9962 -0.2283
 6614TIP3    H141257   3.225   1.455  12.609 -0.2517  0.5903  0.4866
 6614TIP3    H241258   3.267   1.562  12.510 -0.5834 -1.9855 -2.6371
 6615TIP3   OH241259   4.198   2.092   3.109  0.5363  0.4625  0.1212
 6615TIP3    H141260   4.215   2.024   3.044 -0.6522 -0.6379  0.9228
 6615TIP3    H241261   4.175   2.169   3.057  0.5970 -0.1053 -0.7716
 6616TIP3   OH241262   1.041   6.464  12.466  0.4185  0.1153 -0.3691
 6616TIP3    H141263   1.009   6.436  12.380  2.2408 -2.2010 -0.4058
 6616TIP3    H241264   1.136   6.452  12.461  0.6613  0.7771  1.6976
 6617TIP3   OH241265   3.202   4.816  13.197  0.1178  0.3930  0.6263
 6617TIP3    H141266   3.294   4.791  13.194  0.1088  0.2293  1.4512
 6617TIP3    H241267   3.186   4.838  13.289 -0.7431  0.1187  0.5539
 6618TIP3   OH241268   5.863   1.110   3.734 -0.2347 -0.0625  0.3373
 6618TIP3    H141269   5.908   1.074   3.811  1.0143 -0.4342 -0.5372
 6618TIP3    H241270   5.836   1.197   3.762  0.8896  0.1149  0.9663
 6619TIP3   OH241271   6.205   2.430  12.402 -0.2399 -0.2289 -0.1433
 6619TIP3    H141272   6.253   2.421  12.484 -1.4213 -0.2925  0.5663
 6619TIP3    H241273   6.264   2.480  12.345  0.4339  0.1802  0.8839
 6620TIP3   OH241274   2.531   3.027  15.804 -0.1570  0.3334  0.9269
 6620TIP3    H141275   2.582   3.064  15.876  1.1542  0.4457 -0.0132
 6620TIP3    H241276   2.475   2.961  15.845  0.8581  0.1059  1.9917
 6621TIP3   OH241277   4.167   4.005  13.707 -0.2983 -0.4052 -0.0536
 6621TIP3    H141278   4.214   4.052  13.776 -0.8685  0.0237  0.0462
 6621TIP3    H241279   4.189   4.051  13.627  0.6587 -1.1250 -0.2215
 6622TIP3   OH241280   6.631   0.164  12.388  0.2637 -0.4030  0.2398
 6622TIP3    H141281   6.651   0.076  12.356 -0.0066 -1.9168  3.7332
 6622TIP3    H241282   6.663   0.163  12.479 -0.2419  2.9572  0.5511
 6623TIP3   OH241283   4.001   4.775   5.888 -0.5713  0.1163  0.0395
 6623TIP3    H141284   4.034   4.782   5.978 -0.3085 -1.3744  0.0787
 6623TIP3    H241285   4.060   4.831   5.837 -0.6173  0.8352  0.7580
 6624TIP3   OH241286   2.148   4.219   0.328  0.6413 -0.2681 -0.5549
 6624TIP3    H141287   2.145   4.288   0.396 -0.4996  0.5930 -1.4220
 6624TIP3    H241288   2.067   4.170   0.342  0.2948  0.0408 -1.3857
 6625TIP3   OH241289   5.714   2.607  15.381 -0.3771  0.2110 -0.1003
 6625TIP3    H141290   5.676   2.693  15.363 -0.6066  0.1464  0.0799
 6625TIP3    H241291   5.651   2.545  15.344 -0.7725  0.0805  0.7839
 6626TIP3   OH241292   5.628   0.808  17.015 -0.0846  0.0123 -0.2247
 6626TIP3    H141293   5.657   0.719  17.035  0.4336  0.2415  0.0678
 6626TIP3    H241294   5.639   0.856  17.097  0.7062  0.6167 -0.6697
 6627TIP3   OH241295   6.293   0.743   3.958 -0.1340 -0.1069  0.0494
 6627TIP3    H141296   6.282   0.805   4.030 -1.9901 -0.1354 -0.1553
 6627TIP3    H241297   6.350   0.675   3.994 -1.5505 -0.4707  1.7518
 6628TIP3   OH241298   4.761   6.511  13.573  0.2636 -0.0418 -0.3420
 6628TIP3    H141299   4.838   6.560  13.546 -0.8689  2.5329  0.7642
 6628TIP3    H241300   4.719   6.566  13.639 -2.2882 -1.5425 -0.5578
 6629TIP3   OH241301   3.642   1.552  11.440  0.6481  0.1846  0.3296
 6629TIP3    H141302   3.625   1.637  11.482  0.4068  1.9342 -2.9962
 6629TIP3    H241303   3.718   1.517  11.487  0.9301  2.3559  1.6385
 6630TIP3   OH241304   5.427   4.314  11.702 -0.4813  0.3485  0.0046
 6630TIP3    H141305   5.422   4.222  11.728 -1.2176 -0.9108 -3.8568
 6630TIP3    H241306   5.519   4.337  11.711  0.3502 -1.8601 -1.8383
 6631TIP3   OH241307   6.108   3.067   1.637 -0.4322 -0.2551  0.3185
 6631TIP3    H141308   6.049   3.134   1.671  0.4693  0.3196  0.7948
 6631TIP3    H241309   6.182   3.067   1.697  0.1317 -0.8526 -0.3486
 6632TIP3   OH241310   1.920   2.134   1.510  0.2308 -0.4019 -0.4977
 6632TIP3    H141311   2.002   2.172   1.541 -0.0801  1.2705 -1.6527
 6632TIP3    H241312   1.906   2.173   1.425 -2.2510  0.0689  0.0653
 6633TIP3   OH241313   0.997   0.418   0.279  0.1659 -0.1865 -0.6381
 6633TIP3    H141314   1.080   0.417   0.327  0.3350  0.2107 -0.9097
 6633TIP3    H241315   1.003   0.497   0.224 -0.7606  0.3318 -0.0112
 6634TIP3   OH241316   1.172   1.473   2.797 -0.4498 -0.2698  0.4075
 6634TIP3    H141317   1.256   1.516   2.808 -0.6429  0.4589 -0.8865
 6634TIP3    H241318   1.189   1.381   2.820  1.0023 -0.3939 -1.0283
 6635TIP3   OH241319   5.938   2.543   2.559 -0.8710 -0.3887 -0.2962
 6635TIP3    H141320   5.966   2.505   2.476  1.2628 -0.5618  0.4630
 6635TIP3    H241321   5.849   2.575   2.541 -0.3850 -0.2092 -2.6929
 6636TIP3   OH241322   6.367   0.216   0.808 -0.1779  0.4259  0.1231
 6636TIP3    H141323   6.354   0.135   0.759  1.2413 -1.1623  2.2200
 6636TIP3    H241324   6.458   0.240   0.793  0.0023  0.4480  1.1616
 6637TIP3   OH241325   4.365   3.050  12.472  0.2502  0.1890 -0.2610
 6637TIP3    H141326   4.319   3.010  12.398  0.2142 -0.0163 -0.1295
 6637TIP3    H241327   4.308   3.033  12.547  0.1864  0.5796 -0.2219
 6638TIP3   OH241328   2.410   4.594  13.217 -0.5508  0.5850  0.2844
 6638TIP3    H141329   2.414   4.591  13.121 -2.2373  1.2955  0.1598
 6638TIP3    H241330   2.433   4.506  13.245  1.2674  0.6950 -0.6873
 6639TIP3   OH241331   5.589   5.452   1.955  0.7280 -0.6327 -0.4056
 6639TIP3    H141332   5.553   5.537   1.980  2.9558 -0.3276  2.3214
 6639TIP3    H241333   5.657   5.472   1.891  2.6636  0.0444  1.7018
 6640TIP3   OH241334   5.008   0.533   5.063 -0.2220  0.4193  0.0040
 6640TIP3    H141335   5.044   0.468   5.122  0.9588  1.7922  0.8593
 6640TIP3    H241336   5.005   0.489   4.978 -1.6516 -1.4851  0.9577
 6641TIP3   OH241337   3.966   4.510   1.235 -0.2116  0.0295  0.2725
 6641TIP3    H141338   3.997   4.455   1.307  0.3621  0.3125  0.2528
 6641TIP3    H241339   4.046   4.534   1.188 -0.5928 -0.3017 -0.5659
 6642TIP3   OH241340   5.262   1.676  14.928 -0.2873  0.2128  0.2988
 6642TIP3    H141341   5.336   1.724  14.890  0.0917 -0.0422  0.7064
 6642TIP3    H241342   5.298   1.634  15.006 -0.5742 -0.9097 -0.1649
 6643TIP3   OH241343   5.588   3.775   6.022 -0.0916 -0.0398  0.2024
 6643TIP3    H141344   5.576   3.869   6.012 -0.3934 -0.1968 -1.0556
 6643TIP3    H241345   5.579   3.740   5.933 -0.2404 -1.2833  0.6900
 6644TIP3   OH241346   6.069   3.691   5.155 -0.2144 -0.0410  0.0112
 6644TIP3    H141347   6.110   3.605   5.155  0.0388  0.0534  1.9066
 6644TIP3    H241348   6.107   3.736   5.079  1.9007 -0.5713  0.6976
 6645TIP3   OH241349   6.331   5.583   0.392 -0.3624  0.4525 -0.3809
 6645TIP3    H141350   6.379   5.542   0.463 -1.7386  1.7189  1.3714
 6645TIP3    H241351   6.260   5.522   0.372  0.0991  0.0384 -0.7678
 6646TIP3   OH241352   2.321   2.717   4.966 -0.3070  0.1622  0.4888
 6646TIP3    H141353   2.356   2.671   5.042  2.0963  1.2063  0.1118
 6646TIP3    H241354   2.357   2.805   4.973 -1.4167  0.7728 -0.9875
 6647TIP3   OH241355   5.956   4.741   3.952  0.3275 -0.9506 -0.1854
 6647TIP3    H141356   6.036   4.780   3.986  0.0424 -0.6289  0.1159
 6647TIP3    H241357   5.984   4.656   3.917  0.6050 -1.3252  0.9154
 6648TIP3   OH241358   4.183   2.617  11.782  0.3507 -0.1271  0.3422
 6648TIP3    H141359   4.118   2.551  11.759  1.0442 -0.1931 -1.5556
 6648TIP3    H241360   4.232   2.579  11.855 -0.5327 -0.8447  0.5736
 6649TIP3   OH241361   3.572   3.170  14.137  0.4472  0.3616 -0.5705
 6649TIP3    H141362   3.646   3.138  14.086  1.1753  1.7206 -0.3902
 6649TIP3    H241363   3.597   3.152  14.228  0.3847  0.4551 -0.5350
 6650TIP3   OH241364   1.345   5.711   5.057  0.4426 -0.3244 -0.3857
 6650TIP3    H141365   1.342   5.739   4.965 -1.1522  1.6647  0.2052
 6650TIP3    H241366   1.258   5.677   5.075  0.6896 -0.5383  0.4492
 6651TIP3   OH241367   2.045   5.865   4.108  0.6304 -0.3509  0.5858
 6651TIP3    H141368   2.113   5.932   4.100  1.1226 -0.9021  0.0351
 6651TIP3    H241369   2.091   5.782   4.093 -0.1455 -0.7345  0.2626
 6652TIP3   OH241370   1.751   1.831   0.042 -0.2747 -0.1170  0.2992
 6652TIP3    H141371   1.812   1.867   0.105 -0.9986  0.1277  0.8780
 6652TIP3    H241372   1.798   1.758   0.001  0.1209 -0.4302  1.2932
 6653TIP3   OH241373   6.704   2.511   4.027  0.1387 -0.1551  0.5669
 6653TIP3    H141374   6.626   2.565   4.036 -0.7474 -1.5117  1.3351
 6653TIP3    H241375   6.697   2.474   3.939  0.4589  0.4989  0.2539
 6654TIP3   OH241376   4.211   6.552   5.520 -0.3338  0.4037  0.3551
 6654TIP3    H141377   4.269   6.595   5.458 -0.3374 -1.6476 -1.1851
 6654TIP3    H241378   4.132   6.533   5.470 -1.4611  1.1292  1.7889
 6655TIP3   OH241379   6.462   3.768  14.232 -0.2519  0.3412  0.6454
 6655TIP3    H141380   6.384   3.809  14.194 -0.0031  0.6047  0.4214
 6655TIP3    H241381   6.429   3.685  14.268 -1.1394  1.5204  2.7485
 6656TIP3   OH241382   1.677   0.191  15.450 -0.0188 -0.3878 -0.2796
 6656TIP3    H141383   1.751   0.248  15.471  1.2928 -1.3296 -2.0954
 6656TIP3    H241384   1.644   0.163  15.535  2.3426 -0.7292  0.6055
 6657TIP3   OH241385   6.026   5.607   3.484 -0.0525  0.2675  0.1397
 6657TIP3    H141386   6.038   5.513   3.472 -1.8800 -0.0075  0.2328
 6657TIP3    H241387   6.043   5.645   3.398  3.8502  0.3133  0.7141
 6658TIP3   OH241388   2.923   3.509  14.146 -0.1306 -0.3529 -0.0602
 6658TIP3    H141389   2.848   3.516  14.205  1.2720  0.0688  1.7631
 6658TIP3    H241390   2.999   3.507  14.204  1.2196 -2.5859 -1.7419
 6659TIP3   OH241391   4.741   5.223   5.039 -0.3764  0.0017 -0.5513
 6659TIP3    H141392   4.748   5.303   4.986 -0.6588  0.0827 -0.4675
 6659TIP3    H241393   4.648   5.202   5.037 -0.4990  0.4148  0.5280
 6660TIP3   OH241394   0.941   3.237   5.491 -0.0190  0.2813 -0.8842
 6660TIP3    H141395   0.983   3.180   5.556 -0.9421 -0.5614 -0.9917
 6660TIP3    H241396   0.930   3.181   5.414 -0.7819  0.6584 -1.0540
 6661TIP3   OH241397   3.209   1.584  12.993  0.3741  0.2832 -0.1606
 6661TIP3    H141398   3.193   1.554  13.082  1.1062 -1.6462 -0.6200
 6661TIP3    H241399   3.288   1.637  12.999  1.3420 -1.1389  0.1393
 6662TIP3   OH241400   1.820   5.174  11.933  0.3199 -0.4594 -0.4079
 6662TIP3    H141401   1.793   5.170  11.841  1.5726  0.6312 -0.8510
 6662TIP3    H241402   1.824   5.083  11.961  0.3738 -0.8319 -1.5801
 6663TIP3   OH241403   5.649   2.496   3.402 -0.5378  0.7177 -0.0733
 6663TIP3    H141404   5.739   2.470   3.418 -0.8597 -1.1278 -1.0368
 6663TIP3    H241405   5.609   2.498   3.489 -0.5634 -2.5501  0.1156
 6664TIP3   OH241406   0.880   0.503   0.669  0.6893  0.6618 -0.2512
 6664TIP3    H141407   0.817   0.489   0.599  2.6788  0.1978 -2.0384
 6664TIP3    H241408   0.899   0.597   0.667  0.9180  0.6111 -0.5026
 6665TIP3   OH241409   3.809   3.668  11.962  0.5296 -0.1162 -0.8863
 6665TIP3    H141410   3.815   3.572  11.963 -0.3305 -0.2020 -1.8959
 6665TIP3    H241411   3.844   3.693  11.876  1.0693  0.5109 -0.4958
 6666TIP3   OH241412   4.018   0.047   0.867  0.0486 -0.3730  0.5723
 6666TIP3    H141413   4.049   0.105   0.798 -2.4728 -2.2662 -2.3708
 6666TIP3    H241414   3.932   0.083   0.892 -0.7506 -1.7845 -0.0416
 6667TIP3   OH241415   2.906   0.131  13.781 -0.2039 -0.1772  0.1460
 6667TIP3    H141416   2.946   0.054  13.741 -1.1399  0.1869 -1.6073
 6667TIP3    H241417   2.820   0.137  13.740 -0.2534  1.6618  0.4244
 6668TIP3   OH241418   2.633   0.290   5.878  0.0328 -0.7092  0.6740
 6668TIP3    H141419   2.679   0.327   5.803 -0.4911  0.1353  0.7508
 6668TIP3    H241420   2.575   0.361   5.908 -0.0535 -1.1611  1.6275
 6669TIP3   OH241421   2.219   4.642  15.541  0.5840 -0.5210 -0.0523
 6669TIP3    H141422   2.241   4.704  15.610  0.1800 -0.2719 -0.1418
 6669TIP3    H241423   2.289   4.577  15.543  0.7124 -0.3686  0.4127
 6670TIP3   OH241424   1.850   0.967   2.526 -0.1598 -0.5254 -0.5258
 6670TIP3    H141425   1.861   1.053   2.485 -0.0057  0.0319  0.6314
 6670TIP3    H241426   1.917   0.912   2.485  1.1765  0.4954  0.2157
 6671TIP3   OH241427   1.977   2.087  17.405  0.2789  0.7768  0.7246
 6671TIP3    H141428   1.907   2.085  17.470 -0.5998  0.5464 -0.2203
 6671TIP3    H241429   1.994   2.180  17.391  0.2653  0.8312  1.0515
 6672TIP3   OH241430   4.932   0.693  10.542  0.5292 -0.2016  0.1753
 6672TIP3    H141431   4.839   0.689  10.517  0.7847  0.9988 -1.0979
 6672TIP3    H241432   4.932   0.672  10.635 -0.9004 -1.2948 -0.0288
 6673TIP3   OH241433   2.920   1.815   3.583  0.2837  0.4864 -0.8859
 6673TIP3    H141434   2.883   1.741   3.631  1.4654  0.7483  0.5006
 6673TIP3    H241435   2.984   1.775   3.524  2.1484  0.4325  1.0366
 6674TIP3   OH241436   5.784   3.057  16.448 -0.3759  0.5497 -0.7257
 6674TIP3    H141437   5.729   2.980  16.461 -1.6524  1.5916  0.3333
 6674TIP3    H241438   5.870   3.022  16.426 -0.8762 -1.1777 -0.0582
 6675TIP3   OH241439   2.540   0.761  14.488 -0.0879 -0.9141 -0.2344
 6675TIP3    H141440   2.501   0.683  14.526 -0.6613  0.0439  1.2248
 6675TIP3    H241441   2.480   0.832  14.511 -0.4830 -0.2470 -2.9965
 6676TIP3   OH241442   4.702   6.575  12.683  0.1723 -0.2167 -0.1458
 6676TIP3    H141443   4.679   6.626  12.761  0.3343  0.1714 -0.3501
 6676TIP3    H241444   4.773   6.624  12.642 -0.8381  0.3328 -1.2933
 6677TIP3   OH241445   5.689   3.985  15.508  0.0178 -0.3102  0.0603
 6677TIP3    H141446   5.757   3.950  15.566  0.8462 -1.7175 -1.6301
 6677TIP3    H241447   5.634   4.039  15.564  0.9532 -1.3238  2.0596
 6678TIP3   OH241448   1.446   4.256   6.173  0.2531  0.0332  0.1789
 6678TIP3    H141449   1.527   4.243   6.222 -0.7289 -3.2286  1.1995
 6678TIP3    H241450   1.385   4.292   6.237  0.2978  0.4631 -0.0153
 6679TIP3   OH241451   2.166   5.462   6.235  0.3958  0.3133  0.4600
 6679TIP3    H141452   2.248   5.492   6.273 -0.5381  0.2390  2.6730
 6679TIP3    H241453   2.100   5.482   6.302 -1.2545 -0.4731 -0.8668
 6680TIP3   OH241454   6.463   1.998   2.644  0.5530 -0.0167 -0.6113
 6680TIP3    H141455   6.450   1.930   2.579  2.6001  0.0455 -1.1540
 6680TIP3    H241456   6.397   1.981   2.711 -0.5307 -1.0520 -1.8992
 6681TIP3   OH241457   4.851   2.120   6.382  0.1016  0.1387 -0.1789
 6681TIP3    H141458   4.913   2.051   6.405 -1.1325 -0.7042  0.8051
 6681TIP3    H241459   4.887   2.199   6.422 -0.0674 -0.5917  1.5231
 6682TIP3   OH241460   3.540   5.140  16.224  0.8729 -0.3801  0.0589
 6682TIP3    H141461   3.475   5.077  16.255  1.4361 -0.8750  0.2534
 6682TIP3    H241462   3.621   5.090  16.218  0.8996 -0.1820 -1.7375
 6683TIP3   OH241463   0.604   4.661   5.501 -0.0129  0.3005 -0.0317
 6683TIP3    H141464   0.666   4.710   5.556  0.0110  1.2823 -0.9088
 6683TIP3    H241465   0.583   4.584   5.553 -0.2188  1.3280  1.4945
 6684TIP3   OH241466   1.810   4.845   2.072 -0.5361 -0.3518  0.4781
 6684TIP3    H141467   1.826   4.814   1.983  1.1514  0.4704  0.4439
 6684TIP3    H241468   1.798   4.766   2.124  0.7707 -0.9749 -0.1107
 6685TIP3   OH241469   3.107   0.586   1.626 -0.6862 -0.4001  0.2014
 6685TIP3    H141470   3.153   0.607   1.544 -1.8277  0.0152 -0.3586
 6685TIP3    H241471   3.145   0.646   1.690 -0.6113  0.1157 -0.3102
 6686TIP3   OH241472   5.415   1.921   6.372  0.1719 -0.4570 -0.0176
 6686TIP3    H141473   5.499   1.890   6.405  0.0649 -0.3882  0.3270
 6686TIP3    H241474   5.382   1.978   6.441  0.3333  0.3751 -0.6128
 6687TIP3   OH241475   0.192   6.063  14.845  0.3030  0.1209 -0.0503
 6687TIP3    H141476   0.284   6.043  14.858  0.0338 -2.0273 -0.9556
 6687TIP3    H241477   0.150   5.977  14.837 -1.5670  1.0613 -0.9425
 6688TIP3   OH241478   0.036   5.927  11.381  0.6309  0.0666  0.2227
 6688TIP3    H141479   0.010   5.967  11.464  0.5063  0.2769  0.0849
 6688TIP3    H241480   0.007   5.990  11.315  2.3023  0.7405  0.0984
 6689TIP3   OH241481   2.681   0.901   5.891  0.7642 -0.3874  0.4631
 6689TIP3    H141482   2.730   0.983   5.890  0.9993 -0.5298 -0.1974
 6689TIP3    H241483   2.746   0.835   5.915  0.4787 -0.3377  1.4532
 6690TIP3   OH241484   5.081   3.405  13.636 -0.6067  0.2225  0.2064
 6690TIP3    H141485   5.087   3.395  13.731 -0.1419 -0.1617  0.1385
 6690TIP3    H241486   5.145   3.473  13.615 -0.7714  0.3688  0.1759
 6691TIP3   OH241487   6.460   2.978  13.276  0.2831 -0.0038  0.0490
 6691TIP3    H141488   6.394   2.910  13.291  1.1313 -1.5450 -2.6820
 6691TIP3    H241489   6.444   3.008  13.187  0.7657  2.5215  0.7470
 6692TIP3   OH241490   4.051   6.638  10.726  0.8815 -0.4359  0.2809
 6692TIP3    H141491   4.068   6.544  10.724  2.7318 -0.1248 -1.1412
 6692TIP3    H241492   4.138   6.679  10.731  0.0987  1.2442  3.9467
 6693TIP3   OH241493   4.837   4.505   0.056 -0.2083 -0.4649  0.5250
 6693TIP3    H141494   4.915   4.511   0.111  0.9913  1.8556 -1.2919
 6693TIP3    H241495   4.860   4.441  -0.011  0.2108  0.3030 -0.0771
 6694TIP3   OH241496   5.502   0.415   3.533 -0.2282 -0.3661  0.2543
 6694TIP3    H141497   5.544   0.481   3.588  0.7748 -0.3488 -0.4982
 6694TIP3    H241498   5.534   0.433   3.445  0.4774 -2.1691  0.0965
 6695TIP3   OH241499   4.762   3.704   1.214 -0.5937  0.3896 -0.5233
 6695TIP3    H141500   4.752   3.610   1.227  2.0012 -0.2825 -2.5164
 6695TIP3    H241501   4.782   3.714   1.120 -1.4306  3.0025 -0.5161
 6696TIP3   OH241502   0.565   5.067  14.432 -0.2357  0.1283  0.6529
 6696TIP3    H141503   0.503   5.137  14.413 -0.5903  0.0302  1.4307
 6696TIP3    H241504   0.614   5.056  14.351  0.1718  1.6202  0.6758
 6697TIP3   OH241505   2.071   1.511   3.043 -0.2692  0.3009  0.0958
 6697TIP3    H141506   2.127   1.526   2.967 -0.6067  0.7272 -0.0732
 6697TIP3    H241507   1.999   1.458   3.011 -1.4570  2.0934 -0.3715
 6698TIP3   OH241508   1.101   2.524   3.718 -0.2966  0.0515 -0.6344
 6698TIP3    H141509   1.017   2.557   3.752  0.8154  1.7953  0.5528
 6698TIP3    H241510   1.161   2.530   3.792  1.0878 -0.4808 -1.6661
 6699TIP3   OH241511   6.648   3.211  15.617  0.0710  0.0618  0.3958
 6699TIP3    H141512   6.665   3.202  15.711  1.1251 -0.4599  0.1792
 6699TIP3    H241513   6.556   3.188  15.607  0.5238 -2.3628  1.0223
 6700TIP3   OH241514   6.214   1.844   6.240  0.1325 -0.3867  0.2103
 6700TIP3    H141515   6.273   1.784   6.194 -0.4071 -1.2991  0.6820
 6700TIP3    H241516   6.225   1.822   6.333 -0.6262 -0.2546  0.3326
 6701TIP3   OH241517   4.395   6.686   5.141 -0.2058 -0.1680  0.1694
 6701TIP3    H141518   4.403   6.609   5.198  0.1386  0.1987  0.6205
 6701TIP3    H241519   4.485   6.708   5.117 -0.3869 -0.7049 -1.0470
 6702TIP3   OH241520   2.290   5.148  17.152  0.3088  0.5268 -0.1034
 6702TIP3    H141521   2.225   5.170  17.219 -1.7312  0.0652 -1.7937
 6702TIP3    H241522   2.364   5.113  17.201 -1.2233 -0.1490  1.8952
 6703TIP3   OH241523   4.002   0.104   2.180 -0.1670 -0.2929 -0.0376
 6703TIP3    H141524   3.985   0.118   2.086 -0.1585  1.0833  0.1439
 6703TIP3    H241525   4.081   0.050   2.182 -0.6183 -1.0176 -0.8250
 6704TIP3   OH241526   4.322   2.243   2.494  0.1254 -0.0583  0.0918
 6704TIP3    H141527   4.295   2.312   2.433 -0.4399 -0.0338  0.3634
 6704TIP3    H241528   4.406   2.213   2.460 -1.4784 -2.0657 -2.4032
 6705TIP3   OH241529   5.058   6.151   4.329  0.1938 -0.6429 -0.1860
 6705TIP3    H141530   5.121   6.147   4.401 -0.9723  0.8221  0.9706
 6705TIP3    H241531   5.063   6.240   4.296 -1.4234 -0.4103  0.0930
 6706TIP3   OH241532   1.920   2.978  12.308 -0.3116 -0.4608  0.1943
 6706TIP3    H141533   1.900   3.042  12.376 -0.9467  0.0513 -0.4590
 6706TIP3    H241534   1.840   2.974  12.255 -0.2899 -1.8205  0.2398
 6707TIP3   OH241535   5.861   6.324  16.488 -0.2888 -0.5967  0.4875
 6707TIP3    H141536   5.942   6.294  16.529  0.0063 -1.7296 -0.8598
 6707TIP3    H241537   5.801   6.339  16.561  1.5079  1.5558  1.6141
 6708TIP3   OH241538   6.701   4.238   0.950 -0.0658  0.6459 -0.2237
 6708TIP3    H141539   6.677   4.328   0.971  2.6036  1.3872 -0.0855
 6708TIP3    H241540   6.658   4.185   1.018 -1.5587  1.7760 -0.2360
 6709TIP3   OH241541   0.068   1.139   3.804 -0.0724 -0.1600 -0.1831
 6709TIP3    H141542  -0.007   1.178   3.759  0.4935 -0.3242 -1.3046
 6709TIP3    H241543   0.131   1.120   3.734  0.4104 -1.4093  0.5486
 6710TIP3   OH241544   5.993   0.398  16.800 -0.1618 -0.4080  0.2128
 6710TIP3    H141545   5.971   0.450  16.722  1.5105 -1.7966 -1.3059
 6710TIP3    H241546   5.999   0.308  16.767 -0.3494 -1.1801  2.1794
 6711TIP3   OH241547   2.972   2.270  16.800 -0.2104  0.5643 -0.3267
 6711TIP3    H141548   2.980   2.183  16.839 -2.5365  0.4230 -0.0350
 6711TIP3    H241549   2.941   2.253  16.711  2.8592  0.9984 -1.6054
 6712TIP3   OH241550   2.768   4.000   1.274 -0.0096 -0.0414  0.3782
 6712TIP3    H141551   2.739   4.086   1.245  0.2968  0.1397  0.5981
 6712TIP3    H241552   2.858   3.994   1.242  0.3719  0.2040  1.3685
 6713TIP3   OH241553   5.531   2.913   5.555 -0.1002  0.4695  0.0789
 6713TIP3    H141554   5.505   2.995   5.512  1.5036  0.3152 -1.3036
 6713TIP3    H241555   5.542   2.937   5.647  1.4047  2.1564 -0.4651
 6714TIP3   OH241556   1.681   0.904  14.065  0.1133  0.2143 -0.6908
 6714TIP3    H141557   1.749   0.839  14.081  1.4504  0.9984 -2.8417
 6714TIP3    H241558   1.663   0.942  14.152  1.5042 -0.8641  0.1055
 6715TIP3   OH241559   2.005   0.747   5.430  0.3135 -0.3559 -0.1167
 6715TIP3    H141560   2.031   0.692   5.356 -0.1132 -0.0491 -0.5011
 6715TIP3    H241561   2.038   0.834   5.408 -0.4690 -0.1028 -0.3052
 6716TIP3   OH241562   2.399   4.115   4.200 -0.2849  0.2189 -0.2121
 6716TIP3    H141563   2.308   4.115   4.170 -0.3520  3.1138 -0.2581
 6716TIP3    H241564   2.422   4.208   4.207  2.4186 -0.4318  0.6032
 6717TIP3   OH241565   6.652   5.780   4.794  0.3219 -0.9135  0.0994
 6717TIP3    H141566   6.593   5.722   4.745 -0.4967 -1.4818  1.7050
 6717TIP3    H241567   6.709   5.721   4.843  1.2682 -0.3498 -0.3021
 6718TIP3   OH241568   0.856   4.169  15.626 -0.2374  0.4495  0.0477
 6718TIP3    H141569   0.882   4.077  15.619 -1.2920  0.1735 -0.4946
 6718TIP3    H241570   0.785   4.178  15.564 -2.2417  0.8717  2.2709
 6719TIP3   OH241571   4.555   1.934   5.538  0.2235  0.0064  0.0075
 6719TIP3    H141572   4.520   1.970   5.456  0.5690  1.8406  0.6406
 6719TIP3    H241573   4.574   2.010   5.592  1.9917 -1.0783  1.0123
 6720TIP3   OH241574   1.507   5.350   5.251 -0.2952  0.6689  0.0865
 6720TIP3    H141575   1.552   5.420   5.297 -0.6111  0.4666  0.7225
 6720TIP3    H241576   1.574   5.283   5.235 -0.5934 -0.2208  2.2014
 6721TIP3   OH241577   3.685   6.163  15.431  0.3232 -0.6844 -0.5468
 6721TIP3    H141578   3.629   6.240  15.423  1.2415 -0.0808 -1.2682
 6721TIP3    H241579   3.673   6.135  15.522 -2.2413 -1.4488 -1.0379
 6722TIP3   OH241580   2.207   6.103  13.791 -0.1676  0.2629 -0.3299
 6722TIP3    H141581   2.297   6.103  13.822  0.1466 -0.3286 -1.1919
 6722TIP3    H241582   2.154   6.078  13.867  0.7146 -2.8022 -0.5939
 6723TIP3   OH241583   5.735   2.005   0.570 -0.1509  0.3361  0.0706
 6723TIP3    H141584   5.781   2.076   0.615 -1.1237  1.1930 -0.2152
 6723TIP3    H241585   5.742   2.028   0.477  1.2852 -1.0665 -0.2005
 6724TIP3   OH241586   2.485   6.561  17.549  0.7824 -0.2298 -0.3788
 6724TIP3    H141587   2.474   6.496  17.480 -0.3238 -0.2456 -0.2199
 6724TIP3    H241588   2.411   6.545  17.609  0.2759  1.3570 -0.5161
 6725TIP3   OH241589   2.327   2.415  12.617 -0.2207 -0.2150  0.4851
 6725TIP3    H141590   2.270   2.363  12.561 -0.7169 -0.6024  1.3422
 6725TIP3    H241591   2.383   2.351  12.661 -1.4388 -0.1455  2.2323
 6726TIP3   OH241592   5.860   4.794   0.267 -0.5564 -0.2142  0.7065
 6726TIP3    H141593   5.840   4.866   0.327 -1.0808 -0.5222  0.9073
 6726TIP3    H241594   5.847   4.715   0.320 -3.3494 -0.6045 -0.4345
 6727TIP3   OH241595   5.802   2.555   6.031  0.4170  0.3363  0.6278
 6727TIP3    H141596   5.770   2.582   5.945 -1.0188  0.2086  1.0991
 6727TIP3    H241597   5.810   2.637   6.080 -0.8916  0.2298  1.0531
 6728TIP3   OH241598   4.887   1.375   2.744  0.1276  0.0665 -0.5908
 6728TIP3    H141599   4.823   1.304   2.742  0.1191  0.0753 -0.6297
 6728TIP3    H241600   4.909   1.384   2.837 -1.4247  1.4123 -0.3240
 6729TIP3   OH241601   3.603   4.467  15.733  0.3647 -0.0595 -0.4083
 6729TIP3    H141602   3.685   4.428  15.762  1.6779  1.3760 -1.9530
 6729TIP3    H241603   3.628   4.523  15.659 -1.9383  0.8257 -0.6030
 6730TIP3   OH241604   2.345   5.245   2.530  0.5737 -0.4882 -0.7312
 6730TIP3    H141605   2.291   5.181   2.484 -3.0079  1.8934 -0.3216
 6730TIP3    H241606   2.364   5.205   2.614 -2.0485 -0.9662 -0.2649
 6731TIP3   OH241607   5.006   4.417   4.291 -0.2029  0.1135  0.0430
 6731TIP3    H141608   5.027   4.491   4.235  1.2439 -0.1290  0.2355
 6731TIP3    H241609   4.947   4.363   4.239  1.8038 -0.5708 -1.6390
 6732TIP3   OH241610   0.861   4.969  13.727  0.2194 -0.3661  0.9413
 6732TIP3    H141611   0.791   4.924  13.679  1.4940 -1.4534  0.0196
 6732TIP3    H241612   0.869   5.054  13.683  1.4708 -1.3997 -0.9983
 6733TIP3   OH241613   4.009   3.590  12.855 -0.3506 -1.0113 -0.6151
 6733TIP3    H141614   4.096   3.561  12.880 -0.1372 -0.4265 -0.6581
 6733TIP3    H241615   4.003   3.571  12.761  0.7753  1.3971 -1.2536
 6734TIP3   OH241616   3.969   5.994   5.165 -0.3300  0.3043  0.0778
 6734TIP3    H141617   3.878   5.971   5.185 -0.8363  1.9375 -0.2708
 6734TIP3    H241618   3.987   6.071   5.219  0.7002  0.2980 -0.2324
 6735TIP3   OH241619   4.845   2.635  13.984 -0.6119  0.5647  0.1349
 6735TIP3    H141620   4.913   2.680  13.934 -0.3940 -0.1937 -0.2740
 6735TIP3    H241621   4.873   2.543  13.986 -1.7030  0.2034 -0.1939
 6736TIP3   OH241622   0.643   4.814   2.692  0.3176  0.2875 -0.2646
 6736TIP3    H141623   0.680   4.902   2.692  1.4100 -0.1524 -0.2828
 6736TIP3    H241624   0.665   4.778   2.778  1.6014 -0.6400 -0.9446
 6737TIP3   OH241625   2.692   1.975   6.311 -0.1491 -0.0104  0.0223
 6737TIP3    H141626   2.772   1.990   6.260 -0.1634  0.0521  0.0185
 6737TIP3    H241627   2.685   1.880   6.317 -0.7024 -0.0498 -0.9780
 6738TIP3   OH241628   0.247   1.581  17.291 -0.0669 -0.6367 -0.6930
 6738TIP3    H141629   0.200   1.513  17.340 -1.2836  1.3285  0.9921
 6738TIP3    H241630   0.271   1.646  17.357  3.1225 -0.4723 -1.8775
 6739TIP3   OH241631   2.808   5.114  15.592  0.3878 -0.6533 -0.3152
 6739TIP3    H141632   2.765   5.061  15.526 -1.4410  0.2978  0.0595
 6739TIP3    H241633   2.743   5.125  15.661  0.5368  2.3425 -0.5272
 6740TIP3   OH241634   3.215   1.274  16.935  0.3185  0.2295  0.1895
 6740TIP3    H141635   3.159   1.350  16.924 -0.7617 -0.2751  1.8973
 6740TIP3    H241636   3.222   1.236  16.847 -2.7269 -0.1679  0.0413
 6741TIP3   OH241637   3.288   4.544   3.115 -0.3746 -0.4217  0.0770
 6741TIP3    H141638   3.263   4.635   3.099  0.1532 -0.6759 -2.5935
 6741TIP3    H241639   3.204   4.498   3.123 -0.6503  0.2999  1.8069
 6742TIP3   OH241640   0.897   1.208  16.324 -0.2961 -0.1851  0.5760
 6742TIP3    H141641   0.910   1.291  16.370 -1.7051  0.3024  0.1548
 6742TIP3    H241642   0.899   1.142  16.394  0.2346  0.2557  0.9892
 6743TIP3   OH241643   2.560   1.506  11.918 -0.2676  0.1492  0.7144
 6743TIP3    H141644   2.575   1.438  11.984  0.2348  0.3392  0.8038
 6743TIP3    H241645   2.622   1.575  11.941 -1.2655  0.9610  1.0597
 6744TIP3   OH241646   1.718   0.658  14.563 -0.1565  0.1176  0.2351
 6744TIP3    H141647   1.668   0.719  14.617  0.6289 -0.0445  1.1571
 6744TIP3    H241648   1.665   0.649  14.483 -2.0384 -0.7176  1.4984
 6745TIP3   OH241649   3.969   1.484  11.234  0.2214  0.6802 -0.2941
 6745TIP3    H141650   3.897   1.488  11.171  0.9180 -1.7213 -1.3619
 6745TIP3    H241651   4.042   1.449  11.184  1.6034  1.2342  1.2467
 6746TIP3   OH241652   5.488   1.060  13.858 -0.3540  0.2089 -0.7416
 6746TIP3    H141653   5.548   1.067  13.784  2.0447  1.7933  1.1968
 6746TIP3    H241654   5.447   1.146  13.865  0.2496  0.4253  0.3758
 6747TIP3   OH241655   1.548   1.773   2.043  0.0728  0.6380 -0.7424
 6747TIP3    H141656   1.524   1.841   1.980  1.7402  0.5475 -1.5175
 6747TIP3    H241657   1.600   1.710   1.992  3.1267  1.5282  1.0467
 6748TIP3   OH241658   0.955   1.122  16.908 -0.5620  0.2950  0.1504
 6748TIP3    H141659   1.020   1.148  16.843  1.4280  1.2273  2.3573
 6748TIP3    H241660   0.892   1.069  16.859  0.3310  1.6273 -2.6566
 6749TIP3   OH241661   3.398   0.350   5.877  0.5518 -0.5862  0.1159
 6749TIP3    H141662   3.331   0.418   5.880 -0.0154 -1.0325 -1.7084
 6749TIP3    H241663   3.480   0.398   5.860  0.4104 -0.2304  0.4090
 6750TIP3   OH241664   2.360   1.168  15.834 -0.3781  0.3117  0.2518
 6750TIP3    H141665   2.363   1.185  15.740 -0.4183  1.6580  0.4670
 6750TIP3    H241666   2.376   1.074  15.842 -0.8021  0.0977 -1.1190
 6751TIP3   OH241667   2.993   5.385  13.568 -0.1498 -0.0969  0.4780
 6751TIP3    H141668   3.017   5.353  13.655  0.2168  1.3326  0.9181
 6751TIP3    H241669   3.015   5.312  13.509  1.5109 -0.3250  1.3336
 6752TIP3   OH241670   3.209   0.413   0.135 -0.4243 -0.4620  0.2306
 6752TIP3    H141671   3.174   0.357   0.067 -1.1108  0.0870  0.1232
 6752TIP3    H241672   3.240   0.491   0.089  1.5329 -1.1696  0.2366
 6753TIP3   OH241673   4.477   4.291   2.223  0.4878 -0.0153  0.2394
 6753TIP3    H141674   4.485   4.342   2.143  0.1723  0.6206  0.6046
 6753TIP3    H241675   4.557   4.310   2.272 -0.2256  1.2479  0.9913
 6754TIP3   OH241676   3.025   1.305  15.868 -0.0140  0.0776 -0.5863
 6754TIP3    H141677   3.088   1.281  15.936 -3.2620 -0.4617  2.5090
 6754TIP3    H241678   3.018   1.400  15.874 -1.1333 -0.0612  0.7590
 6755TIP3   OH241679   1.230   6.681   1.801  0.2169  0.1620  0.6184
 6755TIP3    H141680   1.238   6.763   1.850  1.0077  0.4430  0.0512
 6755TIP3    H241681   1.227   6.709   1.709  0.3828 -0.4389  0.4277
 6756TIP3   OH241682   2.085   0.010   0.948 -0.1269 -0.1072  0.1683
 6756TIP3    H141683   2.052   0.097   0.927 -2.8538 -0.8803  0.7276
 6756TIP3    H241684   2.025  -0.050   0.902  1.4110 -1.6941  0.1267
 6757TIP3   OH241685   5.824   6.197  11.324  0.1905  0.0154 -0.1877
 6757TIP3    H141686   5.818   6.287  11.292  1.7404  0.4133  0.5334
 6757TIP3    H241687   5.868   6.205  11.409  0.0326 -1.3992  0.0448
 6758TIP3   OH241688   3.566   1.627  14.564 -0.2563  0.0145 -0.3489
 6758TIP3    H141689   3.640   1.687  14.554  1.9163 -1.9662  2.0331
 6758TIP3    H241690   3.521   1.629  14.480  2.6762  1.1914 -2.0466
 6759TIP3   OH241691   5.685   1.713   3.897 -0.7876  0.0038 -0.3947
 6759TIP3    H141692   5.707   1.785   3.838  0.3635  1.1889  1.3705
 6759TIP3    H241693   5.762   1.656   3.896 -1.9503 -1.6868 -2.3074
 6760TIP3   OH241694   3.817   0.027   3.721 -0.1772 -0.3987 -0.4236
 6760TIP3    H141695   3.777   0.056   3.639  1.1262  0.2766 -0.8581
 6760TIP3    H241696   3.881   0.096   3.741 -0.0247 -0.8839  0.8236
 6761TIP3   OH241697   0.781   5.438  17.116  0.2098  0.5051  0.2034
 6761TIP3    H141698   0.858   5.440  17.173 -0.3883 -0.0509  1.0449
 6761TIP3    H241699   0.715   5.488  17.163 -0.3456 -0.1174  0.0955
 6762TIP3   OH241700   2.578   3.853  14.652 -0.5059  0.3409  0.0947
 6762TIP3    H141701   2.533   3.805  14.721 -0.6821 -0.1371 -0.3430
 6762TIP3    H241702   2.564   3.800  14.573  0.4397  0.4182 -0.1369
 6763TIP3   OH241703   0.066   6.362  14.740 -0.1517  0.0821  0.0624
 6763TIP3    H141704   0.092   6.307  14.814  0.3530 -0.4314 -0.4756
 6763TIP3    H241705  -0.021   6.393  14.762  0.3530  0.6907  1.2830
 6764TIP3   OH241706   4.110   0.344  16.029 -0.1160 -0.0416  0.5134
 6764TIP3    H141707   4.182   0.290  15.997 -0.6546 -1.1928  1.1704
 6764TIP3    H241708   4.061   0.369  15.951  1.6223  1.7454 -0.0722
 6765TIP3   OH241709   1.097   1.955  16.818  0.1562 -0.1580  0.3844
 6765TIP3    H141710   1.086   2.004  16.900  0.2146 -0.6174  0.6713
 6765TIP3    H241711   1.015   1.968  16.771  0.1770  0.2253  0.4561
 6766TIP3   OH241712   2.857   4.329   0.270 -0.1636  0.2583 -0.5294
 6766TIP3    H141713   2.920   4.258   0.268  1.1430  1.3418  0.5877
 6766TIP3    H241714   2.885   4.388   0.200  1.6025  1.9416  1.4822
 6767TIP3   OH241715   0.936   2.260   0.200  0.7236 -0.0948  0.0081
 6767TIP3    H141716   0.914   2.171   0.169  0.6061 -0.1402  0.2177
 6767TIP3    H241717   0.854   2.293   0.237  1.4325 -1.0265  2.6673
 6768TIP3   OH241718   1.568   2.498  15.537  0.3575  0.1591  0.4245
 6768TIP3    H141719   1.509   2.445  15.483 -0.6769  0.7820  0.9145
 6768TIP3    H241720   1.645   2.443  15.549 -1.0018 -1.6192  1.6252
 6769TIP3   OH241721   4.475   5.899  16.975 -0.6450 -0.2779  0.3724
 6769TIP3    H141722   4.412   5.946  17.030  0.2418 -0.1085  1.2740
 6769TIP3    H241723   4.545   5.962  16.959 -1.3773  0.0283 -1.8873
 6770TIP3   OH241724   1.072   1.113   1.956 -0.0824 -0.1916 -0.3583
 6770TIP3    H141725   1.031   1.073   2.032 -0.0093 -0.6163 -0.5418
 6770TIP3    H241726   1.119   1.188   1.991  0.8783 -1.0297  0.1787
 6771TIP3   OH241727   2.771   3.579  14.795  0.2371 -0.0858 -0.2636
 6771TIP3    H141728   2.761   3.672  14.812  1.3284  0.0407 -0.2399
 6771TIP3    H241729   2.681   3.545  14.792 -0.1307  0.3771  2.8585
 6772TIP3   OH241730   5.967   4.705   6.298  0.2857  0.1837  0.1348
 6772TIP3    H141731   5.996   4.662   6.217  1.4048  0.2806  0.4639
 6772TIP3    H241732   5.882   4.666   6.317  0.2624 -0.2433 -0.7865
 6773TIP3   OH241733   3.886   4.439  11.782  0.6876 -0.3047  0.0412
 6773TIP3    H141734   3.837   4.515  11.814  2.5771  0.1454  2.1087
 6773TIP3    H241735   3.818   4.372  11.770 -0.6387  0.6669  1.5412
 6774TIP3   OH241736   4.106   5.187  13.046 -0.6003  0.6975 -0.6859
 6774TIP3    H141737   4.141   5.139  13.121 -0.1061  0.8200 -0.8355
 6774TIP3    H241738   4.072   5.119  12.988  1.1380  0.4133 -1.4349
 6775TIP3   OH241739   0.320   5.463  15.915 -0.2420  0.3839  0.0258
 6775TIP3    H141740   0.257   5.403  15.956  1.1193 -0.4728  0.9393
 6775TIP3    H241741   0.302   5.457  15.822  0.8575 -2.6907 -0.0885
 6776TIP3   OH241742   0.934   1.304   6.179 -0.2535 -0.2230 -0.2203
 6776TIP3    H141743   0.886   1.328   6.258 -0.5376  0.6572 -0.6343
 6776TIP3    H241744   1.014   1.263   6.210 -1.8798 -3.0925  0.4907
 6777TIP3   OH241745   1.414   0.030   1.041 -0.3705 -0.6823  0.5117
 6777TIP3    H141746   1.424   0.046   1.135  1.0563  0.2481  0.2300
 6777TIP3    H241747   1.502   0.041   1.005 -1.1916  0.8409 -1.2011
 6778TIP3   OH241748   3.729   4.301  11.995  0.1328 -0.0771 -0.4438
 6778TIP3    H141749   3.730   4.395  11.975 -2.1886  0.4543  1.3844
 6778TIP3    H241750   3.799   4.289  12.059 -0.4504  0.7268  0.3691
 6779TIP3   OH241751   0.288   5.904   2.014 -0.4759 -0.1885 -0.1248
 6779TIP3    H141752   0.212   5.959   2.034  0.1833  0.0662  1.8568
 6779TIP3    H241753   0.327   5.885   2.099  2.3494  0.5989 -1.1477
 6780TIP3   OH241754   6.665   4.530  15.429 -0.3824 -0.4655 -0.4180
 6780TIP3    H141755   6.639   4.496  15.344 -0.0624 -2.4496  0.2109
 6780TIP3    H241756   6.594   4.503  15.488 -1.1745  1.8736 -0.1937
 6781TIP3   OH241757   0.111   1.074  15.127 -0.4857  0.1166 -0.0453
 6781TIP3    H141758   0.165   0.998  15.151 -0.1701  0.2066 -0.4655
 6781TIP3    H241759   0.172   1.136  15.088 -0.9550  0.0317 -0.9488
 6782TIP3   OH241760   0.316   2.943  12.659  0.2692  0.8901  0.0953
 6782TIP3    H141761   0.346   2.887  12.588  0.6204  0.2047  0.7650
 6782TIP3    H241762   0.321   3.032  12.624  1.4856  0.6537 -0.3693
 6783TIP3   OH241763   5.718   6.220   3.652 -0.2737  0.4632 -0.4029
 6783TIP3    H141764   5.646   6.274   3.621 -1.4788 -1.3802 -0.9558
 6783TIP3    H241765   5.681   6.166   3.721  0.7779  0.0235 -0.1557
 6784TIP3   OH241766   3.228   5.714   3.822  0.6721  0.2922  0.4170
 6784TIP3    H141767   3.196   5.690   3.735  1.2043  3.3607 -0.7510
 6784TIP3    H241768   3.316   5.679   3.826  0.7619  0.3915 -0.4373
 6785TIP3   OH241769   3.300   2.769  12.559 -0.0180 -0.2537  0.2707
 6785TIP3    H141770   3.270   2.858  12.537  1.0963 -0.2274 -1.3093
 6785TIP3    H241771   3.286   2.762  12.653 -0.9358  1.2894  0.2908
 6786TIP3   OH241772   5.705   3.835  14.088  0.0507 -0.5650  0.6729
 6786TIP3    H141773   5.666   3.757  14.048  0.2766 -2.0927  3.2227
 6786TIP3    H241774   5.796   3.834  14.059  0.1705 -1.5469  1.0402
 6787TIP3   OH241775   5.746   4.933   2.793  0.3928  0.2465 -0.2358
 6787TIP3    H141776   5.694   4.860   2.826  2.2278 -0.7345  0.6137
 6787TIP3    H241777   5.732   4.931   2.699 -0.2700 -0.6547 -0.1358
 6788TIP3   OH241778   5.482   2.801  12.552 -0.0656  0.0150  0.5422
 6788TIP3    H141779   5.431   2.880  12.537  1.1561  0.8039  0.4702
 6788TIP3    H241780   5.466   2.780  12.645 -0.2657  0.4262  0.6026
 6789TIP3   OH241781   0.915   3.396  16.780 -0.4124 -0.3580  0.0386
 6789TIP3    H141782   0.938   3.435  16.696  1.0278 -0.3377  0.4153
 6789TIP3    H241783   0.821   3.412  16.789 -0.6172 -0.4668 -1.6042
 6790TIP3   OH241784   3.295   4.222   3.647  1.1444  0.3179 -0.1362
 6790TIP3    H141785   3.225   4.220   3.582  0.5485  1.0694  0.4706
 6790TIP3    H241786   3.313   4.130   3.666  1.5637  0.0703 -1.5980
 6791TIP3   OH241787   6.176   4.057  14.473 -0.2726  0.2864 -0.3947
 6791TIP3    H141788   6.167   3.966  14.500  0.4934  0.1676 -0.5360
 6791TIP3    H241789   6.243   4.093  14.531 -0.5099  0.7452 -0.3949
 6792TIP3   OH241790   2.420   3.167  16.076  0.0892 -0.4232 -0.0897
 6792TIP3    H141791   2.403   3.222  15.999  0.2325 -0.1715  0.0592
 6792TIP3    H241792   2.496   3.207  16.118 -0.1306 -0.4230  0.3113
 6793TIP3   OH241793   1.222   4.009  17.628 -0.0497  0.0276 -0.7235
 6793TIP3    H141794   1.184   4.041  17.546 -0.1167  1.0545 -0.3064
 6793TIP3    H241795   1.313   4.040  17.626  0.4893 -1.4837 -1.2140
 6794TIP3   OH241796   2.072   0.272  14.179  0.7649  0.0068  0.4775
 6794TIP3    H141797   2.081   0.354  14.227  0.2051 -1.1173  2.6326
 6794TIP3    H241798   1.980   0.269  14.153  1.6189  2.0357 -3.6055
 6795TIP3   OH241799   4.382   3.190  15.997  0.0215 -0.1084 -0.3135
 6795TIP3    H141800   4.326   3.268  15.993 -0.7421 -0.5893  0.6018
 6795TIP3    H241801   4.323   3.117  15.977  0.6180 -0.5021 -0.6519
 6796TIP3   OH241802   4.656   5.610   0.842 -0.0106 -0.3526 -0.1768
 6796TIP3    H141803   4.723   5.547   0.866 -0.5909 -0.6424  0.7477
 6796TIP3    H241804   4.574   5.571   0.873 -0.5347  0.2664 -0.7474
 6797TIP3   OH241805   2.012   2.325  17.286  0.3427  0.1112  0.0177
 6797TIP3    H141806   1.984   2.404  17.333 -0.6699 -0.2696  0.0749
 6797TIP3    H241807   1.955   2.322  17.209  0.6152 -0.3673 -0.1671
 6798TIP3   OH241808   2.227   5.742   5.978 -0.1891 -0.1711 -0.1204
 6798TIP3    H141809   2.271   5.671   5.931  0.6519  0.8789 -0.9834
 6798TIP3    H241810   2.276   5.750   6.060 -1.7332 -2.0868  1.0783
 6799TIP3   OH241811   5.345   2.416  16.273  0.4356 -0.0251 -0.2281
 6799TIP3    H141812   5.390   2.453  16.349 -0.0433 -0.5271  0.3081
 6799TIP3    H241813   5.280   2.483  16.250 -0.8500 -0.7361  1.1248
 6800TIP3   OH241814   3.423   2.097   4.926  0.1131  0.2683 -0.1335
 6800TIP3    H141815   3.360   2.105   4.997  1.7801 -3.1552  1.9746
 6800TIP3    H241816   3.372   2.062   4.853 -0.9663  0.3487  0.5580
 6801TIP3   OH241817   5.585   4.337  13.372 -0.5081  0.2247 -0.1912
 6801TIP3    H141818   5.497   4.360  13.402 -0.1733  0.4582  0.6359
 6801TIP3    H241819   5.644   4.371  13.440  0.1622 -0.8231 -0.2120
 6802TIP3   OH241820   0.296   5.897   5.171 -0.4171 -0.5456 -0.0161
 6802TIP3    H141821   0.369   5.954   5.148  0.0280  0.0552  2.5551
 6802TIP3    H241822   0.335   5.810   5.179  0.3283 -0.0577  2.3682
 6803TIP3   OH241823   3.535   4.802   4.099 -0.3743  0.4244  0.2390
 6803TIP3    H141824   3.565   4.760   4.180 -0.3115 -0.3473 -0.1748
 6803TIP3    H241825   3.554   4.737   4.030 -1.8702  0.4223 -0.1960
 6804TIP3   OH241826   1.158   0.832   1.824  0.2172 -0.0523 -0.3447
 6804TIP3    H141827   1.124   0.915   1.859  0.8020 -0.6557  1.8003
 6804TIP3    H241828   1.235   0.857   1.773  0.6976  0.6920  0.7223
 6805TIP3   OH241829   5.394   5.525   2.821 -0.1588 -0.0861 -0.3024
 6805TIP3    H141830   5.385   5.460   2.891 -0.3810  1.6750  1.4271
 6805TIP3    H241831   5.488   5.544   2.818 -0.0357 -0.7797 -1.1166
 6806TIP3   OH241832   4.042   2.793  13.981  0.5737 -0.3257 -0.3071
 6806TIP3    H141833   4.108   2.799  13.912  1.0602 -2.0002 -0.0237
 6806TIP3    H241834   4.026   2.699  13.990 -0.9692 -0.0123  0.4684
 6807TIP3   OH241835   1.476   2.925   5.992  0.7427 -0.2479  0.1688
 6807TIP3    H141836   1.561   2.883   5.979  1.3028  0.8068  0.3147
 6807TIP3    H241837   1.412   2.855   5.979  1.6812 -1.4216  1.5991
 6808TIP3   OH241838   0.350   5.430  11.863  0.0255  0.1493 -0.0448
 6808TIP3    H141839   0.398   5.364  11.913 -0.8951  0.2453  0.9915
 6808TIP3    H241840   0.320   5.383  11.785  0.8423 -0.1947 -0.1686
 6809TIP3   OH241841   3.576   3.760   2.537  0.5904 -0.5872  0.2390
 6809TIP3    H141842   3.643   3.720   2.593  3.0028  1.4821 -0.9634
 6809TIP3    H241843   3.574   3.852   2.565 -0.4580 -0.2218 -0.9671
 6810TIP3   OH241844   4.299   1.045   5.705  0.3778 -0.1409  0.1108
 6810TIP3    H141845   4.243   1.027   5.781 -0.8075  1.7173 -0.2550
 6810TIP3    H241846   4.256   1.117   5.660  3.0997  1.4616 -0.1722
 6811TIP3   OH241847   2.116   3.293  16.123 -0.0380 -0.3760  1.0655
 6811TIP3    H141848   2.142   3.229  16.188  1.5469 -1.0802 -0.1939
 6811TIP3    H241849   2.199   3.325  16.086 -0.8672 -0.8495 -1.3744
 6812TIP3   OH241850   3.018   6.608   3.133 -0.5709  0.7900 -0.4208
 6812TIP3    H141851   3.027   6.673   3.203 -1.0369 -1.4879  1.8949
 6812TIP3    H241852   3.063   6.530   3.166 -1.0083 -0.4658 -2.5790
 6813TIP3   OH241853   1.808   2.917   6.253  0.2842  0.2773 -0.1168
 6813TIP3    H141854   1.738   2.933   6.316  2.0746 -2.3455  2.8061
 6813TIP3    H241855   1.863   2.996   6.257 -0.2165  0.5898  0.7473
 6814TIP3   OH241856   0.821   5.078   3.256 -0.0182  0.5169  0.2975
 6814TIP3    H141857   0.888   5.075   3.324  0.3023  1.5541  0.0488
 6814TIP3    H241858   0.867   5.055   3.175  0.8293  4.0460 -0.4058
 6815TIP3   OH241859   3.542   6.481   0.650 -0.1656 -0.2611 -0.1692
 6815TIP3    H141860   3.623   6.471   0.601  0.6061  3.6537 -0.0712
 6815TIP3    H241861   3.472   6.477   0.584  0.4225 -0.2752 -0.7991
 6816TIP3   OH241862   0.516   0.932  14.760  0.2061 -0.3490 -0.4914
 6816TIP3    H141863   0.601   0.969  14.783 -0.1672  0.2653 -0.0799
 6816TIP3    H241864   0.464   1.007  14.731 -0.0848 -0.7737 -1.0785
 6817TIP3   OH241865   0.970   1.862  13.554  0.5106  0.2137  0.0261
 6817TIP3    H141866   0.935   1.844  13.466  0.2460  1.0324 -0.0469
 6817TIP3    H241867   0.894   1.858  13.611 -0.1539  3.6982 -0.3619
 6818TIP3   OH241868   0.116   3.867   3.152  0.1077 -0.6576  0.1177
 6818TIP3    H141869   0.066   3.911   3.083 -1.0639 -0.3504  1.1404
 6818TIP3    H241870   0.154   3.937   3.204  1.6164 -0.8859 -0.6136
 6819TIP3   OH241871   1.693   0.719   3.637  0.1086  0.1692 -0.4306
 6819TIP3    H141872   1.695   0.736   3.543  0.8825  1.5586 -0.1842
 6819TIP3    H241873   1.755   0.646   3.650  1.0504  0.8780 -0.8390
 6820TIP3   OH241874   5.263   5.911   5.133 -0.0735 -0.2486 -0.7010
 6820TIP3    H141875   5.255   5.996   5.090  4.7079  0.2024 -1.1434
 6820TIP3    H241876   5.273   5.848   5.061 -0.5724 -0.7862 -0.3128
 6821TIP3   OH241877   0.759   3.225  15.269 -0.3195  0.2920 -0.3857
 6821TIP3    H141878   0.814   3.236  15.191 -0.5099  0.0381 -0.5562
 6821TIP3    H241879   0.793   3.145  15.310 -0.1045  0.5218 -0.1124
 6822TIP3   OH241880   6.351   3.412  11.569 -0.0238 -0.0358 -0.1681
 6822TIP3    H141881   6.342   3.505  11.550  0.6566  0.3065  1.0838
 6822TIP3    H241882   6.418   3.381  11.507  0.7433  0.6163  0.3172
 6823TIP3   OH241883   3.671   1.538   6.214  0.3773 -0.0704 -0.6884
 6823TIP3    H141884   3.621   1.477   6.160 -2.1231  0.9221  0.3595
 6823TIP3    H241885   3.709   1.484   6.283  0.1405 -0.7473 -1.0813
 6824TIP3   OH241886   0.178   0.010   4.785 -0.3354  0.2427  0.2279
 6824TIP3    H141887   0.124   0.011   4.706  0.7438  0.2740 -0.5313
 6824TIP3    H241888   0.223  -0.075   4.782  0.7985  0.8320  0.0394
 6825TIP3   OH241889   5.073   0.701   5.363 -0.2178 -0.1223 -0.3732
 6825TIP3    H141890   5.132   0.642   5.317 -0.1112 -0.2039 -0.1294
 6825TIP3    H241891   5.055   0.770   5.300  1.7296  0.9929  0.2191
 6826TIP3   OH241892   0.322   6.042  13.365  0.4949 -0.2044 -0.1622
 6826TIP3    H141893   0.318   6.124  13.414  0.4844  0.2584 -0.9146
 6826TIP3    H241894   0.331   6.069  13.274 -0.1883 -1.0348 -0.4915
 6827TIP3   OH241895   0.938   3.263   4.633 -0.3190  0.5993 -0.1564
 6827TIP3    H141896   0.986   3.306   4.562 -0.3607  1.4220  0.3153
 6827TIP3    H241897   0.848   3.256   4.600 -0.4738  1.5293  0.0478
 6828TIP3   OH241898   5.879   4.418   1.651 -0.3340  0.0516 -0.0028
 6828TIP3    H141899   5.786   4.397   1.661 -0.2405 -0.0408  0.7456
 6828TIP3    H241900   5.880   4.512   1.632 -0.6343 -0.1641 -1.1740
 6829TIP3   OH241901   6.189   3.236  10.945 -0.7305 -0.6488 -0.2564
 6829TIP3    H141902   6.280   3.219  10.921 -0.4131 -1.5647  1.4766
 6829TIP3    H241903   6.192   3.320  10.991 -0.3932 -1.6286  1.5950
 6830TIP3   OH241904   1.037   1.853   4.604 -0.3357  0.5580  0.0943
 6830TIP3    H141905   0.984   1.922   4.642 -0.5891  0.1741  0.4392
 6830TIP3    H241906   0.976   1.800   4.552  0.0824  1.3588 -1.2711
 6831TIP3   OH241907   3.954   0.827  11.906 -0.1928 -0.4024  0.0914
 6831TIP3    H141908   3.945   0.921  11.890 -1.2595 -0.3293  1.0358
 6831TIP3    H241909   4.008   0.796  11.833  0.4669  0.9882 -0.0500
 6832TIP3   OH241910   5.439   1.282   3.729 -0.1841 -0.0130  0.3765
 6832TIP3    H141911   5.477   1.368   3.714 -3.7521  1.6207 -0.3556
 6832TIP3    H241912   5.460   1.232   3.651  1.3252  0.3881  0.4991
 6833TIP3   OH241913   6.064   3.792   1.648  0.1412 -0.1503 -0.1306
 6833TIP3    H141914   6.105   3.835   1.573  2.2035  0.3660  1.2049
 6833TIP3    H241915   6.129   3.727   1.676 -0.9910 -0.9697  0.6668
 6834TIP3   OH241916   1.312   0.855   4.641  0.9419 -0.0309  0.4329
 6834TIP3    H141917   1.368   0.923   4.678  0.3403  0.3753  0.6080
 6834TIP3    H241918   1.280   0.892   4.558 -0.9898  0.7541  1.4577
 6835TIP3   OH241919   1.970   2.580   5.410 -0.5729  0.0722  0.0963
 6835TIP3    H141920   1.897   2.626   5.369  0.1504  0.1380 -1.1513
 6835TIP3    H241921   2.016   2.649   5.459 -0.9304  0.1633  0.3150
 6836TIP3   OH241922   4.167   5.943   1.274  0.2676  0.7204 -0.4838
 6836TIP3    H141923   4.107   5.947   1.200 -0.4083  0.5580  0.0497
 6836TIP3    H241924   4.156   6.027   1.318 -0.8091  0.0608  0.5605
 6837TIP3   OH241925   1.971   2.789   3.799 -0.7109  0.3631  0.6131
 6837TIP3    H141926   1.910   2.799   3.726 -0.4400 -0.5485  0.2467
 6837TIP3    H241927   2.007   2.701   3.788 -0.4493  0.3260  1.6850
 6838TIP3   OH241928   3.635   4.312  13.502 -0.5947 -0.3788  0.2657
 6838TIP3    H141929   3.589   4.230  13.487 -0.8899 -0.6196  2.2332
 6838TIP3    H241930   3.717   4.286  13.542 -0.7341  0.2887  0.9925
 6839TIP3   OH241931   1.525   6.713  15.980 -0.6408 -0.0760 -0.0427
 6839TIP3    H141932   1.593   6.677  15.923  1.4312 -0.1093  2.2760
 6839TIP3    H241933   1.571   6.776  16.035 -2.7565  0.7803  0.8462
 6840TIP3   OH241934   0.704   1.883   2.801 -0.0942 -0.5378  0.1980
 6840TIP3    H141935   0.617   1.921   2.791  0.3176  0.5980  0.7580
 6840TIP3    H241936   0.738   1.876   2.711  0.3767  1.8396  0.1224
 6841TIP3   OH241937   6.234   0.210   1.693 -0.3299  0.3067  0.5486
 6841TIP3    H141938   6.259   0.267   1.766 -0.1286 -0.2652  0.9333
 6841TIP3    H241939   6.149   0.175   1.719  0.0792 -0.4723  0.8496
 6842TIP3   OH241940   4.612   3.304   3.136  0.1535 -0.6853  0.4357
 6842TIP3    H141941   4.528   3.258   3.143  0.2633 -0.8844  0.4404
 6842TIP3    H241942   4.630   3.335   3.224 -0.1203 -0.2849  0.3501
 6843TIP3   OH241943   5.100   1.112   3.641  0.4192 -0.4354  1.0174
 6843TIP3    H141944   5.045   1.186   3.669  0.2665 -0.1524  0.0176
 6843TIP3    H241945   5.180   1.121   3.693 -0.3831 -0.7298  2.3319
 6844TIP3   OH241946   2.865   2.693  12.730 -0.2886  0.1202  0.4345
 6844TIP3    H141947   2.870   2.675  12.637  0.7981  0.6067  0.3913
 6844TIP3    H241948   2.898   2.613  12.772  2.5368  1.1239  0.2924
 6845TIP3   OH241949   0.560   5.894  16.392  0.7187  0.0954  0.0712
 6845TIP3    H141950   0.626   5.862  16.330  0.5025 -1.8826  0.7982
 6845TIP3    H241951   0.599   5.880  16.478  0.3253  1.2345  0.4541
 6846TIP3   OH241952   3.029   2.724  17.477  0.3658 -0.2312 -0.2495
 6846TIP3    H141953   3.087   2.798  17.461  0.1765 -0.0431 -0.0665
 6846TIP3    H241954   3.064   2.683  17.556  2.0497 -1.8904 -1.7456
 6847TIP3   OH241955   2.716   2.489  14.221  0.2800  0.4155  0.1668
 6847TIP3    H141956   2.643   2.440  14.184  0.8078  0.7133 -1.3552
 6847TIP3    H241957   2.780   2.422  14.246 -0.0865  0.2070  0.5538
 6848TIP3   OH241958   2.231   3.995   5.584  0.5372  0.4977  0.7211
 6848TIP3    H141959   2.327   3.987   5.580  0.5075 -0.8601  1.8609
 6848TIP3    H241960   2.201   3.908   5.610 -0.8891  1.3037  1.9475
 6849TIP3   OH241961   5.947   2.340   6.077 -0.3354 -0.0890 -0.1655
 6849TIP3    H141962   5.871   2.393   6.051 -0.8108  0.3491  1.9449
 6849TIP3    H241963   6.011   2.353   6.006 -1.1879  1.7329 -0.6526
 6850TIP3   OH241964   4.105   6.412   0.615 -0.1024 -0.0372 -0.0291
 6850TIP3    H141965   4.031   6.445   0.666 -0.2692 -0.6328  0.1220
 6850TIP3    H241966   4.171   6.389   0.680 -0.2016 -0.5155 -0.0912
 6851TIP3   OH241967   0.816   6.211   0.787  0.0640 -0.1860  0.0213
 6851TIP3    H141968   0.747   6.181   0.846 -0.1775  1.0757  0.4197
 6851TIP3    H241969   0.806   6.157   0.709 -0.7443 -0.6868  0.4587
 6852TIP3   OH241970   1.858   3.885  16.706 -0.2629 -0.3553 -0.1485
 6852TIP3    H141971   1.896   3.835  16.634  1.1660  0.0035  0.3152
 6852TIP3    H241972   1.914   3.962  16.714 -2.2612  1.2202 -0.6561
 6853TIP3   OH241973   0.811   4.024   3.382 -0.6409 -0.3140 -0.1225
 6853TIP3    H141974   0.864   3.944   3.388  0.6070  0.5596  1.0409
 6853TIP3    H241975   0.744   4.012   3.450 -0.4262 -0.3472  0.0844
 6854TIP3   OH241976   6.141   5.149  15.439  0.1900 -0.6588  0.4661
 6854TIP3    H141977   6.133   5.131  15.533 -0.0543 -1.2648  0.3371
 6854TIP3    H241978   6.218   5.205  15.431  0.3269 -0.7672  1.0131
 6855TIP3   OH241979   0.837   4.202  12.414 -0.7039 -0.3437  0.1069
 6855TIP3    H141980   0.800   4.259  12.481  1.1181 -0.6385  1.4530
 6855TIP3    H241981   0.836   4.254  12.334 -0.4522  1.0235  0.9717
 6856TIP3   OH241982   4.394   5.776   5.695 -0.1546 -0.1589  0.1937
 6856TIP3    H141983   4.321   5.787   5.634 -1.2624 -1.0143  1.3197
 6856TIP3    H241984   4.353   5.750   5.778  1.1500  2.2459  1.7413
 6857TIP3   OH241985   5.371   0.967   2.131  0.0639 -0.3037  0.3160
 6857TIP3    H141986   5.333   0.886   2.165  0.3164 -0.1604  0.9426
 6857TIP3    H241987   5.403   1.013   2.208  0.2440  0.2313 -0.0729
 6858TIP3   OH241988   4.700   1.225   0.455 -0.3434  0.1621  0.2173
 6858TIP3    H141989   4.662   1.151   0.409 -1.7817  0.0507  1.4906
 6858TIP3    H241990   4.788   1.196   0.478  0.3639  0.1636 -2.2087
 6859TIP3   OH241991   5.855   5.790   0.231  0.0664 -0.0443 -0.5000
 6859TIP3    H141992   5.778   5.843   0.249  1.9468  3.2983 -1.4761
 6859TIP3    H241993   5.910   5.799   0.309  0.2611 -0.9409 -0.5136
 6860TIP3   OH241994   3.749   2.563   3.576 -0.3102 -0.2602 -0.0722
 6860TIP3    H141995   3.698   2.500   3.628  1.0954 -2.2744 -0.9729
 6860TIP3    H241996   3.687   2.632   3.555 -2.1242 -1.6072  0.5342
 6861TIP3   OH241997   1.851   2.093   3.252  0.4260  0.1328  0.4779
 6861TIP3    H141998   1.940   2.124   3.269  0.6587  1.9941 -3.1951
 6861TIP3    H241999   1.795   2.169   3.268 -0.5135 -0.8304  2.0789
 6862TIP3   OH242000   6.012   2.426  14.159  0.3088  0.8079  0.2235
 6862TIP3    H142001   6.060   2.509  14.150  1.6283  0.3826  2.4117
 6862TIP3    H242002   6.031   2.379  14.078  0.3390  2.2251 -0.6421
 6863TIP3   OH242003   4.903   4.645   1.767 -0.7166 -0.1316  0.0012
 6863TIP3    H142004   4.971   4.608   1.824 -1.8170  0.6554  1.9174
 6863TIP3    H242005   4.896   4.582   1.695  2.2974 -0.0396 -0.5305
 6864TIP3   OH242006   5.141   0.286   4.241  0.1995  0.2390  0.0539
 6864TIP3    H142007   5.175   0.199   4.259  1.2870 -0.0298 -2.8249
 6864TIP3    H242008   5.204   0.346   4.282 -0.1296 -0.2625  1.3528
 6865TIP3   OH242009   2.674   1.101  15.239  0.4077 -0.1004  0.1455
 6865TIP3    H142010   2.729   1.044  15.186  0.5659 -0.9311  1.1668
 6865TIP3    H242011   2.585   1.085  15.207  0.4098 -1.2134  0.6633
 6866TIP3   OH242012   5.983   1.669   2.349  0.7800 -0.1047  0.5251
 6866TIP3    H142013   6.027   1.647   2.431 -1.3418 -0.8276  1.5663
 6866TIP3    H242014   5.920   1.738   2.373  1.4895  1.1270 -0.9509
 6867TIP3   OH242015   3.467   1.127   1.602 -0.3674  0.3526 -0.1377
 6867TIP3    H142016   3.471   1.112   1.697 -2.2072  0.3288 -0.0376
 6867TIP3    H242017   3.427   1.214   1.594  0.7493  0.8269 -0.9063
 6868TIP3   OH242018   2.612   5.343  14.306 -0.4099 -0.4588  0.5413
 6868TIP3    H142019   2.578   5.257  14.283  0.3362 -0.4803 -0.5685
 6868TIP3    H242020   2.607   5.393  14.225  1.5232 -0.2658  0.4930
 6869TIP3   OH242021   6.386   2.159   0.850  0.2698 -0.0313 -0.0671
 6869TIP3    H142022   6.441   2.104   0.794 -0.0655  0.5705 -1.0185
 6869TIP3    H242023   6.444   2.187   0.921  1.2530  0.6910 -1.1079
 6870TIP3   OH242024   0.970   2.155  15.144 -0.0390  0.2547  0.3684
 6870TIP3    H142025   0.981   2.060  15.139  1.6544  0.4461  0.1217
 6870TIP3    H242026   0.879   2.169  15.117 -0.1279 -1.2469 -0.2257
 6871TIP3   OH242027   0.815   0.889   6.590 -0.2809  0.1409 -0.0549
 6871TIP3    H142028   0.770   0.873   6.673 -0.2287  0.7238  0.0883
 6871TIP3    H242029   0.886   0.825   6.589 -0.1681  0.2497  0.4384
 6872TIP3   OH242030   4.083   0.385   6.880  0.0396  0.3411 -0.3273
 6872TIP3    H142031   4.139   0.373   6.804 -1.4307 -1.3272 -1.2220
 6872TIP3    H242032   4.123   0.334   6.949  0.7448  0.9008 -0.3136
 6873TIP3   OH242033   3.301   6.614   6.046 -0.1426  0.0374 -0.5266
 6873TIP3    H142034   3.211   6.586   6.056 -0.0064 -0.2309  0.0211
 6873TIP3    H242035   3.298   6.710   6.052 -0.2257 -0.0437  0.9839
 6874TIP3   OH242036   3.524   5.879   2.800  0.3898 -0.2522  0.2564
 6874TIP3    H142037   3.525   5.951   2.737  1.2849 -0.5183 -0.0501
 6874TIP3    H242038   3.478   5.914   2.876  1.7621  1.0410  0.5369
 6875TIP3   OH242039   6.033   3.023   3.599 -0.0619 -0.5685 -0.2840
 6875TIP3    H142040   6.032   2.991   3.690  2.4117 -0.5516 -0.1817
 6875TIP3    H242041   6.017   3.117   3.606 -0.5640 -0.6702  0.0426
 6876TIP3   OH242042   2.889   1.563   3.081 -0.6001  0.0045 -0.0068
 6876TIP3    H142043   2.870   1.606   3.164 -0.3257  0.5833 -0.2450
 6876TIP3    H242044   2.907   1.634   3.020 -0.3051 -0.4375 -0.4403
 6877TIP3   OH242045   6.447   6.460   4.717 -0.4131 -0.4512 -0.3119
 6877TIP3    H142046   6.460   6.371   4.682  2.2762 -0.4724  0.4851
 6877TIP3    H242047   6.446   6.449   4.812  0.0328  0.3655 -0.2022
 6878TIP3   OH242048   5.949   1.101  14.412 -0.8621 -0.1347  0.6127
 6878TIP3    H142049   6.020   1.054  14.368 -0.3642  0.2104  1.0337
 6878TIP3    H242050   5.916   1.039  14.477 -0.1879  0.0911  1.1852
 6879TIP3   OH242051   5.871   2.832  10.689 -0.1729 -0.2835 -0.4143
 6879TIP3    H142052   5.881   2.745  10.727 -0.7095  0.7718  2.3740
 6879TIP3    H242053   5.954   2.877  10.708 -1.1872  0.9178  1.4825
 6880TIP3   OH242054   0.939   2.824  15.028  0.1974 -0.2743  0.0127
 6880TIP3    H142055   0.958   2.903  15.078 -1.0997 -0.9684  1.6988
 6880TIP3    H242056   0.849   2.836  14.998  0.2511 -0.7979 -0.3661
 6881TIP3   OH242057   1.754   3.594  15.286 -0.2229  0.1108  0.0046
 6881TIP3    H142058   1.842   3.582  15.248  0.4727 -0.6027  1.7364
 6881TIP3    H242059   1.719   3.505  15.292 -0.9169  0.3576 -0.2834
 6882TIP3   OH242060   0.093   0.526   0.714  0.6538  0.0275 -0.2379
 6882TIP3    H142061   0.134   0.507   0.629  0.2387  0.4188 -0.5331
 6882TIP3    H242062   0.166   0.555   0.769  0.9182 -0.1513 -0.4866
 6883TIP3   OH242063   5.837   4.221   2.533  0.0494  0.2604 -0.4701
 6883TIP3    H142064   5.868   4.311   2.535  0.0552  0.2867 -1.2696
 6883TIP3    H242065   5.756   4.221   2.583  1.2971  0.1981  1.6685
 6884TIP3   OH242066   6.554   4.105   5.032  0.3694 -0.3804  0.8411
 6884TIP3    H142067   6.518   4.088   4.945 -0.9775 -0.3281  1.3646
 6884TIP3    H242068   6.488   4.071   5.092 -0.0462  2.1146  1.8873
 6885TIP3   OH242069   2.593   5.612   1.718 -0.0072  0.2409 -0.3279
 6885TIP3    H142070   2.537   5.540   1.747 -0.6311 -0.2016 -2.4357
 6885TIP3    H242071   2.680   5.573   1.709 -0.0542  0.0953 -0.1538
 6886TIP3   OH242072   1.052   4.518  16.635 -0.2626  0.1839 -0.2107
 6886TIP3    H142073   1.031   4.439  16.686  0.3224  1.3959  2.0510
 6886TIP3    H242074   1.113   4.488  16.568 -2.1284 -1.7431 -1.1641
 6887TIP3   OH242075   4.244   0.724  17.068  0.2867  0.4162  0.2681
 6887TIP3    H142076   4.289   0.689  16.992 -0.9317 -0.0917 -0.2423
 6887TIP3    H242077   4.312   0.731  17.135  1.4904  1.3127 -0.9716
 6888TIP3   OH242078   4.723   1.240   1.238  0.2113  0.1412  0.2678
 6888TIP3    H142079   4.790   1.303   1.209  0.7805 -0.7888 -0.5028
 6888TIP3    H242080   4.677   1.285   1.308  0.3379  1.5864 -0.5365
 6889TIP3   OH242081   2.641   4.592   3.331  0.2743 -0.0779  0.4094
 6889TIP3    H142082   2.717   4.534   3.329 -0.7445 -1.4489  0.0994
 6889TIP3    H242083   2.627   4.609   3.424  1.7295  1.2749  0.4162
 6890TIP3   OH242084   1.477   0.957  13.577 -0.4518  0.4665  0.9645
 6890TIP3    H142085   1.551   0.901  13.553  1.0893  1.8817  2.1953
 6890TIP3    H242086   1.495   1.040  13.533 -0.6623  1.2041  2.2370
 6891TIP3   OH242087   3.085   0.970   0.056 -0.0408  0.4325 -0.1148
 6891TIP3    H142088   3.020   0.991  -0.011 -0.8978  0.8773  0.8441
 6891TIP3    H242089   3.097   1.051   0.105 -1.5706 -0.5739  2.0702
 6892TIP3   OH242090   4.464   3.767   4.498 -0.5649 -0.2188  0.2570
 6892TIP3    H142091   4.488   3.739   4.410  0.1211  0.2225  0.2943
 6892TIP3    H242092   4.453   3.862   4.491  0.8944  0.0295  0.9303
 6893TIP3   OH242093   4.297   4.596   0.096 -0.3155 -0.0933 -0.5843
 6893TIP3    H142094   4.204   4.577   0.091 -0.2875  0.0264 -3.0352
 6893TIP3    H242095   4.305   4.684   0.059  0.8283 -0.3836 -1.0786
 6894TIP3   OH242096   4.852   5.444   5.516 -0.2070  0.7664  0.8564
 6894TIP3    H142097   4.876   5.533   5.541 -1.4557  0.6922  2.5110
 6894TIP3    H242098   4.764   5.431   5.552 -1.1735 -0.2540 -1.6509
 6895TIP3   OH242099   6.302   4.645   2.286 -0.0791 -0.2610  0.4850
 6895TIP3    H142100   6.263   4.692   2.212  0.6104 -0.8721 -0.2823
 6895TIP3    H242101   6.256   4.679   2.362 -1.7662 -0.6008 -0.3337
 6896TIP3   OH242102   3.601   4.600  13.416 -0.0123 -0.6307  0.4715
 6896TIP3    H142103   3.606   4.505  13.424 -0.2929 -0.8373 -1.3945
 6896TIP3    H242104   3.590   4.631  13.506  1.0968 -2.2729  1.2132
 6897TIP3   OH242105   4.009   2.710   5.776 -0.1843  0.5473 -0.0011
 6897TIP3    H142106   4.059   2.628   5.771 -0.4055  0.4523 -0.9482
 6897TIP3    H242107   3.994   2.723   5.869  1.3352  0.4203  0.2895
 6898TIP3   OH242108   4.982   1.737  13.572 -0.0255 -0.2396  0.0178
 6898TIP3    H142109   4.891   1.719  13.547 -1.4033  0.4853  3.7696
 6898TIP3    H242110   4.994   1.829  13.552 -0.1601 -0.3065 -0.3801
 6899TIP3   OH242111   4.908   1.830   1.748  0.1966  0.4016  0.1399
 6899TIP3    H142112   4.820   1.861   1.726  0.2493 -0.4866 -1.4862
 6899TIP3    H242113   4.966   1.900   1.718  0.0664  1.1708  1.5791
 6900TIP3   OH242114   3.404   1.830  13.671  0.9203 -0.1131 -0.1200
 6900TIP3    H142115   3.327   1.810  13.723  1.0593  1.1554  0.6402
 6900TIP3    H242116   3.471   1.769  13.701  0.7498  0.0486  0.6117
 6901TIP3   OH242117   4.638   4.852  12.099 -0.6433 -0.1746 -0.0182
 6901TIP3    H142118   4.726   4.885  12.084 -1.0221  0.5940 -0.5957
 6901TIP3    H242119   4.628   4.852  12.194 -0.0685 -0.1478  0.0452
 6902TIP3   OH242120   1.323   5.812   6.281 -0.0899 -0.2139 -0.2567
 6902TIP3    H142121   1.374   5.832   6.360 -0.2935 -1.1759  0.1422
 6902TIP3    H242122   1.295   5.721   6.294 -0.5299 -0.2255 -1.2248
 6903TIP3   OH242123   4.039   0.828  15.670 -0.2286 -0.3872  0.5897
 6903TIP3    H142124   4.085   0.763  15.617 -1.0306 -0.2582 -0.3047
 6903TIP3    H242125   4.060   0.805  15.761  1.2374 -0.5651  0.2216
 6904TIP3   OH242126   6.480   3.619   3.841 -0.7282  0.2140  0.1467
 6904TIP3    H142127   6.534   3.544   3.867 -0.5124  0.2616 -0.1638
 6904TIP3    H242128   6.419   3.631   3.915  0.7460  1.1891  1.2631
 6905TIP3   OH242129   5.666   0.045  16.212 -0.1554 -0.6500  0.4461
 6905TIP3    H142130   5.744   0.094  16.237 -0.4166 -0.6687  1.3348
 6905TIP3    H242131   5.634   0.089  16.134 -0.6723  0.9346  1.5016
 6906TIP3   OH242132   4.982   2.685  17.003  0.0083 -0.2748 -0.2011
 6906TIP3    H142133   4.898   2.708  16.964 -0.0067  2.9281  1.3466
 6906TIP3    H242134   4.961   2.659  17.093  0.5274 -1.3400 -0.3771
 6907TIP3   OH242135   2.687   1.885   4.486  0.0751 -0.5114  0.2606
 6907TIP3    H142136   2.635   1.844   4.416 -0.7668 -0.9620  1.1288
 6907TIP3    H242137   2.672   1.829   4.562  1.0726 -0.0885  0.7787
 6908TIP3   OH242138   5.227   2.333  11.589  0.6285 -0.2000  0.5810
 6908TIP3    H142139   5.280   2.344  11.511 -0.4060 -0.0162 -0.1111
 6908TIP3    H242140   5.151   2.389  11.575 -0.7554 -1.9718  0.6401
 6909TIP3   OH242141   4.466   5.721   5.389 -0.3110  0.2295 -0.2955
 6909TIP3    H142142   4.438   5.629   5.390 -0.2861  0.1958 -1.3619
 6909TIP3    H242143   4.409   5.763   5.326 -0.4764  1.0135  0.3573
 6910TIP3   OH242144   5.231   5.720  12.971 -0.2463  0.2910  0.4017
 6910TIP3    H142145   5.311   5.750  13.012  0.6707 -1.1074 -0.2715
 6910TIP3    H242146   5.168   5.712  13.043  0.8292 -0.5210  1.2932
 6911TIP3   OH242147   0.339   0.497   4.349 -0.5297 -0.1275  0.8689
 6911TIP3    H142148   0.383   0.571   4.306  1.7546 -1.5373  0.6310
 6911TIP3    H242149   0.409   0.449   4.392 -1.8945 -2.3296  0.8067
 6912TIP3   OH242150   6.458   4.823  15.968  0.9760  0.0334 -0.2974
 6912TIP3    H142151   6.543   4.866  15.955  1.1000 -0.4343 -1.0708
 6912TIP3    H242152   6.455   4.803  16.062  0.1461  3.3467  0.5247
 6913TIP3   OH242153   4.397   2.079   5.806  0.3348 -1.0622 -0.8660
 6913TIP3    H142154   4.464   2.129   5.759  0.1831 -1.8547 -1.9548
 6913TIP3    H242155   4.433   2.068   5.894  0.1123  1.4559 -0.3650
 6914TIP3   OH242156   4.082   4.412   2.553  0.0826 -0.1432  0.0447
 6914TIP3    H142157   4.109   4.502   2.568  1.4404 -0.7579  1.5200
 6914TIP3    H242158   4.163   4.361   2.556 -0.6843 -1.4622 -0.4491
 6915TIP3   OH242159   5.622   6.553  12.164  0.1947  0.3713  0.4139
 6915TIP3    H142160   5.588   6.584  12.080  0.9001 -0.6107 -0.2502
 6915TIP3    H242161   5.630   6.633  12.217  3.0617  1.6131 -1.6294
 6916TIP3   OH242162   4.708   3.231   4.972  0.0196  0.2148 -0.0712
 6916TIP3    H142163   4.700   3.152   4.919 -0.8418  0.3950 -0.2297
 6916TIP3    H242164   4.696   3.201   5.062 -0.4329  0.1728 -0.1413
 6917TIP3   OH242165   5.852   2.225   0.679 -0.8210 -0.0019 -0.2773
 6917TIP3    H142166   5.923   2.209   0.742 -1.5427 -0.7723  0.3662
 6917TIP3    H242167   5.792   2.283   0.726 -0.2170  1.3885 -1.1418
 6918TIP3   OH242168   5.359   3.951  16.122 -0.0276 -0.4584  0.6905
 6918TIP3    H142169   5.276   3.912  16.098 -0.5764 -0.4833  2.4776
 6918TIP3    H242170   5.344   3.988  16.209  1.4734  0.6491  0.5205
 6919TIP3   OH242171   2.539   2.165  11.294 -0.6622  0.3702 -0.0300
 6919TIP3    H142172   2.633   2.160  11.276 -0.3395 -0.0835  1.5689
 6919TIP3    H242173   2.531   2.232  11.363 -1.6741  1.3215 -1.0297
 6920TIP3   OH242174   5.655   2.040  13.246  0.1488 -0.1695  0.1633
 6920TIP3    H142175   5.724   1.988  13.204 -1.0633 -0.8427 -1.0598
 6920TIP3    H242176   5.624   2.099  13.177 -1.1788 -0.5834  0.3799
 6921TIP3   OH242177   0.603   6.330   5.160  0.0539  0.0979 -0.2648
 6921TIP3    H142178   0.603   6.405   5.220  0.1240  1.2297 -1.6233
 6921TIP3    H242179   0.517   6.333   5.119 -0.0171 -0.6981 -0.1795
 6922TIP3   OH242180   0.024   5.174   1.139  0.6185  0.0935  0.0429
 6922TIP3    H142181  -0.017   5.119   1.072  0.1718  1.4417 -0.8281
 6922TIP3    H242182   0.092   5.223   1.092 -1.6119  3.2635 -0.2166
 6923TIP3   OH242183   3.865   4.814   2.205  0.3527  0.2532 -0.3245
 6923TIP3    H142184   3.793   4.764   2.243  0.0173  2.1251  1.7402
 6923TIP3    H242185   3.941   4.793   2.260  0.1402  2.0850  0.7658
 6924TIP3   OH242186   4.461   1.657  11.904 -0.0222 -0.0470  0.2491
 6924TIP3    H142187   4.419   1.665  11.990 -2.4434  0.0847 -0.8717
 6924TIP3    H242188   4.455   1.564  11.884  3.2947 -0.6405  1.4369
 6925TIP3   OH242189   3.466   6.664  14.888 -0.2669 -0.4558  0.1229
 6925TIP3    H142190   3.441   6.640  14.977 -1.1663  0.7417  0.2131
 6925TIP3    H242191   3.536   6.728  14.899 -0.5040 -0.1715 -0.0278
 6926TIP3   OH242192   1.589   2.771   2.410  0.4543  0.2525  0.6080
 6926TIP3    H142193   1.561   2.682   2.390  2.1681  0.2582 -2.4878
 6926TIP3    H242194   1.508   2.822   2.416 -0.4427 -0.9999 -0.4770
 6927TIP3   OH242195   0.700   5.756   5.644 -0.0847 -0.4561  0.4518
 6927TIP3    H142196   0.714   5.830   5.586 -2.1271 -0.4588 -0.1333
 6927TIP3    H242197   0.689   5.795   5.731  0.9069 -0.2836  0.5143
 6928TIP3   OH242198   1.063   3.266  12.038 -0.7540  0.3927  0.1914
 6928TIP3    H142199   1.120   3.190  12.022  0.8962  1.5130  0.5763
 6928TIP3    H242200   1.007   3.239  12.111 -0.0931 -0.3966  0.4128
 6929TIP3   OH242201   0.200   4.771   2.947 -0.0840  0.1999  0.2429
 6929TIP3    H142202   0.250   4.690   2.960  0.3295  0.4356  0.1309
 6929TIP3    H242203   0.255   4.839   2.986 -1.3471  0.1728  2.1863
 6930TIP3   OH242204   0.092   6.144   2.455  0.1236 -0.3877  0.1982
 6930TIP3    H142205   0.133   6.228   2.435  1.4719 -1.5171 -2.3659
 6930TIP3    H242206   0.002   6.152   2.423  0.4199 -0.0754 -0.5811
 6931TIP3   OH242207   6.037   1.859  16.383  0.2519 -0.3701  0.3850
 6931TIP3    H142208   5.962   1.824  16.432  0.8929 -0.4532  1.3340
 6931TIP3    H242209   6.010   1.854  16.291 -0.6148 -1.0827  0.6634
 6932TIP3   OH242210   1.188   6.022  12.700  0.0278 -0.0941 -0.1803
 6932TIP3    H142211   1.109   5.989  12.743 -0.1934 -1.6339 -1.6755
 6932TIP3    H242212   1.161   6.105  12.659 -0.2753  0.3660  0.9214
 6933TIP3   OH242213   4.464   4.891   2.733 -0.3103 -0.2075 -0.0398
 6933TIP3    H142214   4.518   4.966   2.757 -1.6662  1.4390 -1.8272
 6933TIP3    H242215   4.379   4.910   2.771 -0.7025 -0.7752 -0.6322
 6934TIP3   OH242216   2.563   5.459  11.139 -0.5326  0.8089 -0.4238
 6934TIP3    H142217   2.657   5.480  11.134 -0.1149 -0.9096 -0.5047
 6934TIP3    H242218   2.521   5.543  11.158  1.0384  1.5917 -0.1954
 6935TIP3   OH242219   2.185   2.025  11.426 -0.4903  0.5682  0.1915
 6935TIP3    H142220   2.136   1.950  11.459 -0.2139  0.2084 -0.2035
 6935TIP3    H242221   2.270   2.019  11.469  0.3814 -0.7021 -1.5709
 6936TIP3   OH242222   2.639   0.093   3.015  0.1877  0.1982  0.7476
 6936TIP3    H142223   2.591   0.121   2.937  1.6746 -0.8116 -0.5640
 6936TIP3    H242224   2.571   0.057   3.073 -0.5544 -3.1404 -1.8863
 6937TIP3   OH242225   1.051   3.747   0.204 -0.1841 -0.4061 -0.1437
 6937TIP3    H142226   1.130   3.790   0.239 -0.5394 -0.8015  1.2270
 6937TIP3    H242227   0.982   3.812   0.215 -0.3978 -0.7169  0.3803
 6938TIP3   OH242228   3.221   6.071   0.341 -0.2297 -0.6047 -0.0047
 6938TIP3    H142229   3.239   5.983   0.308 -1.6423 -0.5794 -0.9559
 6938TIP3    H242230   3.137   6.095   0.301 -0.0311  1.0553  0.4813
 6939TIP3   OH242231   3.022   3.774   1.620  0.5752  0.3663 -0.0697
 6939TIP3    H142232   3.109   3.800   1.592  0.3129 -1.3279 -2.7840
 6939TIP3    H242233   3.035   3.737   1.708  2.7082 -0.3485 -0.6340
 6940TIP3   OH242234   0.159   6.147   3.640 -0.1641 -0.2295 -0.4858
 6940TIP3    H142235   0.205   6.111   3.564  0.0653 -1.1516  0.0832
 6940TIP3    H242236   0.180   6.087   3.712 -1.0605  0.1612  0.1158
 6941TIP3   OH242237   1.755   3.748   6.417  0.1308  0.2558 -0.2681
 6941TIP3    H142238   1.723   3.838   6.423 -0.1667  0.1648 -0.4739
 6941TIP3    H242239   1.730   3.709   6.501 -1.0347 -0.0489 -0.7399
 6942TIP3   OH242240   5.401   1.704  13.466 -0.2848 -0.1610 -0.1400
 6942TIP3    H142241   5.491   1.687  13.436 -0.7028  0.7208 -2.0626
 6942TIP3    H242242   5.406   1.789  13.509  0.0506 -0.7814  1.0898
 6943TIP3   OH242243   3.543   5.386   5.749 -0.0473 -0.1512 -0.3527
 6943TIP3    H142244   3.487   5.454   5.787  0.1077  0.3580 -1.0279
 6943TIP3    H242245   3.613   5.374   5.813 -0.8700 -0.7591  0.4828
 6944TIP3   OH242246   6.505   3.279  14.388 -0.0678  0.0632  0.1293
 6944TIP3    H142247   6.545   3.217  14.326  1.5004  0.3590  0.8020
 6944TIP3    H242248   6.439   3.227  14.435  1.8947 -1.4252  1.3774
 6945TIP3   OH242249   2.559   1.181  14.568  0.0422  0.0894  0.5999
 6945TIP3    H142250   2.578   1.146  14.655 -1.1119  0.5380  1.0431
 6945TIP3    H242251   2.614   1.129  14.509 -0.6456 -1.5865  1.3751
 6946TIP3   OH242252   4.289   6.031  14.199  0.2407  0.4482 -0.2967
 6946TIP3    H142253   4.310   6.092  14.128 -0.6756  0.1212 -0.8738
 6946TIP3    H242254   4.228   5.968  14.159  2.8658 -2.2397 -0.4003
 6947TIP3   OH242255   5.043   0.156  13.772  0.0985 -0.3367  0.4992
 6947TIP3    H142256   5.055   0.237  13.723 -2.6053  0.0612  0.3329
 6947TIP3    H242257   5.022   0.091  13.705 -1.8892 -0.1740  0.9028
 6948TIP3   OH242258   0.779   1.701  12.537 -0.1312  0.7723 -0.4101
 6948TIP3    H142259   0.745   1.734  12.453 -2.4363 -1.3981 -0.4463
 6948TIP3    H242260   0.701   1.673  12.585  1.1985  1.2741  2.1997
 6949TIP3   OH242261   3.377   2.339  12.700  0.5236 -0.2956  0.3813
 6949TIP3    H142262   3.293   2.295  12.688 -0.4790  1.6253 -0.0867
 6949TIP3    H242263   3.391   2.387  12.618  0.2135  2.3405  1.7444
 6950TIP3   OH242264   4.969   0.366   1.050  0.3447 -0.1550 -0.1521
 6950TIP3    H142265   5.054   0.409   1.049  1.0286 -1.3961  0.9620
 6950TIP3    H242266   4.909   0.431   1.088  1.1116  0.2114  0.4474
 6951TIP3   OH242267   0.108   3.622   4.355  0.1999  0.4543 -0.2201
 6951TIP3    H142268   0.056   3.572   4.293  0.9211 -0.3819 -0.1733
 6951TIP3    H242269   0.066   3.708   4.358 -1.1413 -0.1786 -0.2102
 6952TIP3   OH242270   1.632   0.227   5.494  0.7999 -0.1024 -0.5897
 6952TIP3    H142271   1.697   0.181   5.547  0.7571  0.2419 -0.2367
 6952TIP3    H242272   1.556   0.168   5.491  0.6575  0.0474  0.0581
 6953TIP3   OH242273   5.961   5.186   1.951 -0.0411 -0.1369  0.1467
 6953TIP3    H142274   6.003   5.270   1.934 -0.8584  0.3439  0.4616
 6953TIP3    H242275   5.959   5.178   2.046  0.7651 -0.8990  0.1151
 6954TIP3   OH242276   2.681   6.698   4.347  0.5988 -0.3547 -0.2037
 6954TIP3    H142277   2.666   6.787   4.314 -1.1257 -0.7967 -0.7351
 6954TIP3    H242278   2.734   6.710   4.425 -3.3336  1.7062  2.5311
 6955TIP3   OH242279   1.078   2.629  16.424 -0.1088  0.2778 -0.2468
 6955TIP3    H142280   1.052   2.668  16.508  0.2643 -0.1618  0.0785
 6955TIP3    H242281   0.996   2.600  16.384 -0.3061  0.6453 -0.1167
 6956TIP3   OH242282   1.832   6.510  11.656 -0.4515 -0.5749  0.3242
 6956TIP3    H142283   1.762   6.445  11.657 -0.0165 -1.1419 -1.2814
 6956TIP3    H242284   1.791   6.590  11.625 -0.1723 -1.2999 -2.1467
 6957TIP3   OH242285   1.194   6.456   1.246 -0.0827 -0.1114  0.8037
 6957TIP3    H142286   1.167   6.469   1.155 -0.3578 -0.8189  0.7810
 6957TIP3    H242287   1.202   6.545   1.281  1.3067  0.2347 -0.2777
 6958TIP3   OH242288   6.707   3.206  15.892  0.3521 -0.1128 -0.1723
 6958TIP3    H142289   6.719   3.273  15.960  0.9875  0.8982 -1.2453
 6958TIP3    H242290   6.677   3.129  15.940 -0.7548  1.0378  1.0633
 6959TIP3   OH242291   2.734   6.191   5.522  0.7704 -0.4294 -0.6689
 6959TIP3    H142292   2.698   6.118   5.471 -0.5713 -0.0967 -0.2346
 6959TIP3    H242293   2.658   6.230   5.565  1.5678  0.7744 -0.3029
 6960TIP3   OH242294   4.709   1.696  13.520  0.3830 -0.4095 -0.4519
 6960TIP3    H142295   4.687   1.775  13.470  1.8706  0.3466  0.0404
 6960TIP3    H242296   4.645   1.631  13.491 -0.9817  0.9984 -0.7692
 6961TIP3   OH242297   1.311   1.643   5.565  0.2898  0.0291 -0.1096
 6961TIP3    H142298   1.252   1.586   5.615  1.7558 -1.3833  0.1259
 6961TIP3    H242299   1.383   1.585   5.539  0.7332  1.2858 -1.8499
 6962TIP3   OH242300   5.852   4.373  14.987  0.0331  0.5164  0.0195
 6962TIP3    H142301   5.938   4.411  14.971  0.4413 -0.1261  0.6042
 6962TIP3    H242302   5.817   4.423  15.061  0.3427  0.1248  0.4400
 6963TIP3   OH242303   3.421   5.027  14.971 -0.2364 -0.0513 -0.4245
 6963TIP3    H142304   3.506   5.054  14.935 -0.0675 -0.1436 -0.0943
 6963TIP3    H242305   3.422   4.932  14.967 -0.7014 -0.0369 -1.2794
 6964TIP3   OH242306   3.641   1.508  14.116  0.5582 -0.3281  0.0085
 6964TIP3    H142307   3.552   1.536  14.139  0.4571  0.7581 -1.5647
 6964TIP3    H242308   3.697   1.554  14.177  0.2319  1.7308 -1.1443
 6965TIP3   OH242309   0.332   2.375  16.129 -0.2484 -0.5324  0.0274
 6965TIP3    H142310   0.247   2.417  16.116 -0.3130  0.3698  2.6333
 6965TIP3    H242311   0.381   2.437  16.183  0.2837 -2.9936  2.6206
 6966TIP3   OH242312   3.536   5.236  14.468 -0.5381  0.1059 -0.1587
 6966TIP3    H142313   3.555   5.315  14.518 -0.4590 -0.2051  0.3064
 6966TIP3    H242314   3.589   5.244  14.389 -1.3506  1.0381 -0.6368
 6967TIP3   OH242315   0.882   4.015   6.732  0.1015  0.1157  0.2464
 6967TIP3    H142316   0.860   3.927   6.764  3.5718 -0.5586  1.1245
 6967TIP3    H242317   0.802   4.066   6.748 -2.3956 -2.9953 -1.1464
 6968TIP3   OH242318   3.227   2.937   2.305 -0.5272  0.1397 -0.2902
 6968TIP3    H142319   3.174   2.997   2.358 -1.3970 -1.1597  0.3612
 6968TIP3    H242320   3.299   2.992   2.272 -1.6023  1.6691 -0.2094
 6969TIP3   OH242321   1.455   3.374   1.661  0.0836  0.4666  0.4357
 6969TIP3    H142322   1.472   3.468   1.655 -0.7558  0.5933 -0.0548
 6969TIP3    H242323   1.409   3.363   1.744 -0.9249  0.6725 -0.0799
 6970TIP3   OH242324   1.020   2.032  12.935  0.6411  0.6093 -0.3527
 6970TIP3    H142325   1.071   2.087  12.875  1.7169  0.8128  0.7086
 6970TIP3    H242326   1.086   1.993  12.993 -0.2073 -1.0012 -0.4243
 6971TIP3   OH242327   0.901   5.588   3.011 -0.0188  0.7420 -0.5759
 6971TIP3    H142328   0.883   5.573   2.918 -0.2826  1.7000 -0.6922
 6971TIP3    H242329   0.817   5.573   3.054 -0.0040  0.7394 -0.5482
 6972TIP3   OH242330   0.549   6.357  10.995 -0.1686  0.1346  0.3866
 6972TIP3    H142331   0.508   6.423  11.050 -0.9977 -0.8453  0.9719
 6972TIP3    H242332   0.581   6.291  11.056  1.0427  0.1939 -0.1589
 6973TIP3   OH242333   2.487   2.358  14.054  0.2396  0.4383  0.4766
 6973TIP3    H142334   2.474   2.382  13.962  1.3238  0.8193  0.4048
 6973TIP3    H242335   2.478   2.263  14.055 -0.4002  0.4881  0.0944
 6974TIP3   OH242336   4.844   0.741  11.706  0.5205 -0.2073  0.6609
 6974TIP3    H142337   4.857   0.779  11.793 -0.3417  2.0248 -0.1092
 6974TIP3    H242338   4.765   0.783  11.673 -0.1047 -2.2481 -0.5823
 6975TIP3   OH242339   4.536   1.264   3.610  0.6131  0.1701 -0.3544
 6975TIP3    H142340   4.595   1.266   3.534  0.2612 -1.6808 -0.7289
 6975TIP3    H242341   4.593   1.247   3.685  0.6838 -0.6818 -0.5895
 6976TIP3   OH242342   0.999   6.688  14.920  0.0765 -0.1830 -0.3442
 6976TIP3    H142343   0.995   6.715  14.828  0.6263  1.0356 -0.0358
 6976TIP3    H242344   1.068   6.743  14.958 -2.3509  1.7660  1.5733
 6977TIP3   OH242345   6.181   3.335  14.918 -0.4916 -0.2258 -0.0769
 6977TIP3    H142346   6.202   3.363  14.828 -0.0494  0.2194  0.1610
 6977TIP3    H242347   6.113   3.394  14.947  0.1774  0.3782  0.2903
 6978TIP3   OH242348   4.659   0.793   4.217  0.4115 -0.5019  0.1246
 6978TIP3    H142349   4.638   0.718   4.162  0.9479 -0.8392  0.3673
 6978TIP3    H242350   4.615   0.867   4.175 -1.8345 -1.2539  0.9778
 6979TIP3   OH242351   5.883   3.706   6.074 -0.1406  0.0297 -0.2318
 6979TIP3    H142352   5.816   3.652   6.033  0.1378 -0.1455 -0.4576
 6979TIP3    H242353   5.897   3.666   6.160 -1.1790  0.7690  0.3052
 6980TIP3   OH242354   4.287   5.870   4.755 -0.1601 -0.1317  0.2745
 6980TIP3    H142355   4.321   5.870   4.845 -0.3756 -1.1070  0.3631
 6980TIP3    H242356   4.333   5.799   4.711 -0.2182  0.1991 -0.3357
 6981TIP3   OH242357   5.330   2.218  14.096 -0.0578  0.0741 -0.5808
 6981TIP3    H142358   5.384   2.148  14.058  0.4460  0.6981 -1.0356
 6981TIP3    H242359   5.361   2.226  14.186 -1.8861 -2.0467  0.3210
 6982TIP3   OH242360   1.717   4.609   3.294 -0.2349 -0.2742 -0.1648
 6982TIP3    H142361   1.758   4.537   3.343 -0.3558  0.6209  1.3071
 6982TIP3    H242362   1.646   4.567   3.246 -0.1042 -1.1966  0.4147
 6983TIP3   OH242363   2.485   4.808  14.749 -0.3342 -0.6944  0.9874
 6983TIP3    H142364   2.556   4.758  14.711 -0.9371 -1.4632  0.8401
 6983TIP3    H242365   2.524   4.854  14.823  0.7491  0.4750 -0.2866
 6984TIP3   OH242366   4.214   2.369   6.833 -0.3139  0.3885 -0.5077
 6984TIP3    H142367   4.198   2.326   6.749  1.1006 -0.2181 -0.4939
 6984TIP3    H242368   4.204   2.300   6.898 -1.8325  0.9506 -0.1093
 6985TIP3   OH242369   3.078   2.053   1.546  0.1327  0.1205 -0.1865
 6985TIP3    H142370   3.033   2.064   1.463 -0.4424  2.6102  0.3861
 6985TIP3    H242371   3.007   2.051   1.611  0.6802  1.0417  0.4588
 6986TIP3   OH242372   0.842   6.331   5.578  0.0711  0.9891  0.0251
 6986TIP3    H142373   0.849   6.278   5.658 -0.0879 -0.3256 -0.7977
 6986TIP3    H242374   0.822   6.419   5.609  1.5684  0.8677  1.5154
 6987TIP3   OH242375   2.035   3.668  15.600 -0.4406 -0.2870  0.1163
 6987TIP3    H142376   1.980   3.600  15.637 -0.3571 -0.6507 -0.4150
 6987TIP3    H242377   1.974   3.735  15.570 -0.5689 -0.4800 -0.0555
 6988TIP3   OH242378   5.981   3.046   5.747  0.1267 -0.5971  0.4665
 6988TIP3    H142379   5.950   2.996   5.671 -0.9426 -0.1298  0.5879
 6988TIP3    H242380   5.994   3.134   5.713  1.3675 -0.7742  0.4173
 6989TIP3   OH242381   3.477   4.739   5.948 -0.2675 -0.2146 -0.1485
 6989TIP3    H142382   3.513   4.773   6.030 -1.8252 -1.5766  1.1359
 6989TIP3    H242383   3.537   4.773   5.881  0.5599  1.6444  1.4304
 6990TIP3   OH242384   4.891   5.333  14.956 -0.2435  0.1953 -0.3327
 6990TIP3    H142385   4.944   5.291  15.023 -1.3940 -0.2978  0.2929
 6990TIP3    H242386   4.942   5.409  14.928  2.7652 -2.4067 -2.7373
 6991TIP3   OH242387   1.468   4.838   5.730  0.0259  0.0292  0.6101
 6991TIP3    H142388   1.529   4.776   5.690  0.8142 -1.2723  3.5419
 6991TIP3    H242389   1.382   4.799   5.716  0.4519 -1.4544  1.7682
 6992TIP3   OH242390   6.577   1.102  16.673 -0.1054  0.2941 -0.0324
 6992TIP3    H142391   6.564   1.143  16.587  0.4161 -0.5395 -0.5265
 6992TIP3    H242392   6.625   1.021  16.654  0.2948  0.2472  1.0814
 6993TIP3   OH242393   3.062   6.183   2.051 -0.2062  0.1725 -0.7602
 6993TIP3    H142394   3.008   6.251   2.010 -0.1531 -0.2842 -1.6170
 6993TIP3    H242395   3.000   6.132   2.103 -0.0847  1.4670  0.7353
 6994TIP3   OH242396   2.309   0.400  16.568 -0.3016 -0.2889 -0.4026
 6994TIP3    H142397   2.240   0.367  16.626  0.4601  0.0545  0.7388
 6994TIP3    H242398   2.371   0.443  16.627  0.2487  0.5312 -1.5374
 6995TIP3   OH242399   0.902   0.047  11.577 -0.4981 -0.3454  0.3147
 6995TIP3    H142400   0.892   0.083  11.489  0.1148 -1.9265 -0.4366
 6995TIP3    H242401   0.896  -0.048  11.565 -1.6430 -0.5621  2.1529
 6996TIP3   OH242402   5.464   4.760   5.759 -0.2187  0.2710 -0.7865
 6996TIP3    H142403   5.408   4.796   5.690  0.5386 -0.4061 -1.7851
 6996TIP3    H242404   5.549   4.801   5.746  0.0876 -0.2918 -0.6239
 6997TIP3   OH242405   3.513   4.211   2.344 -0.3237  0.1506  0.2371
 6997TIP3    H142406   3.577   4.147   2.313  0.2041  1.0923 -0.6784
 6997TIP3    H242407   3.558   4.255   2.416 -0.9144 -0.8902  1.2725
 6998TIP3   OH242408   4.698   2.515   5.032  0.3939 -0.5359  0.5475
 6998TIP3    H142409   4.612   2.491   5.067  0.4057 -0.4797  0.6148
 6998TIP3    H242410   4.759   2.456   5.076  0.6204  0.6651  1.9320
 6999TIP3   OH242411   6.634   4.934   2.213  0.0223  0.4808  0.1512
 6999TIP3    H142412   6.688   4.958   2.138  0.3898  1.5462  0.7320
 6999TIP3    H242413   6.695   4.897   2.276 -0.1400  0.3911  0.2563
 7000TIP3   OH242414   4.923   1.893   5.049  0.0299  0.1254  0.1341
 7000TIP3    H142415   4.855   1.887   5.116  1.1647  2.1892  1.5864
 7000TIP3    H242416   4.918   1.983   5.018  1.8325  0.2114 -0.0006
 7001TIP3   OH242417   5.805   6.634   2.231  0.1006 -0.2826  0.7213
 7001TIP3    H142418   5.717   6.641   2.269 -0.4619  1.0490 -0.7275
 7001TIP3    H242419   5.821   6.720   2.192  1.1248 -1.2026 -1.0006
 7002TIP3   OH242420   5.871   1.448  16.828 -0.0379  0.1637 -0.4352
 7002TIP3    H142421   5.825   1.531  16.812 -1.1796 -0.2261  0.6198
 7002TIP3    H242422   5.819   1.382  16.782  0.2907 -0.1006 -0.4313
 7003TIP3   OH242423   4.079   2.780   5.005  0.0657  0.3546  0.4438
 7003TIP3    H142424   4.158   2.737   5.035  0.7721  1.7708  0.7047
 7003TIP3    H242425   4.066   2.852   5.067 -0.5053  1.1193 -0.5333
 7004TIP3   OH242426   0.434   3.842  13.785  0.0317 -0.2528  0.4718
 7004TIP3    H142427   0.388   3.892  13.718  0.9317 -0.5679 -0.4058
 7004TIP3    H242428   0.367   3.785  13.823 -0.2243 -1.1177 -1.1769
 7005TIP3   OH242429   2.118   1.748   0.734  0.2170 -0.1316  0.3932
 7005TIP3    H142430   2.193   1.785   0.686 -1.5517  1.6360 -1.1870
 7005TIP3    H242431   2.155   1.718   0.817  2.2643  3.3043  0.9278
 7006TIP3   OH242432   1.577   2.532   1.244 -0.5748 -0.0295  0.3050
 7006TIP3    H142433   1.588   2.590   1.168  0.1632 -0.1471  0.3161
 7006TIP3    H242434   1.523   2.583   1.304 -0.3309  0.4679  0.1129
 7007TIP3   OH242435   0.669   0.436  13.667 -0.7757  0.1904 -0.7822
 7007TIP3    H142436   0.746   0.486  13.695 -1.4958  0.9478 -0.1113
 7007TIP3    H242437   0.695   0.345  13.679 -0.2265  0.4495  0.1032
 7008TIP3   OH242438   6.354   1.474  16.098 -0.0568  0.1490 -0.2275
 7008TIP3    H142439   6.279   1.439  16.049  0.6863  0.6017 -1.7416
 7008TIP3    H242440   6.430   1.431  16.060  0.6136  1.0890  0.0050
 7009TIP3   OH242441   0.539   0.862  11.252 -0.0721 -0.6457 -0.4413
 7009TIP3    H142442   0.485   0.940  11.239 -0.5586 -0.8241  0.3865
 7009TIP3    H242443   0.494   0.794  11.203 -0.0480 -0.5671 -0.5729
 7010TIP3   OH242444   4.902   6.620  16.335 -0.2707 -0.4341 -0.3462
 7010TIP3    H142445   4.875   6.700  16.380 -1.1327 -1.1448  0.4288
 7010TIP3    H242446   4.825   6.592  16.287 -0.1992 -1.1924 -0.0309
 7011TIP3   OH242447   3.399   5.945  12.685 -0.0475 -0.1341 -0.3616
 7011TIP3    H142448   3.407   5.859  12.644 -1.0660  0.1169 -1.1030
 7011TIP3    H242449   3.406   5.927  12.779  1.1647 -0.8474 -0.5635
 7012TIP3   OH242450   5.253   5.930  16.046 -0.0791 -0.4148 -0.3261
 7012TIP3    H142451   5.266   5.890  16.132  1.3454  1.4623  0.3903
 7012TIP3    H242452   5.319   5.999  16.041 -2.2417  1.7308 -1.5670
 7013TIP3   OH242453   2.341   6.003   5.786 -0.1419  0.9290  0.0538
 7013TIP3    H142454   2.393   6.031   5.862 -0.2869  0.2652  0.4022
 7013TIP3    H242455   2.339   5.908   5.792 -1.8655  0.9590  0.3717
 7014TIP3   OH242456   2.315   4.806   2.890  0.3325 -0.2942  0.4490
 7014TIP3    H142457   2.393   4.855   2.912 -0.3392  0.3598  1.4723
 7014TIP3    H242458   2.267   4.861   2.828  0.2167 -0.2536  0.5732
 7015TIP3   OH242459   3.624   0.695  14.366 -0.3395 -0.2098  0.0158
 7015TIP3    H142460   3.717   0.709  14.380 -0.0183  0.4292 -2.3367
 7015TIP3    H242461   3.582   0.741  14.439  1.1597  0.4182  0.5233
 7016TIP3   OH242462   1.841   2.395  11.163  0.3232  0.2027  0.0831
 7016TIP3    H142463   1.830   2.346  11.082 -0.6221  0.8842 -0.2148
 7016TIP3    H242464   1.762   2.378  11.213 -0.0745  1.4949 -0.0731
 7017TIP3   OH242465   4.294   1.740   2.113  0.2706  0.1575 -0.2302
 7017TIP3    H142466   4.236   1.690   2.171  0.0390  0.0658 -0.5437
 7017TIP3    H242467   4.268   1.715   2.025 -0.0732  1.0831 -0.4001
 7018TIP3   OH242468   6.397   0.937  14.336  0.2520  0.1187  0.2858
 7018TIP3    H142469   6.417   0.844  14.324 -1.1395  0.0750 -2.2091
 7018TIP3    H242470   6.474   0.972  14.381  2.5236 -1.4937 -2.0995
 7019TIP3   OH242471   4.349   2.359  14.468  0.3788  0.3463 -0.6817
 7019TIP3    H142472   4.338   2.446  14.505 -0.2885  2.1034 -4.4695
 7019TIP3    H242473   4.437   2.359  14.430  1.0556 -1.3548  0.7403
 7020TIP3   OH242474   4.608   1.306  13.244  0.9173 -0.4326 -0.1405
 7020TIP3    H142475   4.661   1.340  13.317  2.8912 -3.9115  0.2937
 7020TIP3    H242476   4.670   1.295  13.172  0.0539 -1.4179 -0.7708
 7021TIP3   OH242477   3.407   1.521   1.297 -0.2883 -0.4336 -0.0341
 7021TIP3    H142478   3.435   1.536   1.206 -1.8839 -0.4296 -0.5454
 7021TIP3    H242479   3.429   1.603   1.342 -0.7578  0.1057 -0.7532
 7022TIP3   OH242480   3.797   4.565   1.529 -0.3287 -0.6259 -0.1416
 7022TIP3    H142481   3.793   4.660   1.519  1.1134 -0.4270  0.8135
 7022TIP3    H242482   3.742   4.547   1.606 -0.5723 -0.5689 -0.3004
 7023TIP3   OH242483   0.282   4.265   5.791 -0.2444  0.4066 -0.0445
 7023TIP3    H142484   0.237   4.274   5.707 -1.6325 -2.3540  0.2617
 7023TIP3    H242485   0.213   4.276   5.857  0.5122  0.9380  0.6829
 7024TIP3   OH242486   2.109   3.566  16.445  0.0882  0.3173  0.1841
 7024TIP3    H142487   2.042   3.498  16.454  0.4397  0.0324  0.7226
 7024TIP3    H242488   2.189   3.518  16.423 -0.1239  0.7528 -1.7758
 7025TIP3   OH242489   5.505   1.656   5.232  0.1769 -0.5571  0.2119
 7025TIP3    H142490   5.552   1.706   5.299 -1.2347  0.1075  0.7619
 7025TIP3    H242491   5.569   1.643   5.162  0.9852  0.8613  0.6419
 7026TIP3   OH242492   4.008   2.261  16.015  0.1783  1.0408  0.6487
 7026TIP3    H142493   3.935   2.205  16.044 -1.7799  1.8413 -2.2818
 7026TIP3    H242494   4.044   2.297  16.096 -1.3200 -0.9835  2.3474
 7027TIP3   OH242495   3.096   6.665   0.454 -0.2085  0.3584  0.4143
 7027TIP3    H142496   3.007   6.693   0.474 -1.3784 -2.3853 -0.4578
 7027TIP3    H242497   3.115   6.704   0.369 -0.0281  1.9981  1.1788
 7028TIP3   OH242498   0.046   1.667   5.149 -0.7099 -0.6990 -0.0455
 7028TIP3    H142499   0.064   1.615   5.070 -0.3426 -0.5893 -0.0347
 7028TIP3    H242500  -0.049   1.660   5.160 -0.6912 -1.2160 -0.1506
 7029TIP3   OH242501   4.755   4.503   2.033  0.0178  0.5151  0.2154
 7029TIP3    H142502   4.781   4.578   1.980  0.4314  0.2896  0.0898
 7029TIP3    H242503   4.690   4.457   1.980  2.6187 -1.4574 -1.5876
 7030TIP3   OH242504   1.308   5.361   4.285  0.0446 -0.2360  0.1483
 7030TIP3    H142505   1.386   5.341   4.336 -0.9859  0.4222  2.1217
 7030TIP3    H242506   1.324   5.323   4.199  2.0390 -1.0916  0.8442
 7031TIP3   OH242507   0.580   0.704  12.003  0.1539  0.0916  0.3929
 7031TIP3    H142508   0.629   0.711  12.085 -0.5451  1.8775  0.6932
 7031TIP3    H242509   0.646   0.683  11.937  1.1639  1.2649  0.9935
 7032TIP3   OH242510   0.973   5.063   3.013 -0.4955 -0.3005  0.1247
 7032TIP3    H142511   1.052   5.041   2.962 -1.3791 -2.2005 -0.5075
 7032TIP3    H242512   0.926   5.125   2.958  0.5179  0.8526  0.5035
 7033TIP3   OH242513   3.072   6.149   4.607 -0.1734 -0.2894  0.1972
 7033TIP3    H142514   3.087   6.066   4.562  0.7919 -0.3462  0.5917
 7033TIP3    H242515   3.127   6.144   4.685 -0.3427  0.5948  0.3815
 7034TIP3   OH242516   1.036   5.746   2.342 -0.4480 -0.4458  0.0083
 7034TIP3    H142517   1.017   5.815   2.405  0.3424 -0.4241  0.2413
 7034TIP3    H242518   1.125   5.766   2.311 -1.4174  0.5151 -2.3975
 7035TIP3   OH242519   1.396   0.255  13.198  0.0962 -0.3573 -0.5117
 7035TIP3    H142520   1.441   0.319  13.254  1.6313 -0.9783 -0.9788
 7035TIP3    H242521   1.307   0.289  13.191  0.4481  0.8973  0.5175
 7036TIP3   OH242522   2.021   6.187   5.944  0.5137 -0.0565 -0.1613
 7036TIP3    H142523   2.097   6.236   5.914  1.2479 -2.0552 -1.8498
 7036TIP3    H242524   2.058   6.107   5.983 -0.6733  0.0192  1.2278
 7037TIP3   OH242525   5.483   3.070   4.356 -0.4499 -0.5571 -0.5358
 7037TIP3    H142526   5.433   2.992   4.379  0.0846 -1.1257 -1.2542
 7037TIP3    H242527   5.447   3.098   4.271 -0.7539  0.0764 -0.2012
 7038TIP3   OH242528   2.487   3.581  16.393 -0.0848 -0.3504 -0.2619
 7038TIP3    H142529   2.565   3.529  16.411  0.2103  0.4014  0.8166
 7038TIP3    H242530   2.426   3.521  16.353  0.7427 -1.1699 -0.3253
 7039TIP3   OH242531   3.606   1.433   5.894  0.6458  0.0818  0.6206
 7039TIP3    H142532   3.645   1.352   5.860 -0.6852 -0.4915  0.4208
 7039TIP3    H242533   3.554   1.405   5.970  0.9449  0.8948  1.1377
 7040TIP3   OH242534   6.290   6.689   4.617 -0.2932  1.0210  0.1726
 7040TIP3    H142535   6.339   6.628   4.672 -1.0760 -0.6937 -0.9417
 7040TIP3    H242536   6.285   6.769   4.669  0.1585 -0.0771  2.0149
 7041TIP3   OH242537   5.414   5.594  11.958 -0.3242  0.1194 -0.4173
 7041TIP3    H142538   5.371   5.519  11.998 -2.1288  0.7524 -1.0682
 7041TIP3    H242539   5.497   5.559  11.924  0.0343 -0.9920  1.4756
 7042TIP3   OH242540   4.694   2.541   5.438  0.6761 -0.4544 -0.0169
 7042TIP3    H142541   4.603   2.563   5.422 -0.0521 -1.9257  1.6572
 7042TIP3    H242542   4.742   2.622   5.424 -1.1212  0.7978  0.7499
 7043TIP3   OH242543   2.898   4.738   3.830 -0.3708 -0.6023  0.2308
 7043TIP3    H142544   2.805   4.718   3.844 -0.8253  0.7666 -0.5907
 7043TIP3    H242545   2.905   4.831   3.851  0.1089  0.1280 -2.6856
 7044TIP3   OH242546   2.320   0.568  12.990 -0.2981  0.2574 -0.3197
 7044TIP3    H142547   2.341   0.537  12.902 -1.8676 -0.2091 -0.5581
 7044TIP3    H242548   2.405   0.578  13.033  0.4505 -0.2570 -1.6296
 7045TIP3   OH242549   1.231   4.979   2.873 -0.0707  0.5404 -0.4419
 7045TIP3    H142550   1.324   4.995   2.855  0.1569  0.1086  0.2794
 7045TIP3    H242551   1.227   4.887   2.897 -0.5533  0.7448  0.3030
 7046TIP3   OH242552   5.153   6.502  14.310  0.4499 -0.2868  0.2983
 7046TIP3    H142553   5.114   6.578  14.351  3.6721  1.0576  1.2117
 7046TIP3    H242554   5.210   6.538  14.242 -0.6955 -2.1711 -1.7939
 7047TIP3   OH242555   2.995   2.113   0.508 -0.1227 -0.4844 -0.0088
 7047TIP3    H142556   2.910   2.119   0.550 -0.2996 -0.5198 -0.3587
 7047TIP3    H242557   3.051   2.171   0.559 -0.6276  0.3958 -0.4229
 7048TIP3   OH242558   0.476   1.514  16.507  0.2166 -0.6629 -0.6314
 7048TIP3    H142559   0.468   1.437  16.564  0.7719  0.0033  0.3757
 7048TIP3    H242560   0.528   1.484  16.433  0.4666 -1.2454 -0.2248
 7049TIP3   OH242561   4.451   4.837   3.897 -0.2979  0.2770 -0.1096
 7049TIP3    H142562   4.393   4.832   3.973 -0.2884  2.7179  0.1330
 7049TIP3    H242563   4.392   4.834   3.822 -0.4519 -0.3280  0.0246
 7050TIP3   OH242564   6.398   1.911   3.920 -0.5654  0.3917  0.1198
 7050TIP3    H142565   6.474   1.932   3.974  0.8726  1.2405 -2.0981
 7050TIP3    H242566   6.329   1.970   3.952  0.8562  2.3636 -0.2611
 7051TIP3   OH242567   5.588   0.876   3.453 -0.1232  0.3244 -0.2921
 7051TIP3    H142568   5.666   0.932   3.455  1.1592 -1.2558 -1.7868
 7051TIP3    H242569   5.579   0.852   3.361 -0.8421 -1.5602  0.2221
 7052TIP3   OH242570   3.455   2.150  13.512  0.0445 -0.6383 -0.1429
 7052TIP3    H142571   3.461   2.155  13.416 -1.4227 -0.7976 -0.2684
 7052TIP3    H242572   3.542   2.176  13.543  0.2299  0.4501 -1.4845
 7053TIP3   OH242573   1.116   5.472  16.997 -0.2266  0.1556  0.7258
 7053TIP3    H142574   1.195   5.503  16.953 -0.7888  1.7215  0.7537
 7053TIP3    H242575   1.146   5.444  17.084  0.3188  0.6934  0.7206
 7054TIP3   OH242576   1.811   2.103   2.080 -0.1083 -0.6782  0.1123
 7054TIP3    H142577   1.787   2.069   1.994 -0.5247  0.6752 -0.3282
 7054TIP3    H242578   1.773   2.190   2.083  1.6829  0.1176  0.8449
 7055TIP3   OH242579   0.395   3.266   6.344 -0.6199  1.1314  0.2437
 7055TIP3    H142580   0.430   3.303   6.263  0.2560  0.2820  0.2222
 7055TIP3    H242581   0.387   3.341   6.403  1.8313  1.3099  0.4507
 7056TIP3   OH242582   2.086   0.141   4.450 -0.3689 -0.3447 -0.0433
 7056TIP3    H142583   2.019   0.174   4.510 -0.2073  0.4808 -0.3111
 7056TIP3    H242584   2.071   0.046   4.448 -2.2903 -0.0800 -0.9908
 7057TIP3   OH242585   2.052   1.369   1.236 -0.3561  0.0642 -0.3655
 7057TIP3    H142586   2.070   1.373   1.330 -0.6502 -0.0802 -0.3032
 7057TIP3    H242587   2.019   1.455   1.213 -2.3682 -0.5424  0.0942
 7058TIP3   OH242588   6.081   3.025   5.242 -0.2633  0.0399 -0.6707
 7058TIP3    H142589   6.083   2.941   5.197  0.0153 -0.4535  0.2466
 7058TIP3    H242590   6.157   3.073   5.208 -0.7967  0.1969 -1.6842
 7059TIP3   OH242591   1.807   1.518  13.294 -0.4928  0.0840  0.5774
 7059TIP3    H142592   1.881   1.523  13.233 -0.2106  0.1436  0.9202
 7059TIP3    H242593   1.822   1.438  13.343 -0.2664  0.4563  1.1349
 7060TIP3   OH242594   5.138   3.105  14.402  0.0599 -0.0559  0.1875
 7060TIP3    H142595   5.147   3.199  14.386  1.6725 -0.3589 -1.0346
 7060TIP3    H242596   5.045   3.088  14.389 -0.1715  1.2762 -0.1345
 7061TIP3   OH242597   0.676   4.806   3.473  0.3592 -0.0499  0.1595
 7061TIP3    H142598   0.620   4.738   3.510 -1.0418  1.4936  1.0184
 7061TIP3    H242599   0.748   4.814   3.535  0.1210 -0.2211  0.4635
 7062TIP3   OH242600   4.304   5.846  12.381 -0.5408  0.6154  0.5681
 7062TIP3    H142601   4.317   5.799  12.299 -0.8432 -1.4940  1.6559
 7062TIP3    H242602   4.275   5.779  12.443  0.3074  2.0003  2.5868
 7063TIP3   OH242603   1.078   5.506  13.135 -0.0015 -0.7871 -0.5794
 7063TIP3    H142604   1.129   5.425  13.136  2.0141  0.3678  1.3543
 7063TIP3    H242605   1.062   5.524  13.228  1.6083  2.1464 -0.7751
 7064TIP3   OH242606   4.541   2.096   6.111  0.1607  0.5219  0.1772
 7064TIP3    H142607   4.630   2.061   6.117 -0.5060 -1.6467 -1.3776
 7064TIP3    H242608   4.492   2.050   6.179 -0.2342  0.0243 -0.4281
 7065TIP3   OH242609   6.068   2.850   6.302  0.0132  1.0136 -0.0151
 7065TIP3    H142610   6.140   2.905   6.330  1.1826 -0.9928  1.1330
 7065TIP3    H242611   6.086   2.764   6.340 -1.2838 -0.4230 -2.3555
 7066TIP3   OH242612   0.116   6.426   5.885  0.6187 -0.1966  0.4880
 7066TIP3    H142613   0.032   6.417   5.930  0.2300  1.4533  0.1237
 7066TIP3    H242614   0.179   6.388   5.947 -0.2144 -0.2337  1.3419
 7067TIP3   OH242615   2.986   1.917  12.669 -0.2419 -1.2144 -0.4228
 7067TIP3    H142616   3.060   1.880  12.622 -0.3154  0.1495 -1.6943
 7067TIP3    H242617   2.924   1.941  12.601 -0.6123  0.2789  0.3894
 7068TIP3   OH242618   6.063   4.645  13.652  0.6017  0.3373  0.2543
 7068TIP3    H142619   6.152   4.675  13.672  1.1845 -0.3452 -1.2362
 7068TIP3    H242620   6.074   4.576  13.587 -1.0301  0.2759 -0.0059
 7069TIP3   OH242621   0.318   5.051   4.577  0.3859 -0.3099 -0.0998
 7069TIP3    H142622   0.233   5.036   4.619  0.6555 -2.4534 -0.2516
 7069TIP3    H242623   0.310   5.139   4.540 -2.3598 -1.0261 -1.4600
 7070TIP3   OH242624   1.401   4.834   1.748  0.1276  0.1272  0.2044
 7070TIP3    H142625   1.340   4.856   1.677  0.3970 -0.7020 -0.2898
 7070TIP3    H242626   1.427   4.919   1.784  0.3952  0.5850 -1.0381
 7071TIP3   OH242627   3.461   0.537  13.055  0.1848  0.3904  0.5300
 7071TIP3    H142628   3.484   0.550  12.963  1.0156 -0.3785  0.6152
 7071TIP3    H242629   3.425   0.621  13.083 -0.0739  0.6339 -0.4930
 7072TIP3   OH242630   3.541   3.737  12.457 -0.4853 -0.3795  0.3675
 7072TIP3    H142631   3.600   3.709  12.527 -1.4163  1.5609  2.0623
 7072TIP3    H242632   3.594   3.734  12.378  1.4305 -0.1591  1.5648
 7073TIP3   OH242633   3.096   1.169  14.924  0.9290  0.3478 -0.3746
 7073TIP3    H142634   3.182   1.132  14.902  0.8729 -1.2102  1.6413
 7073TIP3    H242635   3.088   1.154  15.018 -1.7193  0.1036 -0.5700
 7074TIP3   OH242636   4.537   0.304  15.705  0.0899 -0.2707 -0.2719
 7074TIP3    H142637   4.578   0.223  15.736  0.6605  0.1492  0.0983
 7074TIP3    H242638   4.443   0.289  15.716  0.2647  0.2785  2.8592
 7075TIP3   OH242639   1.533   4.719   2.126 -0.0234  0.3758 -0.1694
 7075TIP3    H142640   1.598   4.774   2.083  1.9495 -0.1443  1.9204
 7075TIP3    H242641   1.537   4.745   2.218 -0.8597 -1.4937  0.4496
 7076TIP3   OH242642   6.366   5.094   1.751  0.1873 -0.0011  0.0118
 7076TIP3    H142643   6.345   5.171   1.698  1.3389  0.2911 -0.0333
 7076TIP3    H242644   6.442   5.119   1.803  1.0708 -1.3490 -0.5711
 7077TIP3   OH242645   1.320   5.766   3.615 -0.3440  0.9169 -0.4345
 7077TIP3    H142646   1.249   5.708   3.588  0.9322 -1.0932  0.2988
 7077TIP3    H242647   1.324   5.756   3.710  2.1065 -0.6024 -0.6014
 7078TIP3   OH242648   3.873   2.502  12.091 -0.1118  0.5330 -0.2722
 7078TIP3    H142649   3.842   2.536  12.174  0.2422  0.4213 -0.0910
 7078TIP3    H242650   3.831   2.556  12.024 -1.0001  0.1341 -0.0502
 7079TIP3   OH242651   4.489   3.252  16.556 -0.3138  0.1174 -0.3413
 7079TIP3    H142652   4.532   3.295  16.631  1.1646  1.1839 -1.7093
 7079TIP3    H242653   4.439   3.322  16.515  0.0031 -0.0990 -1.1110
 7080TIP3   OH242654   1.096   2.024   3.353 -0.3593 -0.1501  0.3425
 7080TIP3    H142655   1.165   1.969   3.316 -1.3133 -0.5059 -0.9742
 7080TIP3    H242656   1.019   2.007   3.298 -1.0794  1.4145  0.7992
 7081TIP3   OH242657   3.040   3.428   0.871  0.0151 -0.3251  0.4592
 7081TIP3    H142658   2.964   3.371   0.871 -0.9977  0.9664 -0.5030
 7081TIP3    H242659   3.085   3.408   0.788  0.4004 -0.6416  0.7367
 7082TIP3   OH242660   5.287   5.239  13.972  0.3055 -0.4196 -0.3017
 7082TIP3    H142661   5.200   5.268  13.944  0.9036  0.0780 -1.7390
 7082TIP3    H242662   5.334   5.320  13.988  0.3936 -0.6957  0.8679
 7083TIP3   OH242663   4.387   2.954   3.253  0.1766 -0.3218  0.3482
 7083TIP3    H142664   4.450   2.921   3.317  0.9339 -2.6271 -1.4605
 7083TIP3    H242665   4.316   2.890   3.254 -0.1878  0.0554 -0.5619
 7084TIP3   OH242666   3.688   4.141   1.370 -0.1600 -0.1691  0.2329
 7084TIP3    H142667   3.625   4.071   1.388 -0.5676  0.2825  0.5847
 7084TIP3    H242668   3.640   4.205   1.319 -0.3756  0.7854  1.5842
 7085TIP3   OH242669   5.229   5.662  14.755  0.2006  0.0982  0.0824
 7085TIP3    H142670   5.174   5.630  14.827 -0.7256 -0.4989 -0.8635
 7085TIP3    H242671   5.269   5.583  14.718  0.0728  0.3112 -0.5272
 7086TIP3   OH242672   1.049   6.045  17.365  0.0608 -0.4317 -0.0953
 7086TIP3    H142673   1.144   6.037  17.366  0.0605 -1.1303  2.3463
 7086TIP3    H242674   1.033   6.137  17.387  0.1627 -0.1929 -1.0058
 7087TIP3   OH242675   1.185   2.138  17.434  0.0049  0.1452  0.4092
 7087TIP3    H142676   1.140   2.192  17.368  0.5113  0.2578  0.1561
 7087TIP3    H242677   1.122   2.134  17.506 -1.6837 -2.1376 -1.0380
 7088TIP3   OH242678   4.043   4.658   3.938  0.0277 -0.2380  0.0094
 7088TIP3    H142679   4.122   4.604   3.930 -0.0905 -0.3696 -0.2985
 7088TIP3    H242680   3.982   4.605   3.989 -0.2498 -0.5864 -0.6723
 7089TIP3   OH242681   6.483   1.647   3.358  0.2196  1.0454  0.3195
 7089TIP3    H142682   6.541   1.591   3.306 -0.4800  0.2923  0.3274
 7089TIP3    H242683   6.538   1.720   3.386  0.5956  1.5552 -1.6053
 7090TIP3   OH242684   2.913   0.198  16.157 -0.1658 -0.6687  0.7503
 7090TIP3    H142685   2.970   0.271  16.184 -0.5239 -0.4607  0.9409
 7090TIP3    H242686   2.846   0.193  16.225 -3.4238  2.3770 -1.8209
 7091TIP3   OH242687   4.172   2.935   3.981 -0.2620  0.9450 -0.3808
 7091TIP3    H142688   4.202   3.023   3.959  0.9199  1.5838  3.0483
 7091TIP3    H242689   4.110   2.948   4.053  0.5708 -1.0119  0.7954
 7092TIP3   OH242690   2.331   4.555   4.132  0.2441 -0.3102  0.1479
 7092TIP3    H142691   2.341   4.650   4.124 -0.3154 -0.1131  1.4672
 7092TIP3    H242692   2.254   4.544   4.189  0.6826 -1.5375  0.5331
 7093TIP3   OH242693   0.541   6.650   0.940  0.0648 -0.0535 -0.2117
 7093TIP3    H142694   0.532   6.728   0.995 -0.3817  0.8528 -1.5009
 7093TIP3    H242695   0.458   6.604   0.951  0.5461 -0.6720  0.9922
 7094TIP3   OH242696   1.594   3.062   6.380  0.3562  0.0463  0.4595
 7094TIP3    H142697   1.628   3.144   6.346 -2.0084  0.2005 -1.8816
 7094TIP3    H242698   1.580   3.078   6.473  2.3844  1.3548  0.5868
 7095TIP3   OH242699   1.678   6.011  15.982  0.4881 -0.1842 -0.3463
 7095TIP3    H142700   1.762   5.997  15.938  0.1194 -2.4341 -0.4224
 7095TIP3    H242701   1.639   6.085  15.935  1.5674 -0.3850 -1.6171
 7096TIP3   OH242702   2.705   0.894  13.017 -1.0293  0.5384 -0.1527
 7096TIP3    H142703   2.757   0.876  13.095 -1.0316  1.2521  0.0260
 7096TIP3    H242704   2.634   0.831  13.020 -0.5398 -0.0172 -0.0456
 7097TIP3   OH242705   3.139   5.960   3.921  0.3231 -0.1878 -0.7613
 7097TIP3    H142706   3.123   5.950   4.015 -2.0932 -0.3206 -1.1375
 7097TIP3    H242707   3.198   5.888   3.900 -2.4601 -2.8570 -0.0684
 7098TIP3   OH242708   4.003   2.772  11.521 -0.4495 -0.3642 -0.3085
 7098TIP3    H142709   4.062   2.825  11.574  1.9932 -0.0852 -3.0600
 7098TIP3    H242710   3.993   2.690  11.570  1.3990  0.0143  0.7645
 7099TIP3   OH242711   3.802   3.293  14.293 -0.9880  0.1543 -0.2008
 7099TIP3    H142712   3.738   3.355  14.258 -1.3452  0.3765  0.8107
 7099TIP3    H242713   3.851   3.343  14.358  0.4488  0.0783 -1.1868
 7100TIP3   OH242714   3.589   4.892  17.550 -0.3933  0.5967 -0.2978
 7100TIP3    H142715   3.538   4.842  17.614  0.3723 -0.5515 -0.5440
 7100TIP3    H242716   3.549   4.869  17.465  1.2401 -1.3194 -0.6248
 7101TIP3   OH242717   1.054   3.452   5.335  0.2764  0.2047  0.0299
 7101TIP3    H142718   1.002   3.392   5.389  1.2295  0.1884  0.9618
 7101TIP3    H242719   1.135   3.404   5.318 -0.0915  0.1145 -1.6457
 7102TIP3   OH242720   4.931   4.193   2.858 -0.2333 -0.2354 -0.7829
 7102TIP3    H142721   4.966   4.108   2.831 -0.3822 -0.6044  0.1268
 7102TIP3    H242722   4.851   4.171   2.906 -0.0242  0.3808 -0.1349
 7103TIP3   OH242723   0.934   3.990  13.910 -0.1891  0.4145  0.1588
 7103TIP3    H142724   0.991   3.938  13.853  0.0432  1.6318 -0.7700
 7103TIP3    H242725   0.849   3.948  13.903  0.4457 -1.1168  1.1502
 7104TIP3   OH242726   0.284   5.154  13.208  0.2840 -0.2666  0.0895
 7104TIP3    H142727   0.218   5.090  13.179  0.3195 -0.1454 -0.2642
 7104TIP3    H242728   0.360   5.137  13.153 -0.5639  1.7825 -1.8855
 7105TIP3   OH242729   5.400   1.920   3.178 -0.6005  0.3470 -0.0580
 7105TIP3    H142730   5.345   1.984   3.132 -1.6394  0.2137  0.9529
 7105TIP3    H242731   5.489   1.938   3.147 -1.0717  1.2684 -0.9361
 7106TIP3   OH242732   3.243   5.002   0.989  0.2994 -1.0593  0.1573
 7106TIP3    H142733   3.297   4.928   0.961 -1.5390 -2.7350  0.7262
 7106TIP3    H242734   3.153   4.969   0.983 -0.6649  1.4377 -0.3529
 7107TIP3   OH242735   0.723   1.491   2.901  0.0852 -0.3186  0.3216
 7107TIP3    H142736   0.797   1.443   2.864  1.1212  2.2113 -1.2059
 7107TIP3    H242737   0.713   1.567   2.844 -2.4825  0.4523  1.6261
 7108TIP3   OH242738   1.679   0.668  12.874  0.2890 -0.1091 -0.0500
 7108TIP3    H142739   1.670   0.743  12.814 -0.2968 -0.3413 -0.2676
 7108TIP3    H242740   1.588   0.645  12.896  0.4794 -0.4939  0.3444
 7109TIP3   OH242741   5.498   5.859   6.547  0.4822 -0.2063  0.0277
 7109TIP3    H142742   5.534   5.772   6.567 -0.7895 -0.8130 -0.2312
 7109TIP3    H242743   5.404   5.845   6.539  0.0881  1.4405  1.2622
 7110TIP3   OH242744   4.863   3.458   0.794 -0.0277 -0.3059 -0.2987
 7110TIP3    H142745   4.860   3.551   0.820  0.5096  0.2712 -2.1689
 7110TIP3    H242746   4.829   3.411   0.871  0.0194  1.4000  0.8259
 7111TIP3   OH242747   3.992   3.203   3.876  0.3386 -0.3876  0.2266
 7111TIP3    H142748   4.080   3.189   3.911  0.8412 -0.0028 -0.8553
 7111TIP3    H242749   4.000   3.186   3.783 -0.7436 -0.3556  0.1143
 7112TIP3   OH242750   3.834   1.751   2.802 -0.4772 -0.4555  0.6776
 7112TIP3    H142751   3.796   1.770   2.888 -2.3434 -2.2743  0.3435
 7112TIP3    H242752   3.774   1.687   2.763  1.3864 -1.1739 -1.1918
 7113TIP3   OH242753   1.472   3.070  17.030  0.2136 -0.2784  0.1284
 7113TIP3    H142754   1.382   3.074  17.061  0.7340  1.6571  1.5644
 7113TIP3    H242755   1.466   3.028  16.944 -2.1019  0.2790 -0.0387
 7114TIP3   OH242756   1.545   0.070  11.772 -0.2292  0.4048  0.1701
 7114TIP3    H142757   1.571   0.160  11.756 -0.6546  0.2580 -1.5790
 7114TIP3    H242758   1.560   0.056  11.865 -2.6368  3.1145  1.0976
 7115TIP3   OH242759   1.684   6.177   2.943  0.0047  0.4458 -0.1530
 7115TIP3    H142760   1.720   6.122   2.873 -2.0246 -0.2408 -0.7233
 7115TIP3    H242761   1.635   6.116   2.998 -0.1835  1.3165  0.6719
 7116TIP3   OH242762   2.912   4.193  11.629  0.5866 -0.6830  0.1024
 7116TIP3    H142763   2.844   4.162  11.688  0.1272 -1.2138 -0.6887
 7116TIP3    H242764   2.975   4.121  11.623  1.2947 -0.1498  0.9262
 7117TIP3   OH242765   4.815   4.380   5.805 -0.3139 -0.1639 -0.5300
 7117TIP3    H142766   4.830   4.328   5.884  1.3774  0.1646 -0.5938
 7117TIP3    H242767   4.738   4.340   5.765 -0.7337 -0.8377  0.8622
 7118TIP3   OH242768   5.180   5.402  16.759 -0.4416 -0.0868  0.5453
 7118TIP3    H142769   5.184   5.472  16.694 -1.5171  0.5823  1.1762
 7118TIP3    H242770   5.258   5.349  16.741 -0.6295  0.1516 -1.1825
 7119TIP3   OH242771   3.828   3.745  12.353  0.0867 -0.3597 -0.4734
 7119TIP3    H142772   3.901   3.688  12.379 -0.3481 -1.3592 -1.3640
 7119TIP3    H242773   3.774   3.690  12.297 -2.0565 -0.0608  1.1621
 7120TIP3   OH242774   3.350   2.987   1.235 -0.3563 -0.7476  0.1822
 7120TIP3    H142775   3.413   3.025   1.174 -0.6445  1.8844  1.4004
 7120TIP3    H242776   3.268   2.984   1.187 -0.2162 -0.2416 -0.0954
 7121TIP3   OH242777   4.263   0.869  16.631  0.1223 -0.9766  0.1573
 7121TIP3    H142778   4.210   0.862  16.711  1.0243 -0.5113  0.8079
 7121TIP3    H242779   4.230   0.948  16.588 -0.4340 -1.2841  0.0048
 7122TIP3   OH242780   4.830   1.920  13.962 -0.1570  0.1021  1.0769
 7122TIP3    H142781   4.891   1.980  13.918 -0.0957 -0.9989 -0.4240
 7122TIP3    H242782   4.790   1.870  13.890  0.1177 -1.9703  2.2905
 7123TIP3   OH242783   3.739   4.330   4.693  0.4528  0.3615 -0.7924
 7123TIP3    H142784   3.819   4.293   4.656 -0.3428 -1.1086 -1.1276
 7123TIP3    H242785   3.745   4.313   4.787  0.3782 -0.0618 -0.8638
 7124TIP3   OH242786   2.695   2.696  13.806  0.3395 -0.4268 -0.8770
 7124TIP3    H142787   2.726   2.708  13.896 -3.1539  0.7736  0.3256
 7124TIP3    H242788   2.678   2.602  13.799  1.4699 -0.6666 -0.6429
 7125TIP3   OH242789   6.652   4.488  11.852  0.2181  0.1155  0.1338
 7125TIP3    H142790   6.662   4.416  11.914  1.1542  1.0199  1.0927
 7125TIP3    H242791   6.717   4.470  11.784  0.2902 -0.0685  0.2504
 7126TIP3   OH242792   4.233   6.075  11.638 -0.2305 -0.1188  0.4847
 7126TIP3    H142793   4.155   6.029  11.668 -0.4462  0.2332  0.4728
 7126TIP3    H242794   4.213   6.101  11.548  1.5520 -3.8300 -1.2008
 7127TIP3   OH242795   1.727   1.288  11.688 -0.2783  0.3728 -0.2080
 7127TIP3    H142796   1.730   1.227  11.615 -2.2618  0.1633 -0.1556
 7127TIP3    H242797   1.794   1.354  11.667  0.4888 -0.7009 -1.2480
 7128TIP3   OH242798   1.575   3.108  16.399  0.0745 -0.5005  0.0472
 7128TIP3    H142799   1.516   3.040  16.367  0.8941 -1.5689  0.7628
 7128TIP3    H242800   1.577   3.173  16.328 -0.9447 -1.0619 -0.5159
 7129TIP3   OH242801   2.661   5.329   6.078  0.5810 -0.1461  0.0778
 7129TIP3    H142802   2.654   5.244   6.121  0.7413 -0.6309 -0.8395
 7129TIP3    H242803   2.729   5.318   6.012  0.6899  0.7314  0.0277
 7130TIP3   OH242804   2.936   3.400  12.244 -0.3239 -0.3336  0.2597
 7130TIP3    H142805   2.932   3.371  12.153 -0.7151 -0.4328  0.3055
 7130TIP3    H242806   2.913   3.322  12.295  0.3578 -0.4083  0.4692
 7131TIP3   OH242807   2.875   3.843   4.173 -0.0992  0.0262  0.4354
 7131TIP3    H142808   2.925   3.820   4.094 -0.7596 -0.1580  0.0612
 7131TIP3    H242809   2.873   3.939   4.172 -2.0639  0.0485 -1.0774
 7132TIP3   OH242810   3.057   1.227   6.592 -0.2744  0.1527  0.1337
 7132TIP3    H142811   2.989   1.270   6.542 -0.0186 -1.3423 -1.6323
 7132TIP3    H242812   3.039   1.133   6.581  0.9587 -0.2452  1.2159
 7133TIP3   OH242813   2.330   5.567   4.262  0.4461  0.2765 -0.4645
 7133TIP3    H142814   2.242   5.580   4.227 -0.4361  1.2420  1.8730
 7133TIP3    H242815   2.372   5.653   4.256 -0.2277  0.8622  1.9060
 7134TIP3   OH242816   6.162   2.779  13.778 -0.4419  0.9112 -0.1817
 7134TIP3    H142817   6.133   2.688  13.778  1.2294  0.2856 -2.2270
 7134TIP3    H242818   6.167   2.802  13.870  0.5757 -1.6140  0.4910
 7135TIP3   OH242819   5.621   4.054  12.578  0.3116 -0.0831 -0.1603
 7135TIP3    H142820   5.681   4.101  12.637  1.9623 -0.8441 -1.1484
 7135TIP3    H242821   5.679   4.005  12.520 -1.2290  0.7206 -2.5162
 7136TIP3   OH242822   0.661   2.298   4.976 -0.0425  0.4745 -0.5304
 7136TIP3    H142823   0.628   2.366   4.917 -1.8785 -0.1319 -0.2596
 7136TIP3    H242824   0.673   2.343   5.059 -0.2820  0.6927 -0.6111
 7137TIP3   OH242825   3.479   3.936   0.889 -0.3127  0.2182  0.0294
 7137TIP3    H142826   3.488   4.028   0.863 -0.1297 -0.0339 -0.7946
 7137TIP3    H242827   3.412   3.901   0.831  1.2200 -0.7578 -1.2087
 7138TIP3   OH242828   5.811   3.530   1.968 -0.1762  0.0340 -0.2075
 7138TIP3    H142829   5.717   3.514   1.979 -0.1680 -0.0592 -0.2684
 7138TIP3    H242830   5.843   3.546   2.057  0.2548 -2.6776  0.2347
 7139TIP3   OH242831   3.903   3.455  11.597 -0.1906  0.0122 -0.1484
 7139TIP3    H142832   3.839   3.429  11.531 -0.3723  1.2915 -0.5058
 7139TIP3    H242833   3.988   3.441  11.555 -0.3112  1.2023 -0.8346
 7140TIP3   OH242834   3.565   5.742  13.577 -0.5437 -0.3616 -0.8220
 7140TIP3    H142835   3.625   5.817  13.578  1.7679 -2.1120 -0.5196
 7140TIP3    H242836   3.496   5.766  13.639  0.0019  1.5676 -0.8899
 7141TIP3   OH242837   0.753   4.617  13.807  0.4521  0.2256 -0.2557
 7141TIP3    H142838   0.715   4.637  13.721 -0.8401 -0.0525  0.2311
 7141TIP3    H242839   0.716   4.684  13.865 -0.7048 -1.0946  0.5754
 7142TIP3   OH242840   6.009   3.596   4.721 -0.2927 -0.8142  0.0848
 7142TIP3    H142841   5.964   3.667   4.768 -1.1956  0.1010 -2.0475
 7142TIP3    H242842   6.056   3.549   4.790  0.0553  1.6247  1.6454
 7143TIP3   OH242843   6.169   6.231  13.851  0.2292  0.0800  0.2425
 7143TIP3    H142844   6.180   6.320  13.886 -1.9618  0.6943 -0.4202
 7143TIP3    H242845   6.093   6.238  13.793  1.1480 -1.8434 -1.3070
 7144TIP3   OH242846   5.626   3.653   2.828 -0.3653 -0.0968  0.1369
 7144TIP3    H142847   5.706   3.661   2.776 -1.5348  0.8778 -1.6452
 7144TIP3    H242848   5.656   3.643   2.918  1.7582  1.7264 -0.2850
 7145TIP3   OH242849   3.016   3.143  15.469  0.7747  0.4217  0.0466
 7145TIP3    H142850   3.055   3.228  15.488  1.4700 -0.0468  0.7798
 7145TIP3    H242851   3.050   3.121  15.382 -0.8969  1.7101 -0.9902
 7146TIP3   OH242852   0.411   5.087  14.094 -0.3183  0.4248  0.1082
 7146TIP3    H142853   0.497   5.052  14.067 -1.1189  0.2339 -2.5031
 7146TIP3    H242854   0.376   5.128  14.014 -2.4504  0.9411  1.2412
 7147TIP3   OH242855   2.999   1.556  17.413  0.6827  0.3412 -0.2163
 7147TIP3    H142856   3.056   1.568  17.336  0.3025 -0.6523 -0.6710
 7147TIP3    H242857   2.953   1.639  17.422  0.3145  0.2897 -1.4271
 7148TIP3   OH242858   5.769   3.070  12.493 -0.1763 -0.3057  0.0982
 7148TIP3    H142859   5.856   3.031  12.485 -0.2921 -0.5582  0.0665
 7148TIP3    H242860   5.767   3.104  12.583  0.0780  0.0035 -0.0117
 7149TIP3   OH242861   3.339   0.881   0.013  0.6751 -0.5937 -0.1934
 7149TIP3    H142862   3.369   0.968   0.037  1.5319 -0.4960 -1.5311
 7149TIP3    H242863   3.249   0.893  -0.016  1.1566  0.0890 -1.5143
 7150TIP3   OH242864   0.838   5.490   5.140  0.1182 -0.4050 -0.6517
 7150TIP3    H142865   0.763   5.445   5.101 -0.6298  0.9532 -0.8373
 7150TIP3    H242866   0.816   5.498   5.232 -0.3822  0.7290 -0.8472
 7151TIP3   OH242867   0.867   5.531  14.800 -0.5631  0.4046 -0.3340
 7151TIP3    H142868   0.778   5.563  14.817 -0.3106  0.4340  1.0479
 7151TIP3    H242869   0.923   5.607  14.811 -0.4077  0.5519 -1.9238
 7152TIP3   OH242870   3.044   5.267  15.230  0.2374 -0.6508 -0.2815
 7152TIP3    H142871   2.992   5.198  15.188  1.3366 -1.8628  0.2946
 7152TIP3    H242872   3.125   5.269  15.180  0.6272 -0.4904  0.3524
 7153TIP3   OH242873   0.351   3.002   6.246  0.6887  0.1312  0.3184
 7153TIP3    H142874   0.352   2.973   6.338  0.3361  0.7768  0.5330
 7153TIP3    H242875   0.331   3.096   6.251  0.6349  0.1628 -0.4237
 7154TIP3   OH242876   3.957   5.331  11.423 -0.2732  0.5343  0.2494
 7154TIP3    H142877   4.016   5.364  11.491 -1.7811  1.6343  1.0827
 7154TIP3    H242878   4.009   5.338  11.342  1.4511 -0.5343  1.1966
 7155TIP3   OH242879   5.075   1.900  12.122 -0.2429 -0.0708 -0.4322
 7155TIP3    H142880   5.002   1.949  12.161 -0.0540  1.6351 -2.0797
 7155TIP3    H242881   5.152   1.954  12.138  0.2364 -0.5588 -1.0449
 7156TIP3   OH242882   0.924   4.954  14.878  0.8460 -0.1428  0.8711
 7156TIP3    H142883   0.860   4.955  14.807  1.4343  0.5107  0.3444
 7156TIP3    H242884   0.967   5.040  14.873  2.7770 -1.0953  0.2943
 7157TIP3   OH242885   4.388   6.290   4.479  0.6410  0.3352  0.4340
 7157TIP3    H142886   4.322   6.285   4.548  0.8303  1.4718  0.7179
 7157TIP3    H242887   4.350   6.243   4.405 -0.9097  1.8161  0.2469
 7158TIP3   OH242888   3.358   1.672   6.177  0.1578 -0.5073 -0.7137
 7158TIP3    H142889   3.351   1.596   6.235  1.3692 -0.6020 -0.6672
 7158TIP3    H242890   3.272   1.678   6.136 -0.8468 -0.2627  1.2981
 7159TIP3   OH242891   0.946   3.225  16.167  0.5132 -0.0200  0.3208
 7159TIP3    H142892   1.025   3.234  16.114  0.2318 -0.8517 -0.2677
 7159TIP3    H242893   0.907   3.313  16.169  0.6035  0.0520 -0.7487
 7160TIP3   OH242894   6.411   2.095  14.402  0.1415 -0.2560  0.9599
 7160TIP3    H142895   6.322   2.096  14.368  0.1094 -0.3184  1.0418
 7160TIP3    H242896   6.407   2.148  14.482  0.4425  0.7704  0.3170
 7161TIP3   OH242897   2.556   5.711   2.370 -0.5503  0.0242 -0.2272
 7161TIP3    H142898   2.528   5.620   2.366 -1.2189  0.2544 -2.3155
 7161TIP3    H242899   2.476   5.759   2.394 -0.7328  0.2264 -1.2001
 7162TIP3   OH242900   5.203   5.662  11.428 -0.0017 -0.1478  0.4335
 7162TIP3    H142901   5.120   5.700  11.397  1.6090  3.6403  0.1416
 7162TIP3    H242902   5.228   5.716  11.503  2.1497 -1.2538  0.6047
 7163TIP3   OH242903   5.700   4.567  11.517 -0.0825 -0.4437  0.8475
 7163TIP3    H142904   5.715   4.562  11.422 -1.7236 -1.6447  0.5923
 7163TIP3    H242905   5.608   4.590  11.525  0.2813  0.6543  2.1906
 7164TIP3   OH242906   3.174   4.167   1.592  0.1109 -0.0489 -0.0785
 7164TIP3    H142907   3.187   4.254   1.554 -0.5114  0.3216  0.5369
 7164TIP3    H242908   3.080   4.161   1.605  0.0677 -1.1127 -0.7886
 7165TIP3   OH242909   2.361   0.887   3.081  0.2062  0.2013 -0.2066
 7165TIP3    H142910   2.319   0.821   3.026 -1.6081  0.7485  0.4535
 7165TIP3    H242911   2.411   0.941   3.021  0.9017 -1.1357 -0.8847
 7166TIP3   OH242912   5.725   0.197   0.886  0.0672 -0.0449  0.7349
 7166TIP3    H142913   5.801   0.143   0.868 -0.0297  0.1158 -0.2217
 7166TIP3    H242914   5.655   0.135   0.905 -0.1431 -0.3019 -0.7506
 7167TIP3   OH242915   0.042   3.642  16.966  0.0706 -0.6444  0.0314
 7167TIP3    H142916  -0.035   3.585  16.971  0.4327 -1.0679  0.8053
 7167TIP3    H242917   0.117   3.583  16.962  0.5128 -0.2660  1.7438
 7168TIP3   OH242918   4.633   4.491  14.432  0.5272  0.1632 -0.1753
 7168TIP3    H142919   4.726   4.486  14.454  0.7024  0.7133 -0.7684
 7168TIP3    H242920   4.626   4.568  14.375 -0.2886  0.1219 -0.1377
 7169TIP3   OH242921   5.669   1.348   5.402  0.2473 -0.3053  0.7795
 7169TIP3    H142922   5.685   1.270   5.348  1.3324  0.4603 -0.0346
 7169TIP3    H242923   5.573   1.354   5.406  0.1417 -1.0334 -0.1084
 7170TIP3   OH242924   0.897   5.226  13.559 -0.3314 -0.3230 -0.1310
 7170TIP3    H142925   0.859   5.220  13.471  0.6583 -1.0284 -0.5343
 7170TIP3    H242926   0.863   5.308  13.594 -1.2822 -0.3614 -0.9088
 7171TIP3   OH242927   5.809   4.589  14.196 -0.4705 -0.0768 -0.2184
 7171TIP3    H142928   5.794   4.496  14.182 -1.9789 -0.1906  1.6936
 7171TIP3    H242929   5.904   4.596  14.210 -0.4599 -1.5028  0.6519
 7172TIP3   OH242930   2.697   2.002  14.317 -0.1948 -0.1724 -0.2275
 7172TIP3    H142931   2.788   2.024  14.338 -0.1907 -0.4698  0.0765
 7172TIP3    H242932   2.701   1.912  14.285 -0.0565  0.5576 -2.5048
 7173TIP3   OH242933   6.575   6.203  15.912  0.4376  0.1227  0.5902
 7173TIP3    H142934   6.603   6.112  15.921 -1.9135 -0.6700  0.5031
 7173TIP3    H242935   6.517   6.203  15.836 -0.8052  1.3652  1.4868
 7174TIP3   OH242936   2.498   0.098  13.151  0.0179 -0.3192 -0.0740
 7174TIP3    H142937   2.564   0.142  13.098 -0.5830 -1.1130 -1.5174
 7174TIP3    H242938   2.414   0.133  13.120 -0.3464 -0.8239  0.3208
 7175TIP3   OH242939   4.461   1.209   4.619 -0.1253 -0.2241 -0.6276
 7175TIP3    H142940   4.455   1.274   4.689 -0.3902 -0.2331 -0.6427
 7175TIP3    H242941   4.432   1.127   4.658 -0.6959 -0.1405 -0.8632
 7176TIP3   OH242942   5.207   4.458  12.164  0.0934 -0.5589  0.1474
 7176TIP3    H142943   5.247   4.480  12.248 -0.8931  1.4646  0.1590
 7176TIP3    H242944   5.269   4.397  12.123  1.5552 -0.0647  1.5080
 7177TIP3   OH242945   1.495   1.442   6.779 -0.3337  0.3097 -0.1730
 7177TIP3    H142946   1.409   1.430   6.739 -0.8981 -1.3017  1.3890
 7177TIP3    H242947   1.529   1.353   6.792  1.3005  0.8880 -0.1667
 7178TIP3   OH242948   3.126   2.537   0.726 -0.3484 -0.0594 -0.3115
 7178TIP3    H142949   3.168   2.598   0.666 -0.2914 -0.5318 -0.7536
 7178TIP3    H242950   3.159   2.561   0.813  0.5258 -0.1810 -0.6092
 7179TIP3   OH242951   2.235   4.441  16.810  0.4147 -0.4792  0.0741
 7179TIP3    H142952   2.266   4.519  16.857 -1.2157  1.0595 -1.2731
 7179TIP3    H242953   2.192   4.388  16.877  1.0041  0.0672  0.9038
 7180TIP3   OH242954   4.175   1.518  16.213  0.0993 -0.2881 -0.0808
 7180TIP3    H142955   4.104   1.509  16.150 -1.2918 -0.5251  1.4627
 7180TIP3    H242956   4.151   1.594  16.266 -1.1794 -2.6185  3.0193
 7181TIP3   OH242957   0.306   6.081   3.412 -0.0754  0.3348  0.2068
 7181TIP3    H142958   0.311   6.037   3.327 -0.7502  0.3389  0.1556
 7181TIP3    H242959   0.355   6.162   3.400  1.1695 -0.3823  0.2984
 7182TIP3   OH242960   2.990   3.475  17.455 -0.8744 -0.4104  0.4127
 7182TIP3    H142961   3.060   3.525  17.413 -0.9816  0.7671  1.5798
 7182TIP3    H242962   3.014   3.383  17.439 -0.1061 -0.0167 -0.8569
 7183TIP3   OH242963   3.657   4.032  11.960 -0.1705  0.4266  0.1995
 7183TIP3    H142964   3.691   3.997  12.042  0.1348  0.0226 -0.0942
 7183TIP3    H242965   3.688   4.123  11.958 -0.1503  0.4274  0.5134
 7184TIP3   OH242966   0.608   6.434  11.629 -0.3705  1.4697 -0.3886
 7184TIP3    H142967   0.693   6.441  11.585  0.3471  0.4479  0.7719
 7184TIP3    H242968   0.549   6.400  11.561  0.4308  1.0502 -0.8939
 7185TIP3   OH242969   5.799   5.079  13.722 -0.4794 -0.3522  0.3372
 7185TIP3    H142970   5.777   5.039  13.806  0.9876  1.0493  1.4507
 7185TIP3    H242971   5.874   5.029  13.691  0.6813  0.7848  1.2123
 7186TIP3   OH242972   2.036   0.970  12.479  0.2726  0.2016  0.7097
 7186TIP3    H142973   2.073   0.882  12.475 -0.1576 -0.0464  1.8140
 7186TIP3    H242974   2.045   1.004  12.390 -1.1393 -1.5890 -0.1620
 7187TIP3   OH242975   0.126   5.860  14.329 -0.6941  0.3064  0.3645
 7187TIP3    H142976   0.090   5.926  14.388 -1.9305 -0.8643  0.9703
 7187TIP3    H242977   0.050   5.810  14.299  0.2626 -1.3630  0.5733
 7188TIP3   OH242978   1.775   1.161  15.397 -0.5772 -0.4898 -0.3247
 7188TIP3    H142979   1.761   1.248  15.360 -2.1321 -0.1160  1.0316
 7188TIP3    H242980   1.793   1.177  15.489  0.8372 -1.5382 -0.3930
 7189TIP3   OH242981   5.029   4.575   0.299  0.7874  0.2272  0.6266
 7189TIP3    H142982   4.982   4.508   0.349  0.1890 -0.9813 -1.4450
 7189TIP3    H242983   5.105   4.529   0.264 -0.5502 -0.0064 -2.3013
 7190TIP3   OH242984   5.285   1.142  12.700 -0.1942  0.8043 -0.5295
 7190TIP3    H142985   5.200   1.171  12.668 -0.3996  0.4912 -0.2786
 7190TIP3    H242986   5.321   1.088  12.629 -0.7852 -0.1462 -0.1256
 7191TIP3   OH242987   0.530   4.018  14.785 -0.0207  0.3250 -0.2115
 7191TIP3    H142988   0.471   4.038  14.858  2.0275  0.8386  1.3871
 7191TIP3    H242989   0.548   3.924  14.793 -0.9844  0.0495 -1.0305
 7192TIP3   OH242990   4.363   6.390   3.945 -0.3592  0.5743 -0.4894
 7192TIP3    H142991   4.344   6.350   3.861 -2.7784 -0.9461  0.6921
 7192TIP3    H242992   4.398   6.319   3.999 -0.0693  1.2109  0.1841
 7193TIP3   OH242993   5.681   0.788  13.199  0.3940 -0.0219  0.1037
 7193TIP3    H142994   5.702   0.850  13.129 -0.6042  0.5611  0.2958
 7193TIP3    H242995   5.599   0.747  13.171 -0.4286  0.7710  1.2687
 7194TIP3   OH242996   3.244   5.996   2.708  0.2372 -0.2549 -0.3834
 7194TIP3    H142997   3.325   5.994   2.656  0.0361  0.0817 -0.7105
 7194TIP3    H242998   3.239   5.908   2.747  1.2736  0.0237  0.4291
 7195TIP3   OH242999   2.333   5.507  14.811  0.2816  0.5824 -0.2457
 7195TIP3    H143000   2.306   5.515  14.720 -1.9820 -0.0409  0.2983
 7195TIP3    H243001   2.331   5.413  14.828 -0.8204  0.7740  0.8253
 7196TIP3   OH243002   6.359   3.925   2.545  0.1714  0.3521 -0.6246
 7196TIP3    H143003   6.316   3.990   2.490  1.4520  1.2863 -0.5591
 7196TIP3    H243004   6.445   3.962   2.563  0.0635 -0.2623  1.4086
 7197TIP3   OH243005   5.176   4.550  11.471 -0.5290 -0.3662  0.4305
 7197TIP3    H143006   5.112   4.589  11.412  1.4236  2.6982  0.0921
 7197TIP3    H243007   5.261   4.568  11.429  0.8660  0.7237  3.4328
 7198TIP3   OH243008   3.079   5.320   4.873 -0.1501  0.1696  0.1360
 7198TIP3    H143009   3.134   5.347   4.946 -0.6170 -0.5212  0.7579
 7198TIP3    H243010   3.056   5.229   4.893  0.5142 -0.3657 -1.3571
 7199TIP3   OH243011   6.139   0.046   2.935 -0.1779 -0.0852 -0.7112
 7199TIP3    H143012   6.150   0.136   2.966  2.5160 -0.6062  0.1502
 7199TIP3    H243013   6.194   0.041   2.857 -0.1328 -1.0310 -0.6303
 7200TIP3   OH243014   3.100   0.018  14.018 -0.2101 -0.0618 -0.3230
 7200TIP3    H143015   3.075  -0.027  13.937 -0.8054 -2.8320  1.2623
 7200TIP3    H243016   3.017   0.034  14.063  0.2046  0.2157  0.3482
 7201TIP3   OH243017   3.124   6.297  15.392  0.1618 -0.6747 -0.1153
 7201TIP3    H143018   3.194   6.235  15.409  1.4393  0.5359 -0.7167
 7201TIP3    H243019   3.093   6.274  15.304  1.1406 -0.0334 -0.6475
 7202TIP3   OH243020   6.410   1.762   2.419 -0.4795 -0.0604 -0.4159
 7202TIP3    H143021   6.336   1.821   2.411 -0.0878  0.4241 -0.5211
 7202TIP3    H243022   6.372   1.674   2.410 -1.1489  0.1401  0.4161
 7203TIP3   OH243023   0.996   2.591   5.594 -0.0163  0.1036 -0.0215
 7203TIP3    H143024   1.010   2.665   5.653  0.0887 -0.5118  0.7277
 7203TIP3    H243025   0.951   2.526   5.647 -0.9919 -0.0047 -0.9446
 7204TIP3   OH243026   1.829   3.792  14.060 -0.3828 -0.2480 -0.0485
 7204TIP3    H143027   1.751   3.759  14.105  1.6657 -3.0090  1.8262
 7204TIP3    H243028   1.841   3.880  14.095 -2.4198  0.1224 -0.1438
 7205TIP3   OH243029   1.823   1.423  12.212 -0.5871 -0.5801 -0.0438
 7205TIP3    H143030   1.762   1.483  12.254  0.2641 -0.1436  0.5876
 7205TIP3    H243031   1.814   1.443  12.118  1.7756  2.6740  0.2538
 7206TIP3   OH243032   2.902   1.044  12.158  0.1171 -0.3278  0.3743
 7206TIP3    H143033   2.899   1.081  12.070 -1.9262 -1.5055 -0.1146
 7206TIP3    H243034   2.817   1.064  12.196 -0.0719 -2.1733  1.0450
 7207TIP3   OH243035   2.697   1.261  15.481 -0.0841 -0.5021 -0.4134
 7207TIP3    H143036   2.704   1.177  15.528 -1.0863 -0.0626  0.5638
 7207TIP3    H243037   2.715   1.239  15.390 -1.3008 -1.9742 -0.3380
 7208TIP3   OH243038   3.481   0.150  16.620 -0.1448  0.0105  0.1785
 7208TIP3    H143039   3.489   0.241  16.593  1.0989 -0.0143  0.3721
 7208TIP3    H243040   3.406   0.148  16.679  0.6345  1.1794  1.2404
 7209TIP3   OH243041   2.339   6.386   0.696  0.3310  0.0246 -0.0837
 7209TIP3    H143042   2.380   6.336   0.767  0.6611  0.9581  0.4054
 7209TIP3    H243043   2.360   6.477   0.716  1.4986  0.2421 -2.0476
 7210TIP3   OH243044   0.890   1.458   4.083  0.2419  0.3141  0.2496
 7210TIP3    H143045   0.964   1.399   4.092  0.7864  0.9424  0.0465
 7210TIP3    H243046   0.813   1.402   4.087  0.7746 -0.8795 -3.1596
 7211TIP3   OH243047   2.232   0.110   5.248 -0.1265  0.5471  0.2485
 7211TIP3    H143048   2.236   0.031   5.194 -2.7870  0.9911 -0.7507
 7211TIP3    H243049   2.251   0.182   5.187  0.7690  0.7920  0.8057
 7212TIP3   OH243050   1.594   2.857   4.809 -0.4080 -0.2901  0.3999
 7212TIP3    H143051   1.681   2.866   4.848 -0.3748  0.5828  0.1463
 7212TIP3    H243052   1.584   2.763   4.795  1.3875 -0.2558 -1.5541
 7213TIP3   OH243053   1.199   1.299   5.333 -0.3168  0.3522 -0.4033
 7213TIP3    H143054   1.167   1.260   5.414  1.0598  1.4065  0.7210
 7213TIP3    H243055   1.134   1.365   5.310  0.6439  2.1500  1.5863
 7214TIP3   OH243056   4.217   2.465   1.143  0.2761 -0.6719 -0.5876
 7214TIP3    H143057   4.197   2.556   1.121  0.6979 -0.4389 -0.0356
 7214TIP3    H243058   4.140   2.436   1.193  0.4096 -0.4188 -0.2258
 7215TIP3   OH243059   0.954   3.160  16.930 -0.0369  0.3449 -0.6365
 7215TIP3    H143060   0.948   3.241  16.880 -0.1545  0.5919 -0.2220
 7215TIP3    H243061   0.875   3.159  16.984 -0.2149 -0.2189 -0.8960
 7216TIP3   OH243062   2.314   3.794   1.504 -0.1361 -0.4604  0.1618
 7216TIP3    H143063   2.321   3.831   1.592 -0.1182  0.3389 -0.1635
 7216TIP3    H243064   2.318   3.870   1.446 -2.1552 -0.7749 -0.4625
 7217TIP3   OH243065   5.365   0.339   0.923 -0.1819  0.0767  0.4772
 7217TIP3    H143066   5.318   0.418   0.951 -1.4872 -0.3788 -0.3257
 7217TIP3    H243067   5.405   0.305   1.003 -0.9297  0.6801  1.1240
 7218TIP3   OH243068   2.242   2.148   3.778 -0.2738  0.1395 -0.2837
 7218TIP3    H143069   2.256   2.237   3.746  2.5335 -0.5612 -1.3384
 7218TIP3    H243070   2.175   2.112   3.721 -0.9546  1.3585 -0.2765
 7219TIP3   OH243071   2.020   6.636  15.909 -0.4194 -0.2530  0.2496
 7219TIP3    H143072   2.030   6.623  15.815  0.3565 -2.1383  0.5517
 7219TIP3    H243073   2.103   6.606  15.947 -1.7701 -2.3857  1.7386
 7220TIP3   OH243074   6.202   1.519  12.505 -0.3619 -0.0158 -0.3538
 7220TIP3    H143075   6.152   1.581  12.558  2.5234  1.9514  0.3168
 7220TIP3    H243076   6.221   1.447  12.564 -0.2988  0.4142  0.1557
 7221TIP3   OH243077   2.773   1.363   3.593 -0.0338  0.6564  0.6466
 7221TIP3    H143078   2.753   1.275   3.559  1.0879  0.6286  0.0159
 7221TIP3    H243079   2.699   1.417   3.565 -1.0897 -0.2109  1.6345
 7222TIP3   OH243080   5.328   1.478  12.139  0.5300 -0.2676  0.1376
 7222TIP3    H143081   5.410   1.516  12.173  0.8483 -2.2790  1.8095
 7222TIP3    H243082   5.286   1.550  12.093  2.0361  1.5489  1.4384
 7223TIP3   OH243083   0.699   1.627   0.406 -0.1652 -0.8535  0.0667
 7223TIP3    H143084   0.769   1.607   0.468 -0.3382  0.1090  0.5879
 7223TIP3    H243085   0.667   1.541   0.379 -0.6509 -1.3189  1.9519
 7224TIP3   OH243086   3.018   5.728  15.317 -0.0919 -0.3005 -0.3832
 7224TIP3    H143087   3.001   5.701  15.408 -1.0416  1.2715 -0.0587
 7224TIP3    H243088   2.970   5.664  15.264  1.1253 -1.7266  0.1421
 7225TIP3   OH243089   1.358   5.055   3.281  0.1160 -0.2669 -0.8704
 7225TIP3    H143090   1.398   4.971   3.304 -0.2615 -0.5081 -1.0888
 7225TIP3    H243091   1.272   5.054   3.323  0.3766  0.3052 -0.2993
 7226TIP3   OH243092   1.569   3.696  10.682  0.6202 -0.2607 -0.6104
 7226TIP3    H143093   1.643   3.719  10.739 -0.6439 -0.1979  1.1025
 7226TIP3    H243094   1.538   3.612  10.717 -1.1803  0.5492 -0.1177
 7227TIP3   OH243095   0.282   0.992  15.381 -0.2391 -0.2137  0.0666
 7227TIP3    H143096   0.274   0.897  15.379  0.3359 -0.3634  2.1887
 7227TIP3    H243097   0.348   1.013  15.316  1.7999 -1.5925  1.5806
 7228TIP3   OH243098   0.358   3.592   5.571  0.1938  0.0223 -0.4382
 7228TIP3    H143099   0.369   3.655   5.642 -1.5806 -1.5684  1.3907
 7228TIP3    H243100   0.354   3.645   5.492 -2.2504  2.3740  1.0747
 7229TIP3   OH243101   5.936   4.900   0.526 -0.2376  0.5113 -0.7005
 7229TIP3    H143102   5.870   4.841   0.561  0.5182 -0.0695 -0.2235
 7229TIP3    H243103   5.909   4.987   0.556 -0.5858  0.2398 -0.2163
 7230TIP3   OH243104   4.995   5.843  14.053  0.6939 -0.7551 -0.1259
 7230TIP3    H143105   4.947   5.861  13.972  0.8263  1.6959  0.2761
 7230TIP3    H243106   5.087   5.857  14.030  0.6971  0.3972  0.5227
 7231TIP3   OH243107   5.643   2.580   1.197 -0.0304 -0.4115  0.3023
 7231TIP3    H143108   5.643   2.604   1.290 -0.0806 -1.8391  0.7000
 7231TIP3    H243109   5.710   2.636   1.158  0.3080 -0.1002  1.2882
 7232TIP3   OH243110   4.971   4.413   1.619  0.1798  0.2445  0.0464
 7232TIP3    H143111   4.946   4.330   1.659 -0.2261  1.4270  2.4684
 7232TIP3    H243112   5.066   4.419   1.635  0.4540 -0.3093 -1.2909
 7233TIP3   OH243113   2.961   1.732  12.876 -0.5735  0.1381 -0.1958
 7233TIP3    H143114   2.971   1.805  12.816  1.8700 -0.8212 -1.0994
 7233TIP3    H243115   3.051   1.708  12.901 -1.3279 -1.8621  0.9084
 7234TIP3   OH243116   1.914   4.815  14.047  0.3691  0.7665  0.4844
 7234TIP3    H143117   1.882   4.905  14.041  1.3229  1.0390 -0.9431
 7234TIP3    H243118   1.892   4.788  14.136 -3.2610  1.1081 -0.1514
 7235TIP3   OH243119   4.790   4.030   6.664 -0.9706 -0.0586 -0.4069
 7235TIP3    H143120   4.706   4.000   6.697 -0.7717  0.2904  0.4385
 7235TIP3    H243121   4.854   3.969   6.701 -0.5242  1.5515  1.6357
 7236TIP3   OH243122   1.251   4.062   1.365 -0.7201 -0.2040  0.3428
 7236TIP3    H143123   1.171   4.028   1.325 -0.4714 -1.2945  0.7564
 7236TIP3    H243124   1.265   4.007   1.442  0.0278  0.4540  0.6950
 7237TIP3   OH243125   4.016   1.170   4.502 -0.1183 -0.5445  0.8972
 7237TIP3    H143126   4.051   1.190   4.589  0.2912 -1.0161  0.8496
 7237TIP3    H243127   4.054   1.237   4.445  0.1953 -0.6737  0.9557
 7238TIP3   OH243128   0.119   0.053  13.002  0.1989 -0.1790  0.3773
 7238TIP3    H143129   0.063   0.099  13.064  0.0488 -0.9776  0.8548
 7238TIP3    H243130   0.198   0.033  13.052 -0.7064 -2.5922  0.9905
 7239TIP3   OH243131   0.958   4.871   0.690 -0.0824 -0.6443  0.2552
 7239TIP3    H143132   0.878   4.819   0.702  0.2343 -1.2511 -0.2083
 7239TIP3    H243133   0.968   4.918   0.772 -1.1802 -0.1822  0.1539
 7240TIP3   OH243134   4.893   2.674  15.907 -0.0482  0.9103 -0.1935
 7240TIP3    H143135   4.882   2.657  16.001 -1.3315 -0.9888 -0.6425
 7240TIP3    H243136   4.935   2.595  15.873  0.3618  1.5602 -1.2562
 7241TIP3   OH243137   1.606   4.712  14.462 -0.1039  0.4520 -0.2632
 7241TIP3    H143138   1.559   4.790  14.491  0.6200  1.6694 -2.1633
 7241TIP3    H243139   1.557   4.639  14.499 -2.5880  1.7040 -0.8882
 7242TIP3   OH243140   0.572   3.010  17.395 -0.3452 -0.7136  0.0038
 7242TIP3    H143141   0.588   3.101  17.423  1.9953 -0.3051 -2.2404
 7242TIP3    H243142   0.482   3.011  17.363 -0.4374  0.7854  0.2034
 7243TIP3   OH243143   0.180   3.399  16.982 -0.0265 -0.8123 -0.6673
 7243TIP3    H143144   0.200   3.317  17.026  0.6523  0.2468  1.1312
 7243TIP3    H243145   0.200   3.383  16.890 -0.4208 -2.7972 -0.4442
 7244TIP3   OH243146   2.450   3.621  17.062  0.5070  0.1218  0.2173
 7244TIP3    H143147   2.474   3.713  17.047 -0.6588  0.3792 -0.1766
 7244TIP3    H243148   2.423   3.618  17.154  1.9325 -0.1622  0.6527
 7245TIP3   OH243149   1.261   4.566  13.563  0.4700  0.3142 -0.3898
 7245TIP3    H143150   1.173   4.602  13.561  1.6950  3.8080  0.7143
 7245TIP3    H243151   1.310   4.619  13.500  2.4290  0.7925  1.4105
 7246TIP3   OH243152   3.558   4.196   6.273  0.6346 -0.7250  0.5295
 7246TIP3    H143153   3.565   4.291   6.277  1.9129 -0.7750 -0.1455
 7246TIP3    H243154   3.492   4.174   6.339 -1.0625  0.7613 -0.5525
 7247TIP3   OH243155   2.946   6.656  16.826  0.0891  0.2201 -0.4408
 7247TIP3    H143156   2.895   6.589  16.871  0.5687 -0.7146 -1.2625
 7247TIP3    H243157   3.026   6.665  16.879 -0.5076  1.0503  0.3516
 7248TIP3   OH243158   0.818   6.454   4.262 -0.2871  0.3472 -0.4011
 7248TIP3    H143159   0.746   6.459   4.199  0.2741 -0.8696 -1.1869
 7248TIP3    H243160   0.835   6.360   4.271  0.3094  0.5536  0.8244
 7249TIP3   OH243161   3.864   3.871   3.131 -0.2260  0.3987  0.0813
 7249TIP3    H143162   3.808   3.848   3.058  0.3762  0.8318 -0.5329
 7249TIP3    H243163   3.921   3.795   3.143  0.6672  0.8905 -0.8808
 7250TIP3   OH243164   5.214   2.512   1.761 -0.8547 -0.1150  0.1221
 7250TIP3    H143165   5.282   2.574   1.787 -0.9204  0.8754 -1.8747
 7250TIP3    H243166   5.250   2.468   1.685 -1.7396 -0.8791  0.1315
 7251TIP3   OH243167   3.752   6.709  12.132 -0.1594  0.1239  0.1480
 7251TIP3    H143168   3.770   6.658  12.053  0.8228 -0.4768  0.7335
 7251TIP3    H243169   3.829   6.767  12.141  0.2756 -0.5800  1.2368
 7252TIP3   OH243170   1.560   3.901   2.021 -0.4712  0.0486 -0.3989
 7252TIP3    H143171   1.577   3.867   2.109 -0.2143  0.2378 -0.3739
 7252TIP3    H243172   1.641   3.947   1.997 -0.1899 -0.7674 -1.0947
 7253TIP3   OH243173   0.321   5.783   0.908  0.0467  0.2336 -0.1052
 7253TIP3    H143174   0.253   5.715   0.906  0.1157  0.1636 -0.0332
 7253TIP3    H243175   0.363   5.776   0.822  0.4031 -0.1661  0.1003
 7254TIP3   OH243176   3.891   0.355   0.516 -0.1360 -0.3575  0.0642
 7254TIP3    H143177   3.946   0.380   0.590 -0.4872  0.8310 -0.0560
 7254TIP3    H243178   3.927   0.272   0.486  1.3994  0.2335  0.1831
 7255TIP3   OH243179   4.516   2.999   2.582  0.0084  0.5581  0.2494
 7255TIP3    H143180   4.424   2.979   2.594 -0.1988 -0.2721 -2.1818
 7255TIP3    H243181   4.562   2.942   2.643 -1.0164 -0.3434  0.1975
 7256TIP3   OH243182   3.699   3.590  12.670  0.3415 -0.1592  0.5273
 7256TIP3    H143183   3.713   3.625  12.758 -0.0561 -0.9098  0.9030
 7256TIP3    H243184   3.786   3.565  12.640  0.3996 -0.4806  0.9616
 7257TIP3   OH243185   4.048   1.121   2.841 -0.4602  0.2785 -0.1451
 7257TIP3    H143186   4.105   1.068   2.897 -0.9640  0.9925  1.0813
 7257TIP3    H243187   4.099   1.135   2.761  1.2549  1.2058  1.0546
 7258TIP3   OH243188   0.442   4.611  15.011 -0.1091  0.2032 -0.1130
 7258TIP3    H143189   0.367   4.655  15.052  0.3032 -0.8250  1.8532
 7258TIP3    H243190   0.441   4.522  15.046  1.4934 -0.1207 -0.7709
 7259TIP3   OH243191   4.972   1.956   1.974 -0.0136  0.1150  0.1089
 7259TIP3    H143192   5.059   1.929   1.947 -0.5928 -1.6762 -0.1291
 7259TIP3    H243193   4.915   1.884   1.946 -1.2062  0.0432  2.4704
 7260TIP3   OH243194   3.239   4.678  13.961  0.7134 -0.0890  0.5044
 7260TIP3    H143195   3.227   4.621  13.885 -0.4986  2.7236 -1.6169
 7260TIP3    H243196   3.246   4.618  14.035  0.0081 -2.9542 -1.5555
 7261TIP3   OH243197   5.420   3.114   5.028  0.2050  0.0871  0.1641
 7261TIP3    H143198   5.482   3.184   5.050  1.0437 -1.1485  1.9585
 7261TIP3    H243199   5.449   3.083   4.943  3.2274 -1.5446  1.6020
 7262TIP3   OH243200   0.799   4.311  11.951  0.6801  0.2321  0.1013
 7262TIP3    H143201   0.853   4.334  11.875  0.9540 -2.1185 -0.4868
 7262TIP3    H243202   0.813   4.217  11.962 -1.1756  0.0981  1.6519
 7263TIP3   OH243203   2.160   1.608   2.808  0.2260  0.6089 -0.2996
 7263TIP3    H143204   2.108   1.681   2.840 -0.3183 -0.4628  1.4073
 7263TIP3    H243205   2.141   1.604   2.714 -3.5309 -0.2410  0.3204
 7264TIP3   OH243206   1.132   5.278   6.050 -0.0053 -0.2464 -0.4147
 7264TIP3    H143207   1.121   5.194   6.095  0.2788  0.0345  0.1919
 7264TIP3    H243208   1.056   5.329   6.078  0.5960  0.2182  0.4253
 7265TIP3   OH243209   0.363   3.358   5.425  0.1167 -0.4902  0.1902
 7265TIP3    H143210   0.456   3.369   5.405 -0.1950 -0.4844 -1.3430
 7265TIP3    H243211   0.342   3.433   5.481  1.0302 -0.5009  0.5688
 7266TIP3   OH243212   0.531   1.271  17.581 -0.2083  0.3312  0.3056
 7266TIP3    H143213   0.560   1.180  17.569 -0.8985  0.2389 -0.8313
 7266TIP3    H243214   0.575   1.319  17.511 -0.6040  0.6812  0.2922
 7267TIP3   OH243215   4.925   2.769  17.620 -0.1711  0.5296 -0.2626
 7267TIP3    H143216   4.999   2.712  17.599 -0.8494 -0.6461  0.4356
 7267TIP3    H243217   4.853   2.736  17.565 -0.1490  1.8000 -1.1061
 7268TIP3   OH243218   2.530   6.370   2.363 -0.4726  0.0315 -0.0535
 7268TIP3    H143219   2.586   6.448   2.354 -0.8283  0.1787 -1.0164
 7268TIP3    H243220   2.583   6.309   2.414 -0.3086  1.0154  1.0260
 7269TIP3   OH243221   4.221   2.394  12.620 -0.1640  0.6730 -0.3760
 7269TIP3    H143222   4.238   2.488  12.618  2.6225  0.2822 -0.0668
 7269TIP3    H243223   4.199   2.372  12.530 -2.2519  1.7867 -0.1838
 7270TIP3   OH243224   4.851   0.678   7.090  0.3661  0.4923 -0.0779
 7270TIP3    H143225   4.825   0.745   7.154  1.8344  2.6301 -1.5904
 7270TIP3    H243226   4.771   0.657   7.043 -0.6327 -0.7193  2.0073
 7271TIP3   OH243227   5.228   5.278  14.901  0.1885  0.2084 -0.3535
 7271TIP3    H143228   5.166   5.276  14.974 -0.7777 -1.5569 -1.1507
 7271TIP3    H243229   5.177   5.309  14.826 -0.2563 -2.5843 -1.3513
 7272TIP3   OH243230   4.220   3.873  14.497 -0.0670 -0.0933 -0.3561
 7272TIP3    H143231   4.133   3.891  14.532 -0.8168  1.1770 -2.6849
 7272TIP3    H243232   4.278   3.876  14.574 -1.9048  0.0107  1.0973
 7273TIP3   OH243233   5.356   3.130   0.278 -0.0541  0.8161  0.4999
 7273TIP3    H143234   5.289   3.175   0.329 -3.2579 -1.8966 -0.8522
 7273TIP3    H243235   5.361   3.042   0.317 -0.4045 -0.3533 -1.8919
 7274TIP3   OH243236   2.192   3.060  12.392 -0.0008 -0.3597 -0.1360
 7274TIP3    H143237   2.227   3.133  12.340 -3.5237  1.9499  0.3424
 7274TIP3    H243238   2.152   3.002  12.327 -0.5992  0.2458 -0.3250
 7275TIP3   OH243239   5.162   3.758   2.496 -0.5080  0.2146 -0.2044
 7275TIP3    H143240   5.161   3.683   2.556  0.9127 -0.0440 -0.4693
 7275TIP3    H243241   5.214   3.824   2.542  0.7336 -0.0404 -1.1627
 7276TIP3   OH243242   0.614   1.084  16.707 -0.3125 -0.0735 -0.5505
 7276TIP3    H143243   0.656   1.166  16.681 -0.3905 -0.7233 -2.9198
 7276TIP3    H243244   0.522   1.096  16.684 -0.6185 -0.2845  0.5286
 7277TIP3   OH243245   0.033   2.507  14.716  0.1711  0.7097 -0.3188
 7277TIP3    H143246   0.041   2.468  14.629  1.0279 -0.4975  0.2717
 7277TIP3    H243247   0.012   2.433  14.774 -1.7708  1.6884  0.3284
 7278TIP3   OH243248   0.671   2.744  15.617 -0.4555 -0.1585 -0.1032
 7278TIP3    H143249   0.705   2.830  15.640 -1.8937  0.0896  1.2698
 7278TIP3    H243250   0.713   2.684  15.679 -1.5630 -0.0153  0.8179
 7279TIP3   OH243251   4.111   4.929   3.284  0.4766  0.0943  0.0749
 7279TIP3    H143252   4.038   4.974   3.241  0.8182  1.2849  0.6757
 7279TIP3    H243253   4.186   4.946   3.226  0.3586 -0.8626 -0.3805
 7280TIP3   OH243254   1.964   6.531  14.107  0.1005  0.0866 -0.5338
 7280TIP3    H143255   1.979   6.596  14.176  1.7514  1.0682 -1.7374
 7280TIP3    H243256   1.926   6.581  14.035 -2.5534 -1.1074 -0.0869
 7281TIP3   OH243257   1.338   3.649   1.484  0.6234  0.3837 -0.1944
 7281TIP3    H143258   1.300   3.661   1.397  1.2785  1.3087 -0.3653
 7281TIP3    H243259   1.431   3.633   1.467  0.5881 -0.3802  0.2965
 7282TIP3   OH243260   4.038   1.863  15.631  0.5921  0.0719 -0.1195
 7282TIP3    H143261   4.059   1.770  15.641 -2.4613 -0.7268 -0.2843
 7282TIP3    H243262   3.968   1.879  15.695  1.5989  2.5137  0.4920
 7283TIP3   OH243263   4.582   4.443  16.531  0.4283  0.1637 -0.1801
 7283TIP3    H143264   4.671   4.434  16.498  0.5769 -1.8445  0.6177
 7283TIP3    H243265   4.592   4.467  16.623  0.1411  0.2234 -0.1622
 7284TIP3   OH243266   2.691   4.261  13.399 -0.3320  0.2251  0.0902
 7284TIP3    H143267   2.711   4.224  13.312  0.7116 -0.1127  0.4687
 7284TIP3    H243268   2.689   4.185  13.457  0.9911  0.6638  0.7276
 7285TIP3   OH243269   2.433   0.535  12.449  0.1470  0.1222  0.5423
 7285TIP3    H143270   2.351   0.533  12.498 -1.0469  0.3106 -1.3451
 7285TIP3    H243271   2.439   0.624  12.416  0.7104 -0.1047  0.0167
 7286TIP3   OH243272   1.298   2.570  11.716 -0.3343 -0.0876  0.4346
 7286TIP3    H143273   1.332   2.566  11.806  2.4291 -2.3919 -0.5831
 7286TIP3    H243274   1.264   2.481  11.700  1.1125 -0.3507 -1.4201
 7287TIP3   OH243275   6.665   2.944   0.896 -0.0953  0.0133 -0.0010
 7287TIP3    H143276   6.720   2.900   0.961 -0.6093 -0.7605 -0.0763
 7287TIP3    H243277   6.636   3.024   0.939 -0.6714 -0.6323  0.8498
 7288TIP3   OH243278   6.177   2.985  16.622 -0.3101  0.2305 -0.0735
 7288TIP3    H143279   6.112   2.997  16.692 -0.0651 -1.3358  0.4630
 7288TIP3    H243280   6.246   3.048  16.642 -1.3597  1.4757 -0.2875
 7289TIP3   OH243281   1.672   3.763  14.418  0.3918 -0.1539 -0.3112
 7289TIP3    H143282   1.651   3.856  14.425 -1.2792 -0.5806  1.0400
 7289TIP3    H243283   1.647   3.738  14.329 -0.6843  0.3590 -0.1646
 7290TIP3   OH243284   0.040   4.486   5.376  0.0129 -0.2913  0.1041
 7290TIP3    H143285   0.013   4.429   5.305  0.6876 -0.2252 -0.2174
 7290TIP3    H243286  -0.030   4.481   5.441 -1.0289  0.3207 -0.9467
 7291TIP3   OH243287   6.619   1.227  16.893  0.5559  0.0152 -0.7209
 7291TIP3    H143288   6.559   1.301  16.906 -0.4293 -0.9000  0.2740
 7291TIP3    H243289   6.581   1.178  16.820  0.6407 -0.0363 -0.7291
 7292TIP3   OH243290   0.924   4.580   1.407 -0.1055  0.1223 -0.0540
 7292TIP3    H143291   0.953   4.496   1.374  1.5587  0.9606 -0.8155
 7292TIP3    H243292   0.865   4.558   1.480  0.6045 -1.6664  0.0256
 7293TIP3   OH243293   3.001   5.720   4.799  0.2358 -0.3531 -0.5303
 7293TIP3    H143294   3.090   5.699   4.772  0.6361  2.3931 -1.7111
 7293TIP3    H243295   3.010   5.760   4.885  0.2982  0.6143 -0.9642
 7294TIP3   OH243296   0.804   0.659  15.105  0.3851 -0.0855 -0.0526
 7294TIP3    H143297   0.777   0.666  15.014 -0.8678  0.9706  0.3648
 7294TIP3    H243298   0.789   0.567  15.128 -0.4199 -0.0993 -0.5903
 7295TIP3   OH243299   3.134   1.148  14.207 -0.1416 -0.1876  0.2837
 7295TIP3    H143300   3.129   1.086  14.134  2.9413  0.8313 -0.9580
 7295TIP3    H243301   3.073   1.218  14.183  0.5510 -0.0460 -1.1796
 7296TIP3   OH243302   1.489   0.252  15.274 -0.4109 -0.2733 -0.0121
 7296TIP3    H143303   1.565   0.235  15.330  0.2124  0.6053 -0.5689
 7296TIP3    H243304   1.414   0.226  15.327  0.1045  1.3700  1.6032
 7297TIP3   OH243305   4.819   0.542   0.841  0.1899  0.5805  0.1354
 7297TIP3    H143306   4.752   0.484   0.878  0.7018 -0.2731 -0.2540
 7297TIP3    H243307   4.800   0.628   0.880 -0.3080  0.0679  1.0720
 7298TIP3   OH243308   5.581   3.446  11.753  0.1219 -0.0556 -0.2536
 7298TIP3    H143309   5.593   3.358  11.716 -0.0220 -0.9084  1.6080
 7298TIP3    H243310   5.582   3.432  11.848 -0.5508  1.8744  0.0766
 7299TIP3   OH243311   2.702   1.873  16.585  0.3742  0.6462 -0.1103
 7299TIP3    H143312   2.637   1.886  16.654  1.0762  1.0836  0.4736
 7299TIP3    H243313   2.670   1.926  16.512 -1.1624 -0.9621 -0.6949
 7300TIP3   OH243314   6.452   5.031  16.300 -0.4441 -0.4597  0.0956
 7300TIP3    H143315   6.533   4.981  16.290 -0.4198 -0.5829  0.8711
 7300TIP3    H243316   6.413   4.998  16.381  0.4330  1.9343  1.6098
 7301TIP3   OH243317   3.888   2.483  10.874 -0.2720  0.3896 -0.2470
 7301TIP3    H143318   3.850   2.510  10.957 -1.1708 -1.4766  0.0072
 7301TIP3    H243319   3.870   2.556  10.814  2.7017  2.9718  1.7031
 7302TIP3   OH243320   6.610   0.040   3.713  0.2928 -0.2020 -0.3414
 7302TIP3    H143321   6.582  -0.038   3.666  0.2863 -0.6986  0.4720
 7302TIP3    H243322   6.705   0.041   3.702  0.3833 -0.7810  0.3248
 7303TIP3   OH243323   5.140   4.123  13.261  0.1383  0.2428 -0.0647
 7303TIP3    H143324   5.115   4.212  13.287 -0.6475 -0.3210  1.1407
 7303TIP3    H243325   5.235   4.128  13.249  0.2603  0.9800  1.0985
 7304TIP3   OH243326   1.396   6.012   4.632  0.5926  0.8692 -0.1772
 7304TIP3    H143327   1.465   6.075   4.654  0.0228  1.1779  0.7824
 7304TIP3    H243328   1.338   6.013   4.707 -0.1343  0.1505 -0.7127
 7305TIP3   OH243329   2.720   2.478   4.697 -0.1759  0.3148 -0.2216
 7305TIP3    H143330   2.632   2.495   4.733 -0.1642  0.4961 -0.2764
 7305TIP3    H243331   2.741   2.390   4.726 -1.0162 -0.3420 -1.4825
 7306TIP3   OH243332   5.652   2.923  14.586 -0.1223 -0.5124 -0.3314
 7306TIP3    H143333   5.595   2.868  14.640 -0.6575  0.8279  0.5315
 7306TIP3    H243334   5.731   2.870  14.573 -0.0758 -0.9957  1.5688
 7307TIP3   OH243335   2.418   2.115   6.772  0.3039  0.5528  0.5589
 7307TIP3    H143336   2.485   2.177   6.800  1.7734 -1.4813  1.8822
 7307TIP3    H243337   2.367   2.098   6.851  0.1608 -0.1635  0.3246
 7308TIP3   OH243338   2.325   1.185  12.481 -0.0052 -0.2464 -0.1230
 7308TIP3    H143339   2.255   1.239  12.518 -0.3395  0.8529 -2.1970
 7308TIP3    H243340   2.405   1.215  12.525 -0.4513  0.5622  0.1505
 7309TIP3   OH243341   1.881   3.954   3.349  0.0595  0.1490  0.1496
 7309TIP3    H143342   1.897   3.861   3.363  0.0734 -0.2204 -1.9744
 7309TIP3    H243343   1.918   3.997   3.426  3.3619 -1.3350 -0.4475
 7310TIP3   OH243344   5.364   0.698   5.297  0.5723 -0.4000 -0.0275
 7310TIP3    H143345   5.347   0.623   5.353 -0.0033  0.5989  1.1716
 7310TIP3    H243346   5.459   0.694   5.281  0.4891 -1.5922 -0.3206
 7311TIP3   OH243347   1.956   4.392  16.952  0.0780 -0.1051  0.2032
 7311TIP3    H143348   1.934   4.348  16.870 -2.4028 -0.8653  1.1708
 7311TIP3    H243349   2.014   4.330  16.997  0.2228 -0.3684 -0.3286
 7312TIP3   OH243350   3.781   4.436   6.370 -0.2633 -0.0321 -0.0191
 7312TIP3    H143351   3.696   4.474   6.393 -1.0743  0.4241 -3.2030
 7312TIP3    H243352   3.785   4.355   6.421 -2.1954  0.3778  0.9070
 7313TIP3   OH243353   0.674   1.920   0.632  0.1333  0.0272  0.5254
 7313TIP3    H143354   0.583   1.931   0.604 -0.1723 -2.2340  0.5087
 7313TIP3    H243355   0.679   1.831   0.665  2.1869  0.3580  1.2457
 7314TIP3   OH243356   5.536   2.124  12.777  0.2360 -0.2732  0.1050
 7314TIP3    H143357   5.618   2.078  12.761  0.7397  0.1433  1.3734
 7314TIP3    H243358   5.491   2.122  12.692  2.0156  0.4325 -0.9177
 7315TIP3   OH243359   0.118   1.756   3.657 -0.1253  0.3315 -0.2150
 7315TIP3    H143360   0.174   1.834   3.667  0.1584  0.5084 -2.5301
 7315TIP3    H243361   0.161   1.705   3.589 -2.3101  0.0308 -1.4558
 7316TIP3   OH243362   3.616   0.174   1.454  0.0089 -0.0849 -0.1459
 7316TIP3    H143363   3.582   0.239   1.392 -2.5908 -0.9940  0.2118
 7316TIP3    H243364   3.542   0.155   1.511  1.7981 -0.6310  2.1336
 7317TIP3   OH243365   0.605   6.150   0.297  0.5115  0.2187 -0.1174
 7317TIP3    H143366   0.566   6.078   0.247  0.9303 -0.7777  0.9409
 7317TIP3    H243367   0.540   6.220   0.293 -0.8278 -0.9393  0.5253
 7318TIP3   OH243368   3.317   1.888  14.850 -0.5235  0.2151 -0.5053
 7318TIP3    H143369   3.253   1.920  14.914 -1.4781  0.6833 -1.6686
 7318TIP3    H243370   3.316   1.952  14.780  1.4986  0.4175 -0.4207
 7319TIP3   OH243371   5.577   5.040   0.592 -0.0661  0.4127 -0.6342
 7319TIP3    H143372   5.657   5.073   0.551 -0.1802 -1.2722 -2.3348
 7319TIP3    H243373   5.507   5.068   0.534 -0.6507  1.0986  0.3699
 7320TIP3   OH243374   1.989   1.026   4.717 -0.1135 -0.1715 -0.0789
 7320TIP3    H143375   1.920   1.092   4.707 -0.5153 -0.7481 -1.3116
 7320TIP3    H243376   2.003   1.020   4.812 -1.2972  0.4277  0.1529
 7321TIP3   OH243377   3.341   0.591   6.183 -0.3203  0.4375 -0.0897
 7321TIP3    H143378   3.412   0.533   6.212 -0.4132  1.4634  2.4902
 7321TIP3    H243379   3.365   0.677   6.216 -1.1391  1.5087 -2.1595
 7322TIP3   OH243380   3.930   3.718  11.719  0.6556  0.7094  0.0707
 7322TIP3    H143381   3.907   3.779  11.649  1.0615 -0.0234 -0.7242
 7322TIP3    H243382   3.935   3.632  11.675  0.1402  0.1087  1.1492
 7323TIP3   OH243383   6.626   4.722  15.068 -0.7889  0.2930 -0.4744
 7323TIP3    H143384   6.587   4.700  15.152 -1.6619 -0.7834 -1.1368
 7323TIP3    H243385   6.605   4.648  15.011  0.3565  0.6905 -1.4655
 7324TIP3   OH243386   4.893   1.009   1.545  0.2348 -0.5336  0.2213
 7324TIP3    H143387   4.970   0.953   1.540 -0.3200 -1.3855  1.0788
 7324TIP3    H243388   4.888   1.050   1.459  2.3181  0.4476  0.5076
 7325TIP3   OH243389   5.363   1.055  14.666 -0.4738 -0.3275 -0.0175
 7325TIP3    H143390   5.378   1.134  14.614 -0.9022 -0.4111 -0.2734
 7325TIP3    H243391   5.451   1.021  14.683 -0.3181 -0.1722 -0.4862
 7326TIP3   OH243392   4.607   0.445  14.321 -0.4472 -0.1663 -0.2576
 7326TIP3    H143393   4.521   0.437  14.282 -0.0461  2.3495 -1.8604
 7326TIP3    H243394   4.666   0.403  14.259 -0.3303 -0.5220  0.0860
 7327TIP3   OH243395   0.965   1.470  14.791 -0.0156  0.5119 -0.1556
 7327TIP3    H143396   0.982   1.548  14.844 -0.7856 -0.2953  1.3491
 7327TIP3    H243397   0.872   1.475  14.770 -0.0441  0.0657 -0.1460
 7328TIP3   OH243398   5.731   2.328   2.678 -0.4064  0.5947 -0.0664
 7328TIP3    H143399   5.809   2.307   2.627 -0.5843 -0.8927  0.2354
 7328TIP3    H243400   5.688   2.398   2.628  1.2536  1.6653 -0.0589
 7329TIP3   OH243401   3.006   4.748  14.874 -0.5767  0.0945  0.3025
 7329TIP3    H143402   2.941   4.773  14.940 -1.5162  2.9337 -1.5224
 7329TIP3    H243403   3.083   4.801  14.894 -0.3921 -0.0097 -0.1176
 7330TIP3   OH243404   2.461   3.181   3.009  0.5992 -0.0878 -0.2900
 7330TIP3    H143405   2.398   3.135   3.063 -1.1730  2.3157 -0.1423
 7330TIP3    H243406   2.524   3.217   3.071 -0.0601  0.6530 -0.0395
 7331TIP3   OH243407   0.725   4.956  16.708 -0.2391 -0.6073  0.4426
 7331TIP3    H143408   0.758   5.010  16.780 -0.4260 -0.2270  0.2449
 7331TIP3    H243409   0.784   4.973  16.635  0.1761 -1.2809  0.6066
 7332TIP3   OH243410   0.081   4.536   0.718  0.3642 -0.0484  0.2853
 7332TIP3    H143411   0.080   4.450   0.761  0.2931 -1.0127 -1.5119
 7332TIP3    H243412   0.161   4.536   0.666 -0.8931 -0.1652 -1.7774
 7333TIP3   OH243413   1.636   6.157   0.272 -0.4001 -0.2464 -0.0250
 7333TIP3    H143414   1.691   6.097   0.321  1.9815  1.1295 -0.8603
 7333TIP3    H243415   1.598   6.103   0.202  1.4033 -0.9006 -0.5550
 7334TIP3   OH243416   3.776   3.850  11.540  0.1590  0.1201  0.2233
 7334TIP3    H143417   3.825   3.858  11.459 -2.7972  2.5301 -1.5232
 7334TIP3    H243418   3.784   3.936  11.582 -2.2529  0.5419 -0.0338
 7335TIP3   OH243419   0.380   0.451  14.821  0.1579 -0.3115 -0.0878
 7335TIP3    H143420   0.452   0.408  14.774 -1.7057 -0.6563 -2.8772
 7335TIP3    H243421   0.413   0.538  14.841  2.0496 -1.1378  0.6039
 7336TIP3   OH243422   3.228   3.368   4.304 -0.1400 -0.2660  0.3267
 7336TIP3    H143423   3.250   3.348   4.213  1.9738  2.5129  0.1107
 7336TIP3    H243424   3.149   3.422   4.299  0.4907  0.6377  0.0568
 7337TIP3   OH243425   5.335   4.785   3.594 -0.3260 -0.0235 -0.0477
 7337TIP3    H143426   5.334   4.778   3.690  1.7211  0.1225  0.0162
 7337TIP3    H243427   5.393   4.859   3.576 -0.2653 -0.3867 -1.4398
 7338TIP3   OH243428   6.529   4.821  15.640 -0.3509 -0.2592 -0.2523
 7338TIP3    H143429   6.576   4.863  15.711 -0.2198 -3.3289  1.6804
 7338TIP3    H243430   6.450   4.785  15.681 -1.0788 -0.8215 -2.0086
 7339TIP3   OH243431   0.211   3.742  11.964  0.1405  0.8361  0.2060
 7339TIP3    H143432   0.221   3.690  12.044 -1.4679  0.5965  0.2829
 7339TIP3    H243433   0.131   3.792  11.978 -1.6520 -1.0707 -2.2091
 7340TIP3   OH243434   4.557   6.521   2.474 -0.0175  0.3153 -0.4566
 7340TIP3    H143435   4.499   6.594   2.453  0.4534  0.9792  0.4745
 7340TIP3    H243436   4.642   6.549   2.440  0.3562  0.6130  0.6662
 7341TIP3   OH243437   2.197   4.009   2.219 -0.3709  0.0908 -0.6710
 7341TIP3    H143438   2.237   4.040   2.300  0.4632 -3.9929  0.7046
 7341TIP3    H243439   2.200   3.914   2.225 -3.5106 -0.4447 -3.9824
 7342TIP3   OH243440   1.571   1.953  13.966 -0.7038 -0.3203 -0.3323
 7342TIP3    H143441   1.641   1.911  14.017 -0.5204  0.6279  0.2144
 7342TIP3    H243442   1.598   1.943  13.875 -0.2276 -0.6122 -0.1617
 7343TIP3   OH243443   4.251   2.479   2.347 -0.3117  0.2569 -0.5883
 7343TIP3    H143444   4.287   2.562   2.315 -2.0136  1.4145  0.3948
 7343TIP3    H243445   4.178   2.460   2.289  0.9300 -1.3723 -1.7164
 7344TIP3   OH243446   5.727   0.082  12.411  0.5983  0.0155  0.4124
 7344TIP3    H143447   5.648   0.093  12.358 -0.1355 -0.5471  1.3641
 7344TIP3    H243448   5.721   0.151  12.477  0.2905 -0.7729  1.2166
 7345TIP3   OH243449   5.606   1.505  17.045 -0.2584  0.4067  0.3741
 7345TIP3    H143450   5.635   1.506  16.954  1.8744 -0.1445  0.9901
 7345TIP3    H243451   5.616   1.596  17.074 -0.8516  0.5647  0.0894
 7346TIP3   OH243452   4.594   0.260   2.917  0.4072  0.3596 -0.4089
 7346TIP3    H143453   4.567   0.170   2.900  0.8205  0.1319  0.1365
 7346TIP3    H243454   4.684   0.265   2.887  0.5185  0.4802 -0.0551
 7347TIP3   OH243455   0.817   6.127  15.652 -0.4729 -0.2623 -0.7883
 7347TIP3    H143456   0.847   6.215  15.677 -1.5320  0.3795 -1.6905
 7347TIP3    H243457   0.740   6.112  15.707 -1.1625  0.0058 -1.6563
 7348TIP3   OH243458   2.999   2.043   5.657  0.1200 -0.5766  0.7269
 7348TIP3    H143459   3.021   2.070   5.746 -0.2196  0.6988  0.4420
 7348TIP3    H243460   2.903   2.038   5.657  0.0926 -0.1300  0.3200
 7349TIP3   OH243461   0.446   0.353  11.500 -0.4674  0.1686  0.4293
 7349TIP3    H143462   0.478   0.265  11.521  4.0853  1.4768  0.1865
 7349TIP3    H243463   0.461   0.403  11.580 -1.2051  1.1071 -0.0064
 7350TIP3   OH243464   4.606   2.816   0.077 -0.8803 -0.2995  0.4357
 7350TIP3    H143465   4.691   2.815   0.122 -0.1874 -0.1397 -0.8429
 7350TIP3    H243466   4.619   2.765  -0.002 -2.1392 -0.7029  0.4603
 7351TIP3   OH243467   1.349   3.336   1.928  0.2992  0.3008 -0.8666
 7351TIP3    H143468   1.287   3.406   1.908 -1.5309 -1.0919 -0.2659
 7351TIP3    H243469   1.345   3.326   2.023 -1.4571 -2.2804 -1.1019
 7352TIP3   OH243470   4.211   3.096  17.561 -0.2909  0.9315 -0.0532
 7352TIP3    H143471   4.179   3.091  17.471  0.4216  1.3919 -0.3384
 7352TIP3    H243472   4.287   3.153  17.557  0.8731 -0.4905  0.5289
 7353TIP3   OH243473   0.263   0.969  16.801 -0.3196 -0.3887 -0.0993
 7353TIP3    H143474   0.312   0.917  16.738  0.5120  0.7359 -0.4095
 7353TIP3    H243475   0.327   0.988  16.871 -0.3201  0.9988 -0.4535
 7354TIP3   OH243476   5.906   5.238   0.270 -0.0523  0.1330 -0.0244
 7354TIP3    H143477   5.903   5.325   0.229  1.2136 -0.1859 -0.8461
 7354TIP3    H243478   5.859   5.182   0.209 -0.0491  0.0683  0.0337
 7355TIP3   OH243479   4.459   5.303   0.849  0.3874  0.2659 -0.3029
 7355TIP3    H143480   4.368   5.299   0.877  0.0343  1.8080 -1.0825
 7355TIP3    H243481   4.509   5.298   0.930 -0.3427 -1.2487  0.0815
 7356TIP3   OH243482   1.767   5.252  12.304 -0.0420 -0.0514 -0.0412
 7356TIP3    H143483   1.771   5.295  12.389  2.4908  2.2635 -1.1436
 7356TIP3    H243484   1.817   5.171  12.316 -0.3015 -0.0902  0.8362
 7357TIP3   OH243485   1.504   6.121  14.746 -0.2425  0.3746  0.0055
 7357TIP3    H143486   1.448   6.193  14.716  0.5076  0.4346 -1.3268
 7357TIP3    H243487   1.457   6.042  14.719 -0.7655  0.3604  0.9182
 7358TIP3   OH243488   2.214   4.027  15.856 -0.5086  0.5247 -0.6440
 7358TIP3    H143489   2.225   4.002  15.947  0.4463 -0.9053 -1.1221
 7358TIP3    H243490   2.296   4.070  15.832 -0.6561  0.6689 -0.9090
 7359TIP3   OH243491   2.082   0.635   6.130 -0.1277  0.2827  0.0876
 7359TIP3    H143492   2.176   0.637   6.109 -0.4035  2.2090 -1.2893
 7359TIP3    H243493   2.063   0.722   6.164 -1.4814  0.0163  0.0743
 7360TIP3   OH243494   1.851   1.250  17.022  0.7915  0.6245  0.4322
 7360TIP3    H143495   1.858   1.338  16.985  0.6960  0.2897 -0.4119
 7360TIP3    H243496   1.817   1.197  16.950 -0.3451  0.1353  1.3087
 7361TIP3   OH243497   5.236   3.601   0.075 -0.2631  0.0435 -0.6632
 7361TIP3    H143498   5.233   3.693   0.049 -2.2851  0.3839  0.5836
 7361TIP3    H243499   5.307   3.564   0.023  0.5735  2.2822 -1.2393
 7362TIP3   OH243500   5.118   5.740   2.448  0.1851  0.3586  0.4824
 7362TIP3    H143501   5.062   5.807   2.487 -1.9713 -0.2864 -1.3444
 7362TIP3    H243502   5.131   5.676   2.519 -1.5799  0.4332  0.9203
 7363TIP3   OH243503   5.950   4.866   5.105  0.2521  0.0807 -0.5657
 7363TIP3    H143504   5.986   4.815   5.177  0.3727  1.7291  0.5882
 7363TIP3    H243505   5.887   4.925   5.146 -1.2179 -0.3419 -2.0928
 7364TIP3   OH243506   5.466   0.698  14.145 -0.0876 -0.4682  0.4482
 7364TIP3    H143507   5.500   0.729  14.229  2.1249 -2.2639  0.3406
 7364TIP3    H243508   5.389   0.647  14.167 -2.4724  2.9864  0.8184
 7365TIP3   OH243509   1.397   4.531  17.577 -0.2094  0.2477  0.2486
 7365TIP3    H143510   1.328   4.543  17.642  0.7673  2.0817  0.9997
 7365TIP3    H243511   1.465   4.483  17.622 -0.8122 -1.2888 -0.4048
 7366TIP3   OH243512   1.994   6.562   6.848 -0.5471 -0.0674  0.3017
 7366TIP3    H143513   1.921   6.624   6.844 -0.9341 -0.3587  1.8058
 7366TIP3    H243514   2.072   6.616   6.851 -0.6445  0.2462 -1.6354
 7367TIP3   OH243515   0.841   4.602  11.203  0.5140  0.2785  0.0014
 7367TIP3    H143516   0.916   4.543  11.204  0.3921  0.1239  0.0122
 7367TIP3    H243517   0.864   4.669  11.138  0.9783  0.6475  0.5441
 7368TIP3   OH243518   2.993   2.709   0.993  0.7592 -0.1965 -0.3876
 7368TIP3    H143519   3.062   2.649   0.967 -0.4559 -2.1278  0.5895
 7368TIP3    H243520   3.001   2.715   1.088  0.0300  0.1421 -0.3414
 7369TIP3   OH243521   1.191   1.061   5.990  0.0035  0.0063 -0.8977
 7369TIP3    H143522   1.109   1.012   5.996 -0.8325  1.3270 -1.1048
 7369TIP3    H243523   1.237   1.040   6.072 -1.2441  0.4345 -0.0500
 7370TIP3   OH243524   2.990   4.801  13.747  0.0359  0.6702 -0.4354
 7370TIP3    H143525   2.965   4.734  13.684  0.4556  1.4775 -1.4943
 7370TIP3    H243526   2.935   4.876  13.725 -0.7647  0.5466  1.0363
 7371TIP3   OH243527   4.825   0.041   6.303  0.6606 -0.4493  0.3496
 7371TIP3    H143528   4.855  -0.036   6.353  2.0714 -0.3159 -0.2655
 7371TIP3    H243529   4.848   0.116   6.359 -0.5801 -0.4379  0.8815
 7372TIP3   OH243530   4.279   4.170   5.504  0.1370 -0.7539 -0.0490
 7372TIP3    H143531   4.343   4.241   5.504  0.9000 -1.3994  1.4655
 7372TIP3    H243532   4.331   4.091   5.491 -0.6028 -1.1321 -0.8081
 7373TIP3   OH243533   3.383   3.566   5.388  0.0151  0.0599 -0.2100
 7373TIP3    H143534   3.375   3.639   5.450 -2.2573  0.9087 -1.3721
 7373TIP3    H243535   3.409   3.608   5.306 -0.8338 -0.4671 -0.7663
 7374TIP3   OH243536   5.049   5.664  13.166  0.1127 -0.1782 -0.5081
 7374TIP3    H143537   5.067   5.720  13.241 -0.5005  0.5868 -0.9237
 7374TIP3    H243538   4.956   5.679  13.147  0.2430 -0.4321 -1.3660
 7375TIP3   OH243539   1.529   4.027  14.389 -0.6201 -0.4173 -0.2248
 7375TIP3    H143540   1.451   3.974  14.406  0.3472 -1.6651  0.5142
 7375TIP3    H243541   1.549   4.068  14.474 -0.3560 -0.2792 -0.3536
 7376TIP3   OH243542   5.264   4.304   4.340  0.0701  0.0032 -0.0924
 7376TIP3    H143543   5.238   4.212   4.334 -2.1598  0.4997  0.9577
 7376TIP3    H243544   5.186   4.353   4.313  0.9924  1.6097  0.0331
 7377TIP3   OH243545   2.479   6.109  12.677  0.2377 -0.2080 -0.0203
 7377TIP3    H143546   2.449   6.027  12.718 -1.7080  0.6632  0.4263
 7377TIP3    H243547   2.399   6.149  12.643  1.0452  1.8059  0.3025
 7378TIP3   OH243548   4.607   6.172  16.990  0.0482  0.2282  0.4343
 7378TIP3    H143549   4.675   6.229  16.953  0.4350  0.9603  2.1294
 7378TIP3    H243550   4.533   6.231  17.007 -0.8327 -0.4570 -0.8688
 7379TIP3   OH243551   4.120   0.086   4.261 -0.4234  0.4168 -0.4243
 7379TIP3    H143552   4.052   0.148   4.286 -0.8765 -0.5458  0.8156
 7379TIP3    H243553   4.094   0.056   4.174 -0.5211  1.4768 -0.7807
 7380TIP3   OH243554   0.008   3.810   5.040 -0.2866 -0.1128 -0.1197
 7380TIP3    H143555   0.056   3.892   5.027 -1.1842  0.1381 -2.2188
 7380TIP3    H243556  -0.051   3.828   5.114 -1.3593  1.5952 -1.3264
 7381TIP3   OH243557   3.314   2.874   1.563  0.0436  0.3101 -0.4753
 7381TIP3    H143558   3.308   2.779   1.576 -1.2263  0.6158  1.4862
 7381TIP3    H243559   3.251   2.893   1.493  0.6788 -0.3138 -1.2459
 7382TIP3   OH243560   3.978   4.190  15.444 -0.6075 -0.4492  0.1954
 7382TIP3    H143561   3.974   4.095  15.434 -0.2928 -0.4183 -0.2449
 7382TIP3    H243562   4.033   4.204  15.521  1.0546 -0.5978 -0.8962
 7383TIP3   OH243563   6.570   0.390   3.699  0.3176  0.4005  0.2891
 7383TIP3    H143564   6.581   0.359   3.609 -1.7175 -0.6185  0.3176
 7383TIP3    H243565   6.478   0.371   3.719  0.3635  1.8449  2.1283
 7384TIP3   OH243566   1.075   1.100  15.823  0.4903 -0.1582  0.4205
 7384TIP3    H143567   1.066   1.095  15.919  0.1225 -1.2903  0.3483
 7384TIP3    H243568   0.985   1.107  15.791  0.6177  0.2956  0.1550
 7385TIP3   OH243569   6.129   2.747   5.197 -0.3577 -0.2787  0.5414
 7385TIP3    H143570   6.222   2.734   5.219 -0.3314  0.0038  0.6057
 7385TIP3    H243571   6.085   2.745   5.282 -0.4546 -0.7558  0.4808
 7386TIP3   OH243572   3.437   0.246   3.243  0.0521  0.1160 -0.1651
 7386TIP3    H143573   3.357   0.260   3.192 -0.0721  0.2217  0.0562
 7386TIP3    H243574   3.407   0.244   3.334  0.1690 -0.8417 -0.1389
 7387TIP3   OH243575   5.898   2.341  13.346  0.5456 -0.0680 -0.1975
 7387TIP3    H143576   5.913   2.306  13.257 -1.3893 -0.3175 -0.4603
 7387TIP3    H243577   5.920   2.268  13.404 -1.2038 -1.0036 -0.6474
 7388TIP3   OH243578   2.271   6.211   5.272 -0.2881  0.0991  0.0123
 7388TIP3    H143579   2.261   6.276   5.342 -0.0546  0.0709  0.0750
 7388TIP3    H243580   2.345   6.244   5.220 -0.9492  0.5235 -0.6758
 7389TIP3   OH243581   3.371   1.562  16.792  0.0805  0.0089 -0.2030
 7389TIP3    H143582   3.336   1.585  16.878 -1.0716  0.8067 -0.8559
 7389TIP3    H243583   3.381   1.646  16.747 -1.4238 -0.5256 -1.6238
 7390TIP3   OH243584   2.399   6.085  11.723  0.1882  0.4947 -0.0741
 7390TIP3    H143585   2.431   6.149  11.660  1.1286  0.6548  0.5544
 7390TIP3    H243586   2.476   6.035  11.748 -0.3577 -0.2291  0.1943
 7391TIP3   OH243587   2.369   5.064  10.911  0.0387  0.7795  0.2457
 7391TIP3    H143588   2.365   5.116  10.991 -0.8125  0.1626  0.6231
 7391TIP3    H243589   2.281   5.026  10.903 -0.1631  1.4832 -1.4300
 7392TIP3   OH243590   4.942   0.355   3.170  0.3989  0.1919 -0.0807
 7392TIP3    H143591   4.920   0.304   3.092 -1.4768 -1.4364  1.4141
 7392TIP3    H243592   5.031   0.327   3.192  0.6020 -0.0091 -1.0968
 7393TIP3   OH243593   4.782   3.165  12.624 -0.7258  0.4906 -0.3543
 7393TIP3    H143594   4.795   3.112  12.703  0.1291  0.8406 -0.2440
 7393TIP3    H243595   4.800   3.255  12.652  1.6067  0.4134 -1.3595
 7394TIP3   OH243596   4.250   2.796   0.519 -0.0509 -0.8939 -0.1003
 7394TIP3    H143597   4.309   2.722   0.501  0.1450 -0.4683 -1.3357
 7394TIP3    H243598   4.196   2.766   0.592  1.4681 -1.4325  0.8541
 7395TIP3   OH243599   4.770   6.354  14.016 -0.2498 -0.0893  0.6727
 7395TIP3    H143600   4.750   6.308  13.935  0.8005  1.3234 -0.4335
 7395TIP3    H243601   4.805   6.286  14.074  1.5803 -0.6983 -1.0132
 7396TIP3   OH243602   6.121   6.044  11.500  0.2516 -0.0185  0.1533
 7396TIP3    H143603   6.165   6.124  11.529 -0.6218  0.7690 -0.6353
 7396TIP3    H243604   6.179   6.007  11.434 -0.5393  1.3714 -1.3726
 7397TIP3   OH243605   2.653   2.442   3.314 -0.5074  0.1127 -0.4986
 7397TIP3    H143606   2.590   2.459   3.244  0.5558 -0.8177 -1.7206
 7397TIP3    H243607   2.732   2.412   3.269  1.5833  3.1417  0.8050
 7398TIP3   OH243608   3.488   0.691   2.839 -0.8106 -0.0074  0.4152
 7398TIP3    H143609   3.546   0.721   2.909  1.2783 -0.1603 -1.1465
 7398TIP3    H243610   3.520   0.603   2.817 -0.7666  0.4092 -1.3579
 7399TIP3   OH243611   1.701   0.925  12.755 -0.4501  0.2195  0.0278
 7399TIP3    H143612   1.676   1.017  12.758  1.7176  0.9658 -1.6183
 7399TIP3    H243613   1.734   0.912  12.666 -0.2094 -2.0231  0.3759
 7400TIP3   OH243614   3.811   0.386  13.673  0.4028 -0.1966  0.2715
 7400TIP3    H143615   3.827   0.330  13.749  0.2054  0.3496  0.7318
 7400TIP3    H243616   3.896   0.426  13.654  0.9973 -2.0646 -1.2547
 7401TIP3   OH243617   5.751   3.035  13.760  0.1595  0.2482  0.5406
 7401TIP3    H143618   5.774   3.039  13.853 -0.5587 -0.8138  0.7859
 7401TIP3    H243619   5.785   2.951  13.731  0.7680  0.7727 -0.2777
 7402TIP3   OH243620   4.933   2.645  14.831  0.4055 -0.3015 -0.0743
 7402TIP3    H143621   4.959   2.601  14.912 -2.6750 -2.2965  0.0216
 7402TIP3    H243622   4.895   2.728  14.860  1.5223  0.1047  0.2600
 7403TIP3   OH243623   3.306   0.776   3.114  0.4828  0.0499 -1.1762
 7403TIP3    H143624   3.227   0.829   3.107 -0.3500 -0.9483  0.2778
 7403TIP3    H243625   3.375   0.839   3.135 -0.6401  0.5543  1.3674
 7404TIP3   OH243626   1.969   4.752  16.687 -0.0844 -0.0234 -0.0427
 7404TIP3    H143627   1.979   4.705  16.604  0.1100  0.8221 -0.5188
 7404TIP3    H243628   1.881   4.730  16.717 -0.1406 -0.3780 -0.4563
 7405TIP3   OH243629   5.088   4.801  13.828 -0.3993 -0.0913 -0.4405
 7405TIP3    H143630   5.093   4.861  13.903  1.3979 -1.2326  0.4334
 7405TIP3    H243631   5.151   4.836  13.765  0.4632 -0.8805 -0.0370
 7406TIP3   OH243632   1.537   0.617   4.252 -0.0542 -0.0388  0.1738
 7406TIP3    H143633   1.547   0.657   4.339 -0.9919  0.0001  0.2801
 7406TIP3    H243634   1.454   0.569   4.258 -0.5325  0.6103 -0.9466
 7407TIP3   OH243635   4.628   5.193  14.962  0.2662 -0.4891 -0.7572
 7407TIP3    H143636   4.605   5.148  14.880  1.7974 -1.4702 -0.7012
 7407TIP3    H243637   4.715   5.230  14.945  0.1911  0.1130  0.1127
 7408TIP3   OH243638   0.390   0.996  12.147 -0.0690  0.5660 -0.7895
 7408TIP3    H143639   0.395   0.928  12.081 -0.2818  0.5725 -0.8105
 7408TIP3    H243640   0.421   0.953  12.227  2.1338  1.0809 -1.2874
 7409TIP3   OH243641   0.783   5.807   6.142  0.6536  0.6153  0.2893
 7409TIP3    H143642   0.711   5.848   6.190  0.1861 -0.6800  0.7639
 7409TIP3    H243643   0.862   5.834   6.189  0.2445 -0.1961  1.5149
 7410TIP3   OH243644   4.581   1.367  10.983  0.1826  0.5017 -0.0645
 7410TIP3    H143645   4.604   1.456  11.008 -0.7104  0.5444  0.6394
 7410TIP3    H243646   4.657   1.336  10.932  0.9597  1.2757  0.5931
 7411TIP3   OH243647   0.977   0.115  13.745  0.3448 -0.0192 -0.1470
 7411TIP3    H143648   1.047   0.056  13.774 -0.1511 -0.5823 -0.0571
 7411TIP3    H243649   1.016   0.166  13.675  1.4868  1.1785  1.2980
 7412TIP3   OH243650   5.968   5.009   3.694  0.5831 -0.2425  0.4680
 7412TIP3    H143651   5.938   5.094   3.726 -1.3428 -0.1018 -1.4647
 7412TIP3    H243652   5.954   4.949   3.767  1.0362  0.8780  1.5158
 7413TIP3   OH243653   2.728   6.583  13.521 -0.1922 -0.2153  0.3981
 7413TIP3    H143654   2.782   6.530  13.463 -0.0279 -0.3931  0.7111
 7413TIP3    H243655   2.736   6.541  13.607 -1.3720 -0.6509  0.3082
 7414TIP3   OH243656   1.323   1.008  12.870  0.6939 -0.0669 -0.0139
 7414TIP3    H143657   1.361   0.941  12.812  0.4313 -0.4503  0.2539
 7414TIP3    H243658   1.393   1.073  12.878 -0.1284  1.2980 -2.7865
 7415TIP3   OH243659   1.666   6.563  13.286 -0.3202  0.1427 -0.7297
 7415TIP3    H143660   1.668   6.506  13.209 -1.7660 -0.9124 -0.0134
 7415TIP3    H243661   1.575   6.592  13.292 -0.4155 -0.4748  1.0729
 7416TIP3   OH243662   3.693   4.676   0.673  0.1939 -0.2005  0.0133
 7416TIP3    H143663   3.766   4.652   0.730 -0.3968 -0.8634  0.5103
 7416TIP3    H243664   3.625   4.612   0.694 -0.7380  0.7584 -0.0269
 7417TIP3   OH243665   1.324   3.636  13.618 -0.4177 -0.1448  0.0950
 7417TIP3    H143666   1.250   3.667  13.670 -1.4350  0.3550 -1.5824
 7417TIP3    H243667   1.330   3.698  13.545 -0.7198 -2.2564 -1.8328
 7418TIP3   OH243668   6.606   5.277   0.205 -0.2794 -0.1111  0.9178
 7418TIP3    H143669   6.659   5.200   0.225 -1.0128 -1.0516 -0.5950
 7418TIP3    H243670   6.577   5.263   0.115 -0.7166  1.7833  0.7268
 7419TIP3   OH243671   5.989   1.465   6.837 -0.1822  0.2900 -0.0666
 7419TIP3    H143672   5.915   1.501   6.788 -0.5501 -0.4945 -0.1030
 7419TIP3    H243673   5.950   1.423   6.913  0.1149 -1.0940 -0.6555
 7420TIP3   OH243674   5.518   4.791   0.449 -0.0718 -0.3544  0.0266
 7420TIP3    H143675   5.499   4.881   0.473 -1.8776 -0.4709 -0.8529
 7420TIP3    H243676   5.600   4.771   0.495 -0.3805  1.2517  1.3582
 7421TIP3   OH243677   0.015   1.775   0.615 -0.3058 -0.3085  0.3175
 7421TIP3    H143678  -0.039   1.714   0.565 -2.6731  1.3564  0.7053
 7421TIP3    H243679   0.094   1.785   0.562 -0.5115 -2.4387 -0.5259
 7422TIP3   OH243680   2.641   4.899   6.560  0.1234  0.5998 -0.2416
 7422TIP3    H143681   2.651   4.860   6.473  0.8429 -1.7672  0.8305
 7422TIP3    H243682   2.724   4.943   6.577  0.1314  0.7147 -0.5671
 7423TIP3   OH243683   2.637   5.956  11.809 -0.8776  0.3328  0.5284
 7423TIP3    H143684   2.728   5.967  11.838 -0.3066  0.4063 -1.1231
 7423TIP3    H243685   2.639   5.877  11.754 -1.4534  1.1782 -0.7610
 7424TIP3   OH243686   1.740   4.956   1.001  0.0494 -0.3392 -0.1925
 7424TIP3    H143687   1.657   4.965   0.956 -0.7578  0.7761  1.3974
 7424TIP3    H243688   1.720   4.904   1.079  0.7734  0.1575  0.3403
 7425TIP3   OH243689   0.802   5.930  12.095  0.0415 -0.2317 -0.1398
 7425TIP3    H143690   0.711   5.928  12.065  0.1790  0.1917 -0.5953
 7425TIP3    H243691   0.829   6.021  12.086  0.6760 -0.4496 -0.5199
 7426TIP3   OH243692   1.871   2.483   3.530 -0.0446  0.3955 -0.4416
 7426TIP3    H143693   1.807   2.426   3.572  0.6086  0.0635  0.1167
 7426TIP3    H243694   1.821   2.562   3.507 -0.2808  0.9106  1.6366
 7427TIP3   OH243695   3.321   1.222  12.434 -0.6043  0.0207  0.3471
 7427TIP3    H143696   3.292   1.312  12.422  1.3429  0.5177 -1.0273
 7427TIP3    H243697   3.337   1.190  12.345 -0.2928 -1.3560  0.8750
 7428TIP3   OH243698   5.305   1.381   4.746 -0.3859 -0.5092 -0.8240
 7428TIP3    H143699   5.274   1.294   4.771  0.2006 -0.4297  0.2186
 7428TIP3    H243700   5.328   1.423   4.829  1.0720 -0.0180 -1.4511
 7429TIP3   OH243701   1.471   6.394  13.504  0.0466  0.2399  0.4438
 7429TIP3    H143702   1.557   6.371  13.472  0.0047 -0.1630  0.6097
 7429TIP3    H243703   1.417   6.403  13.426  0.3718  1.0635  0.3073
 7430TIP3   OH243704   2.539   6.116   4.408 -0.7074 -0.2032  0.3701
 7430TIP3    H143705   2.584   6.072   4.336  0.6480  2.6301 -0.6791
 7430TIP3    H243706   2.578   6.079   4.487  0.2142 -1.0296 -0.4433
 7431TIP3   OH243707   1.357   3.149  16.602  0.1062  0.5465 -0.0393
 7431TIP3    H143708   1.273   3.138  16.557  0.4047 -0.6813 -0.3418
 7431TIP3    H243709   1.422   3.139  16.532  0.5269  3.1493 -0.1448
 7432TIP3   OH243710   0.464   0.750  12.706  0.1581  0.4878 -0.1873
 7432TIP3    H143711   0.467   0.729  12.799  0.5334  2.4386  0.2868
 7432TIP3    H243712   0.523   0.686  12.665 -0.1473 -0.5092  0.8617
 7433TIP3   OH243713   6.181   4.203   5.028 -0.3811  0.7958  0.1248
 7433TIP3    H143714   6.116   4.172   5.091  0.0515  0.8449  0.6051
 7433TIP3    H243715   6.265   4.194   5.074  0.0818 -0.2823 -0.8517
 7434TIP3   OH243716   5.129   0.626  12.939  0.4982 -0.2098 -0.2285
 7434TIP3    H143717   5.163   0.708  12.903  2.8096 -0.9349  0.1741
 7434TIP3    H243718   5.084   0.652  13.020  1.2255  0.6445 -0.0837
 7435TIP3   OH243719   4.537   1.161  15.939  0.4192  0.6450 -0.0851
 7435TIP3    H143720   4.623   1.125  15.958 -0.6762 -2.3473 -0.2509
 7435TIP3    H243721   4.484   1.137  16.016 -0.5298  1.4473 -0.4728
 7436TIP3   OH243722   2.695   0.663  16.540 -0.4630  0.5767  0.5091
 7436TIP3    H143723   2.608   0.676  16.577 -0.2647 -1.1181  1.7098
 7436TIP3    H243724   2.706   0.568  16.538  1.7738  0.7475  1.4223
 7437TIP3   OH243725   5.719   4.971   1.348 -0.3354 -0.0232  0.3255
 7437TIP3    H143726   5.676   5.053   1.375  0.6036  0.1154  1.5029
 7437TIP3    H243727   5.731   4.980   1.254 -0.7354  0.9670  0.3532
 7438TIP3   OH243728   1.352   6.117  15.091  0.0856 -0.2097  0.1048
 7438TIP3    H143729   1.326   6.063  15.165 -0.3529 -0.6894 -0.3951
 7438TIP3    H243730   1.373   6.055  15.021  1.3768  0.2107  0.1063
 7439TIP3   OH243731   4.841   2.283   5.127 -0.4251 -0.1845  0.7488
 7439TIP3    H143732   4.923   2.269   5.173  0.4679 -1.0954 -1.0203
 7439TIP3    H243733   4.838   2.213   5.062 -1.5472  1.1000 -0.6407
 7440TIP3   OH243734   2.865   5.036   3.848 -0.6594  0.2514  0.5156
 7440TIP3    H143735   2.864   5.034   3.943 -1.4748 -2.5367  0.5358
 7440TIP3    H243736   2.816   5.115   3.825  0.5865  1.6461  2.3337
 7441TIP3   OH243737   4.954   0.213   4.644  0.4163  0.3528 -0.3115
 7441TIP3    H143738   4.933   0.129   4.605  2.3950 -0.6145  0.5314
 7441TIP3    H243739   4.873   0.242   4.686 -0.8949 -0.0322 -2.4630
 7442TIP3   OH243740   4.865   5.574  14.603  0.1494  0.4513 -0.0385
 7442TIP3    H143741   4.817   5.492  14.620  0.5108  0.1731 -0.3585
 7442TIP3    H243742   4.843   5.630  14.678  2.4658 -1.0834  1.9603
 7443TIP3   OH243743   2.599   3.762  12.838  0.0917 -0.5945 -0.4320
 7443TIP3    H143744   2.604   3.756  12.743 -0.6618 -2.3941 -0.3926
 7443TIP3    H243745   2.611   3.672  12.869 -0.5634 -0.1904  1.1171
 7444TIP3   OH243746   5.704   2.542   4.603 -0.1525 -0.3914 -0.0646
 7444TIP3    H143747   5.703   2.588   4.687 -2.4969 -0.6879  0.1362
 7444TIP3    H243748   5.789   2.563   4.565  0.5623  0.5499  1.9391
 7445TIP3   OH243749   3.158   1.697   5.790 -0.4165 -0.4307  0.1223
 7445TIP3    H143750   3.180   1.699   5.697 -1.9042 -1.2160 -0.2804
 7445TIP3    H243751   3.228   1.747   5.832 -0.0653  0.5084 -1.4789
 7446TIP3   OH243752   1.966   0.833  17.230  0.1657  0.7877  0.0377
 7446TIP3    H143753   1.944   0.886  17.306  0.4565  0.3829  0.4090
 7446TIP3    H243754   1.883   0.819  17.185 -0.2546 -0.1996  1.0813
 7447TIP3   OH243755   5.118   4.924   3.221 -0.0508 -0.0943  0.3524
 7447TIP3    H143756   5.095   4.832   3.209  0.1772 -0.5230  2.7074
 7447TIP3    H243757   5.073   4.949   3.301  0.8188  1.5232  0.3685
 7448TIP3   OH243758   2.066   6.630   2.206 -0.3235  0.3791  0.4556
 7448TIP3    H143759   2.131   6.633   2.277 -0.8626  1.0801  0.9361
 7448TIP3    H243760   1.982   6.643   2.250 -0.6456  1.0875 -0.3504
 7449TIP3   OH243761   5.137   1.491   2.167  0.3163 -0.2110  0.1503
 7449TIP3    H143762   5.095   1.462   2.086  0.3105 -0.1049  0.1158
 7449TIP3    H243763   5.071   1.544   2.211  0.9721  1.3425 -0.6860
 7450TIP3   OH243764   6.570   4.048   1.390 -0.1003  0.0132 -0.0898
 7450TIP3    H143765   6.509   4.121   1.387 -0.1512 -0.0622 -1.4985
 7450TIP3    H243766   6.516   3.972   1.413 -0.2019  0.2390  0.4448
 7451TIP3   OH243767   2.904   1.043   5.953  0.1495 -0.1069 -0.1999
 7451TIP3    H143768   2.950   1.126   5.962  2.8130 -1.4171 -0.7995
 7451TIP3    H243769   2.921   0.998   6.036  0.9087 -1.0205 -0.8265
 7452TIP3   OH243770   0.859   4.718   0.227  0.0136 -0.0216  0.3262
 7452TIP3    H143771   0.850   4.673   0.143 -2.1809 -0.3909  0.6842
 7452TIP3    H243772   0.909   4.658   0.282 -0.7899 -0.9640  0.0501
 7453TIP3   OH243773   2.238   5.912  11.933 -0.6383  0.1715  0.3297
 7453TIP3    H143774   2.294   5.985  11.959  0.2744  0.6405 -2.5757
 7453TIP3    H243775   2.298   5.840  11.918 -1.2317 -0.3721  0.5406
 7454TIP3   OH243776   5.857   6.018  16.572 -0.1687  0.1118  0.1326
 7454TIP3    H143777   5.897   5.937  16.603 -0.3621  0.0768  0.2957
 7454TIP3    H243778   5.780   5.989  16.523  0.2437  0.1577 -0.5469
 7455TIP3   OH243779   0.528   1.386  13.865 -0.0245  0.2975  0.3862
 7455TIP3    H143780   0.461   1.447  13.898 -2.2374 -1.8293  0.1278
 7455TIP3    H243781   0.494   1.356  13.780  1.8883  0.0285 -0.3396
 7456TIP3   OH243782   0.389   1.184   1.509  0.8167  0.2185 -0.1472
 7456TIP3    H143783   0.399   1.278   1.524 -0.8960  0.0497  2.7802
 7456TIP3    H243784   0.405   1.144   1.594  0.8549 -2.1080 -1.1697
 7457TIP3   OH243785   5.195   1.572   1.709  0.2320 -0.2962  0.1837
 7457TIP3    H143786   5.254   1.629   1.758  0.5161  0.8165 -1.3914
 7457TIP3    H243787   5.217   1.588   1.617 -1.3485 -1.1429 -0.3732
 7458TIP3   OH243788   4.840   0.651   4.349  0.6819 -0.3840  0.0776
 7458TIP3    H143789   4.799   0.575   4.390  2.8457 -0.4200  2.3956
 7458TIP3    H243790   4.768   0.699   4.309 -1.0057 -2.5506  0.3399
 7459TIP3   OH243791   6.419   0.174  16.013  0.3258 -0.7472 -0.6216
 7459TIP3    H143792   6.491   0.219  15.970 -1.7231  0.0981 -3.4984
 7459TIP3    H243793   6.375   0.241  16.065  1.5520 -1.2753  1.1800
 7460TIP3   OH243794   0.954   0.026  14.646  0.1835  0.0141 -0.2616
 7460TIP3    H143795   0.914   0.095  14.593  1.6042  0.1531 -1.2017
 7460TIP3    H243796   0.993  -0.034  14.582  1.1699 -0.2932  0.5935
 7461TIP3   OH243797   3.321   5.750  13.724 -0.1510  0.8652  0.2468
 7461TIP3    H143798   3.388   5.757  13.792 -0.8137 -0.3256  1.0510
 7461TIP3    H243799   3.257   5.689  13.760 -1.7149  2.0279 -0.4660
 7462TIP3   OH243800   2.586   1.146  13.193  0.9112 -0.1442  0.4934
 7462TIP3    H143801   2.594   1.231  13.236 -1.5879  0.6934 -0.4993
 7462TIP3    H243802   2.660   1.141  13.134  3.1358 -0.3248  3.1048
 7463TIP3   OH243803   4.233   2.390   6.401  0.6139 -0.1899  0.7595
 7463TIP3    H143804   4.217   2.367   6.493  1.3405  1.2521  1.2820
 7463TIP3    H243805   4.155   2.437   6.374  0.1091 -1.2081  0.4098
 7464TIP3   OH243806   5.066   0.607   3.190  0.3184 -0.6056  0.0276
 7464TIP3    H143807   5.034   0.659   3.116  0.6422  0.5786  0.6956
 7464TIP3    H243808   5.011   0.529   3.189 -0.7714  0.1297 -0.5011
 7465TIP3   OH243809   6.058   1.667   2.621  0.4091 -0.4130  0.1972
 7465TIP3    H143810   6.129   1.611   2.652 -0.3778 -1.9285 -0.5786
 7465TIP3    H243811   6.067   1.748   2.671  0.6436 -1.8158  2.5743
 7466TIP3   OH243812   0.184   5.322   0.069  0.0816  0.1360 -0.3081
 7466TIP3    H143813   0.207   5.350   0.158  1.3036  1.3517 -0.9683
 7466TIP3    H243814   0.161   5.229   0.078  0.1362  0.2507  1.2756
 7467TIP3   OH243815   3.371   4.915  17.006  0.4223  0.3588  0.5677
 7467TIP3    H143816   3.336   4.893  17.092 -0.0242 -0.2452  0.2370
 7467TIP3    H243817   3.333   5.001  16.985  0.9857  0.7779  1.2098
 7468TIP3   OH243818   5.847   0.205  14.649 -0.9430  0.1589  0.0921
 7468TIP3    H143819   5.842   0.295  14.618 -1.9769 -0.3386 -1.2706
 7468TIP3    H243820   5.852   0.152  14.570 -0.1668 -0.9852  0.8725
 7469TIP3   OH243821   5.886   1.669  14.270  0.1975  0.1154  0.8867
 7469TIP3    H143822   5.814   1.715  14.312  1.2588  2.7444  0.0299
 7469TIP3    H243823   5.942   1.641  14.342 -0.6948 -0.2325  1.4547
 7470TIP3   OH243824   5.786   5.358  14.334 -0.0258 -0.1564  0.3383
 7470TIP3    H143825   5.839   5.350  14.255 -0.4416 -0.8437  0.1160
 7470TIP3    H243826   5.700   5.384  14.303 -0.1992 -0.4616  0.5526
 7471TIP3   OH243827   5.997   4.450  13.196  0.6960  0.6728  0.1278
 7471TIP3    H143828   6.017   4.481  13.107  4.0078  0.6815  0.7525
 7471TIP3    H243829   5.985   4.356  13.186 -1.8397  1.0118 -0.6709
 7472TIP3   OH243830   2.753   3.561  13.616  0.0646 -0.6022 -0.1190
 7472TIP3    H143831   2.683   3.576  13.680  0.5036  0.5533  0.1185
 7472TIP3    H243832   2.834   3.573  13.666  0.4383  1.7554 -1.1151
 7473TIP3   OH243833   5.770   5.004   3.510  0.1520 -0.5313 -0.1733
 7473TIP3    H143834   5.794   5.081   3.458  0.5410  0.2221  1.0840
 7473TIP3    H243835   5.853   4.974   3.548 -0.5680  1.8855  3.9248
 7474TIP3   OH243836   5.163   4.270  12.959  0.3126 -0.2495 -0.4470
 7474TIP3    H143837   5.252   4.286  12.927  0.3796 -0.6467 -0.4637
 7474TIP3    H243838   5.151   4.176  12.950 -0.1076 -0.1976 -0.4307
 7475TIP3   OH243839   5.581   2.224  13.058 -0.0548 -0.3104  0.5709
 7475TIP3    H143840   5.641   2.298  13.049  0.7543 -0.8996  0.9549
 7475TIP3    H243841   5.565   2.195  12.968  2.1159 -1.5802  0.5143
 7476TIP3   OH243842   6.534   1.805   1.255  0.5510  0.2394  0.2193
 7476TIP3    H143843   6.577   1.882   1.291 -0.9389  0.7185  1.0428
 7476TIP3    H243844   6.446   1.806   1.292 -0.4168 -0.3558 -1.8787
 7477TIP3   OH243845   5.564   4.310   2.170  0.3255 -0.1392 -0.1215
 7477TIP3    H143846   5.622   4.356   2.109 -0.8743  0.8897 -0.5470
 7477TIP3    H243847   5.526   4.239   2.118  2.5901 -2.0630  0.6832
 7478TIP3   OH243848   4.608   0.557  15.610 -0.0233 -0.1105  0.0770
 7478TIP3    H143849   4.608   0.461  15.609  0.6996 -0.1256 -1.3097
 7478TIP3    H243850   4.567   0.581  15.527  0.1561  0.7785  0.2398
 7479TIP3   OH243851   0.575   4.512   4.012 -0.1050 -0.1718 -0.0237
 7479TIP3    H143852   0.571   4.596   3.967  5.1269  1.3571  1.5913
 7479TIP3    H243853   0.502   4.515   4.074 -1.5025  2.0266 -1.6042
 7480TIP3   OH243854   3.692   3.111  13.126  0.1851  0.4308 -0.0339
 7480TIP3    H143855   3.655   3.039  13.075 -1.4632 -0.7284  2.5844
 7480TIP3    H243856   3.780   3.082  13.148 -0.3679 -0.7438  0.7719
 7481TIP3   OH243857   5.677   4.334  16.631  0.2412  0.4839  0.4020
 7481TIP3    H143858   5.754   4.371  16.676  0.5015  0.0741  0.2993
 7481TIP3    H243859   5.619   4.307  16.702  0.0566  1.0673  0.4776
 7482TIP3   OH243860   3.030   4.814   1.567 -0.8593  0.1905  0.1206
 7482TIP3    H143861   3.040   4.839   1.659 -0.3806  0.4934 -0.0080
 7482TIP3    H243862   3.063   4.725   1.563 -0.8433  0.1902  0.2389
 7483TIP3   OH243863   6.407   3.172  15.534 -0.4870 -0.3679  0.1504
 7483TIP3    H143864   6.388   3.085  15.498 -1.0445  0.0573 -0.6158
 7483TIP3    H243865   6.321   3.214  15.542 -0.1867  0.2706  0.0856
 7484TIP3   OH243866   1.898   0.974  17.464  0.7706  0.3732 -0.7426
 7484TIP3    H143867   1.911   0.904  17.527  1.5551 -0.9089 -2.2485
 7484TIP3    H243868   1.931   1.053  17.507  1.8725 -0.5828  0.1946
 7485TIP3   OH243869   1.024   6.417   1.460 -0.2398  0.3947 -0.1839
 7485TIP3    H143870   1.059   6.428   1.371 -0.7864 -0.2365 -0.4881
 7485TIP3    H243871   1.026   6.322   1.474  0.6417  0.5492  0.8116
 7486TIP3   OH243872   1.546   0.754  17.290 -0.0054 -0.3510 -0.1403
 7486TIP3    H143873   1.624   0.740  17.237  0.8063  0.1906  0.8812
 7486TIP3    H243874   1.540   0.849  17.298 -0.0600 -0.4293  0.8112
 7487TIP3   OH243875   5.445   4.810   5.402 -0.2976  0.0903 -0.0243
 7487TIP3    H143876   5.367   4.767   5.438 -0.3507 -0.1519 -0.4278
 7487TIP3    H243877   5.491   4.740   5.355  0.0262  0.2950 -0.0135
 7488TIP3   OH243878   6.424   4.926  12.643 -0.3137  0.4575  0.2160
 7488TIP3    H143879   6.401   5.018  12.639 -0.0744  0.4828 -0.8114
 7488TIP3    H243880   6.489   4.914  12.574  0.7492 -0.1760  1.2736
 7489TIP3   OH243881   1.982   2.168   1.166 -0.2891 -0.0701 -0.4937
 7489TIP3    H143882   1.899   2.215   1.176 -2.4751 -3.4863 -0.9988
 7489TIP3    H243883   2.015   2.197   1.081 -1.7753  0.2699 -0.9927
 7490TIP3   OH243884   5.660   3.250   5.371  0.3703  0.4103  0.6189
 7490TIP3    H143885   5.733   3.307   5.394  0.9728 -0.6632  1.4866
 7490TIP3    H243886   5.700   3.177   5.324 -0.4151  0.7818 -0.6875
 7491TIP3   OH243887   6.692   1.435   0.401 -0.4156 -0.2236 -0.1264
 7491TIP3    H143888   6.600   1.417   0.421 -0.6423 -1.4291 -2.0008
 7491TIP3    H243889   6.693   1.451   0.307  0.6025  4.6855  0.4293
 7492TIP3   OH243890   0.373   4.422   3.499  0.8197  0.0051  0.4422
 7492TIP3    H143891   0.347   4.343   3.453  0.7947 -0.9341  1.9784
 7492TIP3    H243892   0.300   4.483   3.487  0.4454 -0.5273 -0.0027
 7493TIP3   OH243893   3.902   2.653   5.246  0.2797 -0.2672  0.3096
 7493TIP3    H143894   3.900   2.748   5.237  2.1325 -0.2841 -0.5680
 7493TIP3    H243895   3.987   2.626   5.213 -0.2725 -2.2717  0.3397
 7494TIP3   OH243896   3.979   5.580   4.889  0.1644 -0.2306  0.4704
 7494TIP3    H143897   3.914   5.538   4.946 -0.9205 -0.4814 -0.8705
 7494TIP3    H243898   3.965   5.538   4.803  0.9944  0.8833 -0.2320
 7495TIP3   OH243899   6.461   4.439   6.029  0.0050 -0.3641 -0.4215
 7495TIP3    H143900   6.511   4.509   5.987  1.0409 -1.2537 -0.6999
 7495TIP3    H243901   6.476   4.453   6.123  0.0887 -0.1284 -0.4685
 7496TIP3   OH243902   4.560   6.357   3.331  0.6794 -0.2185 -0.0714
 7496TIP3    H143903   4.507   6.286   3.366  1.0396  0.2920  1.5622
 7496TIP3    H243904   4.649   6.338   3.360  0.5387  1.7415  1.9070
 7497TIP3   OH243905   1.862   3.610  13.110 -0.3734 -0.4329  0.0402
 7497TIP3    H143906   1.784   3.652  13.074 -0.2281  0.1036  0.3330
 7497TIP3    H243907   1.895   3.673  13.175  0.9805 -0.1063 -0.9199
 7498TIP3   OH243908   1.800   2.795  14.206 -0.1556 -0.3801  0.3997
 7498TIP3    H143909   1.766   2.871  14.160 -0.2024  1.3758  3.1258
 7498TIP3    H243910   1.873   2.828  14.258 -0.0394 -2.2091  1.5088
 7499TIP3   OH243911   5.432   0.376   3.032  0.2089 -0.5490  0.0816
 7499TIP3    H143912   5.475   0.302   2.990  0.5593 -1.1169  1.3851
 7499TIP3    H243913   5.491   0.402   3.102 -0.7591 -0.2344  0.8132
 7500TIP3   OH243914   4.939   0.150  14.016 -0.3919 -0.3903 -0.7009
 7500TIP3    H143915   4.944   0.056  14.033 -4.3121 -0.6074  0.1543
 7500TIP3    H243916   4.941   0.157  13.920 -1.2061 -1.4566 -0.8099
 7501TIP3   OH243917   6.194   6.137   6.889 -0.1863 -0.0449 -0.6131
 7501TIP3    H143918   6.226   6.052   6.920 -0.3594  0.1284  0.0745
 7501TIP3    H243919   6.173   6.123   6.797 -0.3968 -0.8059 -0.4587
 7502TIP3   OH243920   1.414   1.265   4.132 -0.1087 -0.0037  0.5057
 7502TIP3    H143921   1.491   1.316   4.156 -0.1176 -0.3721  1.3513
 7502TIP3    H243922   1.435   1.176   4.158 -1.1881  0.0515  1.6308
 7503TIP3   OH243923   1.670   1.058   0.014 -0.0595 -0.5893 -0.3277
 7503TIP3    H143924   1.655   1.013  -0.070  1.4151  0.0609 -0.9778
 7503TIP3    H243925   1.733   1.002   0.060  0.9979  0.2358 -0.7127
 7504TIP3   OH243926   3.666   6.584  17.629 -0.1899 -0.5828 -0.5960
 7504TIP3    H143927   3.600   6.606  17.694  0.0212 -0.7551 -0.3237
 7504TIP3    H243928   3.734   6.539  17.678  0.9441  1.0684 -0.5459
 7505TIP3   OH243929   4.958   6.250  17.116  0.7017 -0.2826 -0.0033
 7505TIP3    H143930   4.923   6.296  17.192  2.3424 -0.0890  0.6683
 7505TIP3    H243931   4.902   6.278  17.043 -0.7094 -0.2414  1.0539
 7506TIP3   OH243932   5.138   5.365  14.217 -0.6277  0.4064 -0.4383
 7506TIP3    H143933   5.107   5.316  14.141 -1.7328  0.7427 -0.2193
 7506TIP3    H243934   5.103   5.453  14.205  1.3699  1.2003 -0.8507
 7507TIP3   OH243935   4.075   1.470   5.297  0.0852  0.0508 -0.2593
 7507TIP3    H143936   4.052   1.377   5.304 -0.8735  0.2002 -1.2913
 7507TIP3    H243937   4.132   1.485   5.373 -0.5606 -1.1327  0.5036
 7508TIP3   OH243938   2.627   2.158   0.253  1.0412  0.1351 -0.7903
 7508TIP3    H143939   2.575   2.118   0.183  0.8451  0.6636 -0.9476
 7508TIP3    H243940   2.613   2.100   0.328 -0.7108  0.8787 -0.4966
 7509TIP3   OH243941   2.832   1.992   0.747 -0.3100 -0.3787  0.4715
 7509TIP3    H143942   2.772   1.940   0.801 -0.1155  0.2813  1.3457
 7509TIP3    H243943   2.775   2.046   0.693 -0.5041 -0.8005  0.2483
 7510TIP3   OH243944   1.646   4.687   5.578  0.3337  0.1191 -0.4400
 7510TIP3    H143945   1.705   4.615   5.600  1.7732  0.3750 -3.0485
 7510TIP3    H243946   1.586   4.650   5.513 -1.7276  0.1972  1.2947
 7511TIP3   OH243947   0.270   6.505  13.889 -0.0046  0.1578 -0.2592
 7511TIP3    H143948   0.179   6.478  13.880 -0.2152  1.3555 -2.6524
 7511TIP3    H243949   0.319   6.439  13.840  0.1715  0.5647 -0.6411
 7512TIP3   OH243950   1.390   0.773  12.720 -0.1952  0.0771 -0.1366
 7512TIP3    H143951   1.415   0.730  12.802 -1.7238  2.0737  1.5048
 7512TIP3    H243952   1.321   0.717  12.683 -1.3413  0.4473  1.3492
 7513TIP3   OH243953   4.892   2.404  11.444 -0.1797  0.2436 -0.5093
 7513TIP3    H143954   4.840   2.331  11.478  2.0231 -2.3145 -2.1579
 7513TIP3    H243955   4.898   2.465  11.517  0.1267 -2.5509  2.0242
 7514TIP3   OH243956   3.723   5.058   5.045  0.3486 -0.7221  0.3496
 7514TIP3    H143957   3.776   5.077   4.968  0.1467 -0.0471  0.3654
 7514TIP3    H243958   3.634   5.047   5.011  0.6291 -2.9310  0.1844
 7515TIP3   OH243959   5.518   2.206   4.121 -0.2534 -0.3428 -0.1343
 7515TIP3    H143960   5.530   2.112   4.107  2.2708 -0.3440  1.4521
 7515TIP3    H243961   5.605   2.239   4.143 -1.0760  2.3817 -0.5648
 7516TIP3   OH243962   1.060   5.622   3.249  0.2878 -0.5169 -0.4140
 7516TIP3    H143963   1.147   5.626   3.209  0.9186  1.0694  0.9818
 7516TIP3    H243964   0.999   5.627   3.176  1.3780 -0.6329 -1.3561
 7517TIP3   OH243965   5.074   0.754  15.968 -0.7217  0.1844 -0.2792
 7517TIP3    H143966   4.981   0.742  15.987 -0.5647  1.1738  1.3001
 7517TIP3    H243967   5.076   0.820  15.900 -1.1871 -0.1204 -0.5938
 7518TIP3   OH243968   2.991   1.121  11.913 -0.3898  0.2011  0.1159
 7518TIP3    H143969   2.958   1.091  11.829 -0.4216  0.6220 -0.0255
 7518TIP3    H243970   3.071   1.070  11.927 -0.4353  0.0638 -0.1233
 7519TIP3   OH243971   1.470   2.545  15.847 -0.1754 -0.3776 -0.1753
 7519TIP3    H143972   1.538   2.478  15.857 -1.9790 -2.2344  0.3106
 7519TIP3    H243973   1.448   2.543  15.754  1.7713  1.7264 -0.7910
 7520TIP3   OH243974   6.593   4.164  15.909 -0.6603 -0.1716 -0.3005
 7520TIP3    H143975   6.502   4.161  15.878 -1.6539 -0.2518  2.3573
 7520TIP3    H243976   6.601   4.251  15.950 -0.3977 -1.1046  1.7385
 7521TIP3   OH243977   1.786   3.965   0.187 -0.0381 -0.4200  0.4220
 7521TIP3    H143978   1.754   3.949   0.098  0.5018 -0.5081  0.2376
 7521TIP3    H243979   1.805   3.877   0.221  1.3209 -0.3181  0.0196
 7522TIP3   OH243980   2.456   5.026  13.260  0.0613  0.1820 -0.6364
 7522TIP3    H143981   2.465   5.092  13.328  0.6255  0.7511 -1.2445
 7522TIP3    H243982   2.387   5.059  13.203 -0.4872 -0.3451 -0.2902
 7523TIP3   OH243983   1.156   0.400   0.662 -0.0394  0.0846  0.2870
 7523TIP3    H143984   1.063   0.412   0.642  0.0008 -0.9395 -0.5661
 7523TIP3    H243985   1.195   0.373   0.579  0.6831 -1.2710  1.0357
 7524TIP3   OH243986   2.216   5.498  17.473 -0.1727 -0.4119 -0.7243
 7524TIP3    H143987   2.151   5.476  17.541  1.2380  1.0209  1.2015
 7524TIP3    H243988   2.181   5.577  17.432  0.0941  0.0638 -0.0437
 7525TIP3   OH243989   3.884   6.053  12.287 -0.1141 -0.3425 -0.1426
 7525TIP3    H143990   3.790   6.063  12.299  0.0529  1.8854 -0.1671
 7525TIP3    H243991   3.908   5.978  12.341 -1.8335 -0.6438  0.2513
 7526TIP3   OH243992   5.169   5.615  16.590 -0.0099  0.2560 -0.0696
 7526TIP3    H143993   5.083   5.639  16.625 -0.9396 -0.7978 -1.5409
 7526TIP3    H243994   5.186   5.679  16.521  0.4417  0.5058  0.2630
 7527TIP3   OH243995   3.689   1.232   5.716  0.2188 -0.1013 -0.2263
 7527TIP3    H143996   3.652   1.144   5.712  2.6027 -1.2665  1.3025
 7527TIP3    H243997   3.762   1.230   5.654  0.2562  0.8313 -0.2237
 7528TIP3   OH243998   2.651   0.037  17.399 -0.4880  0.1138  0.1861
 7528TIP3    H143999   2.604  -0.006  17.471 -0.1770  0.4188  0.5821
 7528TIP3    H244000   2.621  -0.008  17.320 -1.0623 -0.0304  0.4789
 7529TIP3   OH244001   2.243   1.213  17.328 -0.3519 -0.3553 -0.5108
 7529TIP3    H144002   2.155   1.216  17.289 -2.0283  2.5227  2.9295
 7529TIP3    H244003   2.239   1.143  17.392 -1.0690  1.2584  1.3044
 7530TIP3   OH244004   2.326   0.406   3.962 -0.8106  0.2358 -0.0800
 7530TIP3    H144005   2.407   0.428   4.007 -0.4973 -0.5949 -0.2106
 7530TIP3    H244006   2.260   0.405   4.031 -0.4908 -0.2000  0.2284
 7531TIP3   OH244007   6.307   1.792  12.510 -0.1654  0.2047  0.5883
 7531TIP3    H144008   6.325   1.704  12.475 -0.0568  0.6114 -0.4103
 7531TIP3    H244009   6.354   1.794  12.593 -0.5403 -0.8392  0.8483
 7532TIP3   OH244010   4.661   1.962  14.670 -0.1037 -0.2159  0.2829
 7532TIP3    H144011   4.623   1.948  14.583 -0.2820  0.4917  0.2433
 7532TIP3    H244012   4.724   1.891  14.681 -0.2504 -0.4417 -0.3273
 7533TIP3   OH244013   4.814   6.205  14.288 -0.7513 -0.1033 -0.0451
 7533TIP3    H144014   4.842   6.286  14.331 -2.3021  0.6474 -0.3617
 7533TIP3    H244015   4.780   6.151  14.360  2.5878 -1.6341  0.5742
 7534TIP3   OH244016   6.707   4.094  17.005 -0.0142 -0.4617  0.5352
 7534TIP3    H144017   6.767   4.048  17.064  1.2201 -1.4935 -1.4312
 7534TIP3    H244018   6.707   4.042  16.925 -1.9125  0.6978 -0.2859
 7535TIP3   OH244019   5.091   6.446   0.300 -0.4317  0.2589 -0.5139
 7535TIP3    H144020   4.996   6.454   0.292 -0.2928  0.5814 -2.2013
 7535TIP3    H244021   5.120   6.407   0.218  0.7822 -1.1336  0.5142
 7536TIP3   OH244022   1.680   5.678   1.145  0.3682 -0.0869  0.2529
 7536TIP3    H144023   1.642   5.740   1.207  0.7070  1.3155 -0.8784
 7536TIP3    H244024   1.741   5.626   1.198  0.6626  1.0755  1.1008
 7537TIP3   OH244025   1.435   1.645  12.717 -0.3134  0.4882  0.0860
 7537TIP3    H144026   1.395   1.657  12.631  0.7282  1.5215 -0.2791
 7537TIP3    H244027   1.388   1.705  12.775 -0.8259  0.0001  0.1806
 7538TIP3   OH244028   6.419   2.452   6.392  0.5571  0.3520 -0.5528
 7538TIP3    H144029   6.378   2.499   6.464  1.6065 -0.1087  0.3840
 7538TIP3    H244030   6.404   2.359   6.413 -0.4953  0.2226 -1.7698
 7539TIP3   OH244031   4.320   6.320  15.125 -0.2528 -0.3794  0.2642
 7539TIP3    H144032   4.369   6.401  15.113  0.0158 -0.6805 -0.7827
 7539TIP3    H244033   4.259   6.339  15.196 -0.0583  0.6774  0.1654
 7540TIP3   OH244034   1.339   0.664   0.242 -0.7087 -0.0226  0.6659
 7540TIP3    H144035   1.384   0.700   0.165 -0.3054  1.5726  1.5877
 7540TIP3    H244036   1.352   0.570   0.236 -0.9204  0.0340 -1.3489
 7541TIP3   OH244037   3.652   0.522   2.106 -0.1437 -0.4224 -0.1909
 7541TIP3    H144038   3.568   0.561   2.128 -2.3798 -3.9565 -1.5339
 7541TIP3    H244039   3.676   0.562   2.022 -0.6346  0.3600  0.0306
 7542TIP3   OH244040   4.745   6.022  13.491 -0.3112  0.1352  0.2721
 7542TIP3    H144041   4.746   5.989  13.402 -0.0986  1.9641 -0.4399
 7542TIP3    H244042   4.653   6.035  13.511 -0.2879  1.2212 -0.2810
 7543TIP3   OH244043   2.118   1.653  12.112  0.6390  0.1877 -0.3961
 7543TIP3    H144044   2.138   1.603  12.191 -1.8497  0.5011  0.5369
 7543TIP3    H244045   2.049   1.713  12.139 -0.7697 -0.1372 -2.9432
 7544TIP3   OH244046   2.751   5.781  15.126  0.2347 -0.5385 -0.0337
 7544TIP3    H144047   2.686   5.746  15.065 -0.6150 -1.3424  1.2814
 7544TIP3    H244048   2.820   5.714  15.129  1.5716  0.6397 -1.9887
 7545TIP3   OH244049   4.010   2.705  15.881 -0.1149  0.0092  0.5126
 7545TIP3    H144050   4.103   2.723  15.866  0.7758 -3.6479  0.5498
 7545TIP3    H244051   4.008   2.660  15.966 -1.5470 -1.9741 -0.4937
 7546TIP3   OH244052   2.070   3.883  16.238  0.0587 -0.0529  0.1175
 7546TIP3    H144053   2.077   3.890  16.333 -1.7312  2.2062  0.1688
 7546TIP3    H244054   2.134   3.945  16.204 -0.1592  0.0577 -0.0960
 7547TIP3   OH244055   3.326   2.519   2.408  0.2663  0.1414  0.6120
 7547TIP3    H144056   3.306   2.440   2.458  0.4917  0.0338  0.5352
 7547TIP3    H244057   3.264   2.584   2.439 -1.8374 -0.8152 -1.2362
 7548TIP3   OH244058   1.617   0.176  16.204  0.2466  0.2947  0.2530
 7548TIP3    H144059   1.616   0.233  16.281  1.7141 -0.9142  1.2151
 7548TIP3    H244060   1.679   0.218  16.144  0.6917  0.1546  0.6115
 7549TIP3   OH244061   3.566   1.775  11.608  0.1517 -0.5554  0.0448
 7549TIP3    H144062   3.626   1.846  11.631 -0.1726  0.4361 -1.9901
 7549TIP3    H244063   3.486   1.795  11.656  1.0704 -1.3939  2.0586
 7550TIP3   OH244064   5.128   1.435  15.314 -0.5543  0.5615 -0.3714
 7550TIP3    H144065   5.219   1.424  15.342 -0.7495  0.6959  0.3596
 7550TIP3    H244066   5.131   1.505  15.250 -0.0667  0.1637 -0.7937
 7551TIP3   OH244067   5.500   3.279  16.874 -0.2864 -0.3209  0.3354
 7551TIP3    H144068   5.521   3.328  16.954  0.2820 -1.7489  1.0928
 7551TIP3    H244069   5.449   3.204  16.905 -0.2554 -0.7694 -0.6784
 7552TIP3   OH244070   1.420   5.119   3.800  0.0238 -0.2562  0.5207
 7552TIP3    H144071   1.407   5.119   3.895  1.3902  0.6841  0.7299
 7552TIP3    H244072   1.513   5.103   3.788 -0.1917 -0.6777 -0.6794
 7553TIP3   OH244073   6.177   6.152  14.466  0.2507  0.7506  0.0870
 7553TIP3    H144074   6.235   6.209  14.516 -0.5685  0.3802  1.5227
 7553TIP3    H244075   6.146   6.206  14.393  0.9936  1.5059  0.3223
 7554TIP3   OH244076   0.180   2.882   4.606 -0.0715 -0.2426  0.3759
 7554TIP3    H144077   0.153   2.796   4.637 -1.9073  0.3339  0.4669
 7554TIP3    H244078   0.106   2.939   4.624 -0.3375  0.6513 -2.8377
 7555TIP3   OH244079   3.154   4.490   1.898  0.1781  0.6611  0.1287
 7555TIP3    H144080   3.070   4.508   1.939 -0.1560 -0.1528 -0.1816
 7555TIP3    H244081   3.200   4.574   1.900 -1.1135  1.4219 -0.7726
 7556TIP3   OH244082   2.564   3.251  12.384  0.0989 -0.2155 -0.2580
 7556TIP3    H144083   2.539   3.315  12.318 -2.7968  0.1591  1.0525
 7556TIP3    H244084   2.530   3.168  12.353 -0.7967 -0.1352  0.4788
 7557TIP3   OH244085   4.192   0.463  16.258  0.2666  0.1551  0.4650
 7557TIP3    H144086   4.165   0.415  16.179  0.6873  0.0557  0.3819
 7557TIP3    H244087   4.197   0.554  16.230  2.1548 -0.0888 -0.1001
 7558TIP3   OH244088   0.787   1.858   6.276  0.1868  0.0399  0.1589
 7558TIP3    H144089   0.849   1.822   6.340  0.8205 -0.2456 -0.6013
 7558TIP3    H244090   0.777   1.788   6.211  0.1481  0.6161 -0.4602
 7559TIP3   OH244091   5.114   0.718   0.208  0.3609  0.5723  0.0276
 7559TIP3    H144092   5.128   0.637   0.257  0.6542  1.0738  0.7895
 7559TIP3    H244093   5.201   0.745   0.180  0.0725 -0.5346 -2.1799
 7560TIP3   OH244094   2.179   3.467   2.758 -0.2045 -0.4376  0.0825
 7560TIP3    H144095   2.101   3.492   2.709 -0.4299 -0.5612  0.3797
 7560TIP3    H244096   2.157   3.382   2.797 -0.2189 -0.0843  0.8434
 7561TIP3   OH244097   1.968   0.118  16.146  0.5682  0.0390  0.2535
 7561TIP3    H144098   1.923   0.174  16.083  1.8910  0.0877 -0.6750
 7561TIP3    H244099   1.989   0.038  16.097  1.8514  0.1859  0.5297
 7562TIP3   OH244100   1.784   3.886  15.254 -0.0448  0.4462  0.9702
 7562TIP3    H144101   1.721   3.818  15.231 -0.2447  1.4054 -1.6146
 7562TIP3    H244102   1.864   3.860  15.209 -0.3000  2.1589 -0.5859
 7563TIP3   OH244103   2.440   3.266   2.735  0.6185  0.4922 -0.5424
 7563TIP3    H144104   2.480   3.293   2.817  1.1120 -0.1705 -0.5602
 7563TIP3    H244105   2.360   3.220   2.761  0.7842  0.2662 -0.4342
 7564TIP3   OH244106   2.852   1.579   4.560 -0.2395  0.3359  0.3107
 7564TIP3    H144107   2.917   1.603   4.626  0.0394  0.5552 -0.0363
 7564TIP3    H244108   2.873   1.488   4.537  0.1637  0.5120 -0.0417
 7565TIP3   OH244109   3.819   1.179   4.070 -0.3592 -0.5346  0.0984
 7565TIP3    H144110   3.898   1.154   4.022 -0.8344  0.1360 -1.0843
 7565TIP3    H244111   3.812   1.114   4.140  1.5188 -0.2892  0.5713
 7566TIP3   OH244112   2.994   3.720  12.915 -0.0521 -0.0588  0.0169
 7566TIP3    H144113   2.998   3.710  12.819 -1.6308  1.6911 -0.2902
 7566TIP3    H244114   2.939   3.647  12.944  0.2147 -0.4482 -0.4381
 7567TIP3   OH244115   2.051   2.954  14.831 -0.0166  0.3276 -0.0493
 7567TIP3    H144116   2.124   2.900  14.801 -0.3432 -0.1071 -0.0829
 7567TIP3    H244117   2.086   3.042  14.836  0.1131  0.3787 -1.4890
 7568TIP3   OH244118   3.883   1.205  12.510  0.5906 -0.0244 -0.0459
 7568TIP3    H144119   3.863   1.112  12.522  0.9635 -0.0653  0.2786
 7568TIP3    H244120   3.845   1.248  12.586  1.3051 -0.0453  0.3376
 7569TIP3   OH244121   5.666   2.982  15.937  0.0979  0.8944  0.2855
 7569TIP3    H144122   5.594   3.041  15.959 -0.3356 -0.1436  1.7896
 7569TIP3    H244123   5.670   2.984  15.841 -2.3708  0.4905  0.1212
 7570TIP3   OH244124   5.221   6.175   2.460  0.2836  0.2422 -0.7996
 7570TIP3    H144125   5.265   6.136   2.536  1.0881  1.3790 -0.6598
 7570TIP3    H244126   5.129   6.151   2.470  0.6439 -1.1023 -0.4078
 7571TIP3   OH244127   4.315   0.218  14.093 -0.1372  0.4359  0.3045
 7571TIP3    H144128   4.359   0.144  14.052 -1.5363  0.0616 -0.5871
 7571TIP3    H244129   4.322   0.201  14.187  2.0748  0.6995  0.2518
 7572TIP3   OH244130   3.151   5.115  13.889 -0.4210 -0.1554  0.2430
 7572TIP3    H144131   3.186   5.172  13.957 -0.3785 -1.6016  1.4961
 7572TIP3    H244132   3.058   5.135  13.886 -0.3601  0.1632  0.4633
 7573TIP3   OH244133   2.796   6.654   6.370  0.0391  0.2814  0.0070
 7573TIP3    H144134   2.808   6.648   6.465  2.2982  2.0705 -0.0674
 7573TIP3    H244135   2.755   6.571   6.346 -1.9849  0.3619  2.6973
 7574TIP3   OH244136   3.737   3.757  13.722 -0.0506  0.3123  0.0111
 7574TIP3    H144137   3.777   3.812  13.654  0.8963 -0.3686 -0.0126
 7574TIP3    H244138   3.750   3.668  13.691  2.0748 -0.1370  1.8808
 7575TIP3   OH244139   3.205   0.864  14.714  0.1951  0.4018 -0.1789
 7575TIP3    H144140   3.120   0.880  14.756 -0.0297 -0.0961 -0.4386
 7575TIP3    H244141   3.269   0.881  14.783 -0.0973  1.0876 -0.0648
 7576TIP3   OH244142   4.797   1.065   4.192 -0.5327  0.1199  0.6810
 7576TIP3    H144143   4.845   1.144   4.217 -1.0919  0.1385  1.7725
 7576TIP3    H244144   4.705   1.087   4.205 -0.8530  0.0179 -1.2008
 7577TIP3   OH244145   6.258   4.668   3.530  0.0349  0.2317  0.6520
 7577TIP3    H144146   6.217   4.659   3.444 -1.7520  0.7540  1.3902
 7577TIP3    H244147   6.351   4.683   3.512 -0.4374  1.1619 -1.2099
 7578TIP3   OH244148   6.576   3.151  15.205 -1.1691 -0.0678 -0.6026
 7578TIP3    H144149   6.612   3.072  15.246 -0.5308  0.2800 -0.4859
 7578TIP3    H244150   6.481   3.137  15.205 -1.2204  0.0500  1.2654
 7579TIP3   OH244151   5.928   0.652  13.655 -0.0183 -0.1916  0.2737
 7579TIP3    H144152   5.919   0.557  13.664 -0.3001 -0.3966 -1.6835
 7579TIP3    H244153   5.885   0.672  13.572  0.9888  1.5148  0.1176
 7580TIP3   OH244154   2.907   4.015  13.697 -0.2080  0.2607  0.3710
 7580TIP3    H144155   2.939   4.028  13.608 -0.3577 -0.8038  0.1447
 7580TIP3    H244156   2.812   4.019  13.689 -0.2211  0.1896  0.4866
 7581TIP3   OH244157   6.436   4.587  12.498  0.2557  0.9095  0.0625
 7581TIP3    H144158   6.362   4.528  12.510  0.4297 -0.3072 -3.5036
 7581TIP3    H244159   6.403   4.653  12.437  1.7797  0.9561 -0.7443
 7582TIP3   OH244160   0.643   2.131  14.571 -0.0950  0.0069  0.2534
 7582TIP3    H144161   0.732   2.122  14.536 -0.4513  1.0524 -0.9998
 7582TIP3    H244162   0.629   2.226  14.575 -0.7007 -0.1259  1.6637
 7583TIP3   OH244163   6.202   0.518   1.786 -0.5452  0.0870 -0.2920
 7583TIP3    H144164   6.141   0.449   1.761  1.5928 -1.9622 -0.1864
 7583TIP3    H244165   6.235   0.553   1.703  0.6001 -1.1776 -0.4078
 7584TIP3   OH244166   6.146   4.148  16.634 -0.5553 -0.5997  0.0623
 7584TIP3    H144167   6.194   4.109  16.561  0.2945 -0.8462  0.7278
 7584TIP3    H244168   6.074   4.087  16.651  0.5068 -1.6878  0.8049
 7585TIP3   OH244169   5.470   5.135  13.715 -0.0392 -0.1593 -0.2464
 7585TIP3    H144170   5.536   5.164  13.652 -1.8760  1.8375 -1.3527
 7585TIP3    H244171   5.417   5.072  13.667  1.1191 -1.9709  0.7249
 7586TIP3   OH244172   0.458   1.616   4.421 -0.4844  1.0724  0.1297
 7586TIP3    H144173   0.456   1.707   4.453 -1.3042  0.1551  3.0095
 7586TIP3    H244174   0.365   1.592   4.411 -0.2743  0.5483 -0.6428
 7587TIP3   OH244175   6.127   0.349   2.690  0.2415 -0.0186 -0.7890
 7587TIP3    H144176   6.152   0.344   2.782 -1.7816  0.0024 -0.1798
 7587TIP3    H244177   6.043   0.303   2.685  0.1453  0.2543 -2.5725
 7588TIP3   OH244178   5.040   0.848   4.659  0.3413  0.0103  0.0920
 7588TIP3    H144179   5.088   0.772   4.693  0.5204 -0.5304 -1.3080
 7588TIP3    H244180   5.074   0.860   4.570 -0.9482  0.6503 -0.3350
 7589TIP3   OH244181   2.047   0.269   2.384  0.1309  0.7567  0.1842
 7589TIP3    H144182   2.029   0.276   2.477  0.0132 -0.4544  0.2683
 7589TIP3    H244183   2.043   0.175   2.366  1.2375  0.8813 -0.8171
 7590TIP3   OH244184   2.168   1.967   4.913 -0.6360 -0.1895  0.1793
 7590TIP3    H144185   2.112   1.971   4.835  0.8314 -0.2442 -0.9162
 7590TIP3    H244186   2.146   1.883   4.955  0.5967 -1.6059 -1.8288
 7591TIP3   OH244187   6.044   4.015  12.063  0.2569  0.1091  0.0646
 7591TIP3    H144188   6.090   3.933  12.079 -1.4058 -1.7752 -3.4949
 7591TIP3    H244189   6.113   4.079  12.044  1.5441 -1.2979 -0.1778
 7592TIP3   OH244190   5.314   3.757   3.450 -1.1554  0.1902  0.0537
 7592TIP3    H144191   5.346   3.709   3.527 -1.0446 -0.9260 -0.6669
 7592TIP3    H244192   5.387   3.755   3.389 -1.0910  1.4633  0.0786
 7593TIP3   OH244193   3.521   6.367   0.249  0.1546 -0.0107 -0.0831
 7593TIP3    H144194   3.501   6.296   0.310  0.2504  0.3505  0.3728
 7593TIP3    H244195   3.589   6.331   0.191  0.6105 -0.1068  0.5008
 7594TIP3   OH244196   2.327   5.285  14.131  0.0181  0.4166  0.5183
 7594TIP3    H144197   2.386   5.212  14.153  0.9383  1.4566  1.6666
 7594TIP3    H244198   2.260   5.246  14.076  1.9757 -0.7772 -1.1922
 7595TIP3   OH244199   0.042   0.885  13.368 -0.0353  0.1920 -0.0664
 7595TIP3    H144200  -0.022   0.894  13.439 -0.3439  1.9863 -0.5190
 7595TIP3    H244201  -0.006   0.910  13.289  1.4975  3.0067 -0.2517
 7596TIP3   OH244202   4.234   1.312   1.552 -0.1417  0.6342 -0.8680
 7596TIP3    H144203   4.141   1.326   1.571 -0.1570 -0.4999 -0.0423
 7596TIP3    H244204   4.234   1.250   1.479 -0.0428 -0.7357  0.2650
 7597TIP3   OH244205   2.232   1.840   5.826  0.2447 -0.6543 -0.3263
 7597TIP3    H144206   2.246   1.748   5.850 -0.8863 -0.3859  1.6313
 7597TIP3    H244207   2.152   1.840   5.774  0.4305 -0.8093 -0.6128
 7598TIP3   OH244208   0.373   4.552  13.435  0.0056 -0.7698  0.1032
 7598TIP3    H144209   0.376   4.467  13.392  0.1415 -1.4902  1.4991
 7598TIP3    H244210   0.367   4.533  13.528 -0.2424  0.7525  0.4387
 7599TIP3   OH244211   3.208   3.112   5.462 -0.1647  0.3286 -0.0573
 7599TIP3    H144212   3.188   3.194   5.508  0.0533  0.7300 -0.6653
 7599TIP3    H244213   3.281   3.134   5.405 -0.2392 -0.2436 -0.3756
 7600TIP3   OH244214   0.172   1.258  15.337  0.0635 -0.3183 -0.2336
 7600TIP3    H144215   0.239   1.200  15.372 -2.3347 -1.7737  2.3172
 7600TIP3    H244216   0.132   1.209  15.266 -0.6326 -0.9683  0.5987
 7601TIP3   OH244217   4.097   0.090   4.620 -0.1476  0.1258 -0.0156
 7601TIP3    H144218   4.077   0.094   4.713  1.3914  1.0621  0.3093
 7601TIP3    H244219   4.163   0.158   4.607 -1.0034  0.6581 -1.9694
 7602TIP3   OH244220   3.862   1.591   4.759  0.1669  0.0590 -0.1199
 7602TIP3    H144221   3.882   1.684   4.765  0.0037  0.0419  0.8607
 7602TIP3    H244222   3.927   1.549   4.814 -1.4154 -0.1465  1.6716
 7603TIP3   OH244223   6.231   1.735  14.999 -0.7410  0.0931 -0.5424
 7603TIP3    H144224   6.147   1.768  15.031  0.4766  1.3271  1.6813
 7603TIP3    H244225   6.295   1.798  15.033  1.0383 -0.3347 -2.8577
 7604TIP3   OH244226   5.705   4.847  14.522  0.0820  0.1043  0.1495
 7604TIP3    H144227   5.677   4.891  14.442  1.3522  0.7110 -0.0012
 7604TIP3    H244228   5.714   4.918  14.586 -2.2305 -0.5261  1.2737
 7605TIP3   OH244229   4.544   0.912   3.747  0.2224 -0.1509  0.5536
 7605TIP3    H144230   4.461   0.956   3.729  0.0315 -1.2256 -1.4066
 7605TIP3    H244231   4.522   0.847   3.815 -0.2016  0.5538  1.1023
 7606TIP3   OH244232   0.493   4.485  12.158  0.6796  0.0030 -0.0058
 7606TIP3    H144233   0.544   4.532  12.092  0.4826  1.5982  0.9270
 7606TIP3    H244234   0.475   4.550  12.226  0.1543 -1.3639  1.2323
 7607TIP3   OH244235   4.800   2.324  14.151  0.0538 -1.2862  0.2989
 7607TIP3    H144236   4.840   2.251  14.197  2.2898 -0.2935  0.0491
 7607TIP3    H244237   4.836   2.402  14.194 -2.9753 -0.2273  1.1939
 7608TIP3   OH244238   4.373   5.444  12.305  1.0121 -0.0955  1.0345
 7608TIP3    H144239   4.317   5.387  12.253  2.5535 -0.0420 -0.8155
 7608TIP3    H244240   4.455   5.395  12.314  1.9285  1.2651  0.4785
 7609TIP3   OH244241   0.781   1.251   3.129  0.1480  0.4638  0.1315
 7609TIP3    H144242   0.749   1.299   3.052 -2.0443 -2.1525 -0.7526
 7609TIP3    H244243   0.720   1.276   3.199  0.3102  0.5897  0.2271
 7610TIP3   OH244244   5.055   1.384  14.617  0.5332  0.2554  0.5302
 7610TIP3    H144245   5.035   1.472  14.648  0.8174  0.5511 -0.0941
 7610TIP3    H244246   5.120   1.350  14.678 -0.0617  0.2124  1.1621
 7611TIP3   OH244247   4.240   6.136  14.599  0.3197 -0.2350 -0.0198
 7611TIP3    H144248   4.183   6.159  14.526  0.0206 -1.0051 -0.0394
 7611TIP3    H244249   4.193   6.169  14.677 -1.0245 -2.3335  0.1333
 7612TIP3   OH244250   5.781   2.782  12.672  0.3181 -0.0299 -0.3230
 7612TIP3    H144251   5.713   2.843  12.701 -0.7215 -1.4561  0.3612
 7612TIP3    H244252   5.742   2.696  12.683  1.4745 -0.8174 -1.9695
 7613TIP3   OH244253   5.049   4.902   2.873 -0.3947 -0.2416  0.3678
 7613TIP3    H144254   4.980   4.869   2.816 -1.3394  0.3673  1.1307
 7613TIP3    H244255   5.009   4.905   2.960 -0.1339  2.2221  0.4591
 7614TIP3   OH244256   0.684   3.307  11.972 -0.9997 -0.2463 -0.0454
 7614TIP3    H144257   0.715   3.249  11.903  0.2603 -1.3319  1.3720
 7614TIP3    H244258   0.705   3.262  12.053 -0.9872  1.7089  1.1073
 7615TIP3   OH244259   1.401   6.311   0.527 -0.7190  0.1501 -0.1451
 7615TIP3    H144260   1.439   6.364   0.456  0.2295  0.1532  0.3583
 7615TIP3    H244261   1.321   6.358   0.551  1.5589  3.1054  2.3206
 7616TIP3   OH244262   5.154   0.957  16.558 -0.6201 -0.0272  0.0559
 7616TIP3    H144263   5.075   1.008  16.576  0.6823  1.6044  1.5537
 7616TIP3    H244264   5.200   1.005  16.489 -0.5295 -0.5186 -0.2356
 7617TIP3   OH244265   2.777   5.279   4.750  0.0186 -0.7542  0.5922
 7617TIP3    H144266   2.686   5.264   4.774 -0.2573  1.1962  0.9321
 7617TIP3    H244267   2.773   5.318   4.662  0.1360  2.8694  2.0073
 7618TIP3   OH244268   0.604   5.756  16.651 -0.2516  0.0924 -0.4748
 7618TIP3    H144269   0.663   5.718  16.586 -0.6634 -1.3252 -0.0369
 7618TIP3    H244270   0.624   5.709  16.732 -0.2809  1.3084  0.2623
 7619TIP3   OH244271   4.561   4.539   5.161 -0.0784  0.4347  0.1397
 7619TIP3    H144272   4.651   4.568   5.144  0.1786 -0.1883  0.4050
 7619TIP3    H244273   4.511   4.620   5.173  1.0194  0.7980  2.9308
 7620TIP3   OH244274   5.960   4.500   4.680 -0.6006  0.0513 -0.6160
 7620TIP3    H144275   6.016   4.487   4.757 -0.7546  0.2053 -0.4753
 7620TIP3    H244276   5.874   4.466   4.707 -0.4547 -0.6351 -1.0018
 7621TIP3   OH244277   4.750   1.722   3.513 -0.0586 -0.1145 -0.1202
 7621TIP3    H144278   4.756   1.694   3.422  1.7317  1.6016 -0.5815
 7621TIP3    H244279   4.690   1.797   3.511 -0.3194 -0.3100  0.1965
 7622TIP3   OH244280   6.622   3.453  14.568 -0.8411 -0.4508  0.4594
 7622TIP3    H144281   6.614   3.401  14.647 -0.9432 -0.0267  0.7348
 7622TIP3    H244282   6.589   3.397  14.498 -2.2198 -0.2734  0.9404
 7623TIP3   OH244283   6.657   2.412  12.243  0.0926  0.7276  0.2880
 7623TIP3    H144284   6.659   2.505  12.267 -2.3574  1.4646 -1.7995
 7623TIP3    H244285   6.569   2.400  12.205  0.2270 -2.5354  0.7697
 7624TIP3   OH244286   3.198   4.670   6.291  0.2254 -0.2020 -0.6489
 7624TIP3    H144287   3.234   4.585   6.316 -1.6015 -1.2027 -1.1785
 7624TIP3    H244288   3.180   4.715   6.374  2.1454  0.1352 -0.3766
 7625TIP3   OH244289   5.648   5.843   2.855 -0.5009  0.3678 -0.5517
 7625TIP3    H144290   5.673   5.754   2.828 -1.4632  0.1240 -0.6595
 7625TIP3    H244291   5.707   5.863   2.928  0.3145 -0.0139 -1.0947
 7626TIP3   OH244292   1.494   4.643   2.881 -0.5802 -0.1612 -0.0576
 7626TIP3    H144293   1.431   4.593   2.933 -0.9594 -0.7370 -1.0341
 7626TIP3    H244294   1.445   4.666   2.802  0.3073 -0.2658 -0.6459
 7627TIP3   OH244295   0.258   6.085   0.599 -0.1665 -0.1755 -0.5264
 7627TIP3    H144296   0.340   6.122   0.633 -0.7813  0.9882 -0.2467
 7627TIP3    H244297   0.211   6.057   0.677 -0.4625  0.1038 -0.6013
 7628TIP3   OH244298   3.123   1.255   3.594  0.0761  0.5553  0.4124
 7628TIP3    H144299   3.162   1.169   3.611 -0.8142  0.2499  0.9615
 7628TIP3    H244300   3.102   1.289   3.681  1.0908  1.6634  0.2501
 7629TIP3   OH244301   4.049   0.677   6.962 -0.2548  0.1669 -0.0734
 7629TIP3    H144302   4.030   0.583   6.952  0.8393 -0.1181  0.4050
 7629TIP3    H244303   4.122   0.693   6.903  1.3511  0.0874  1.7656
 7630TIP3   OH244304   0.593   4.178  16.695 -0.2701 -0.3657  0.2162
 7630TIP3    H144305   0.613   4.271  16.679 -0.3163 -0.6104 -1.3433
 7630TIP3    H244306   0.504   4.179  16.731  0.5508  0.3387  2.4446
 7631TIP3   OH244307   5.525   6.332  13.775  0.3093 -0.0692  0.0138
 7631TIP3    H144308   5.582   6.401  13.740 -0.1344  0.1413 -0.2963
 7631TIP3    H244309   5.505   6.277  13.699 -2.1566  1.4240 -0.5241
 7632TIP3   OH244310   4.633   4.262  15.745  0.0108  0.1168  0.2033
 7632TIP3    H144311   4.610   4.171  15.725 -0.9348  0.9547 -3.2445
 7632TIP3    H244312   4.552   4.310  15.729  0.9905  1.7705  0.0394
 7633TIP3   OH244313   1.079   5.391  17.528  0.5412 -0.8551  0.2919
 7633TIP3    H144314   1.099   5.460  17.592  0.6061  0.1123 -0.7365
 7633TIP3    H244315   1.075   5.311  17.580  2.1585 -0.3490  1.2877
 7634TIP3   OH244316   2.846   2.206  14.543 -0.3602 -0.0257  0.4334
 7634TIP3    H144317   2.928   2.253  14.556 -0.4516  0.2851 -0.0839
 7634TIP3    H244318   2.868   2.134  14.484 -0.6096  0.5110 -0.3242
 7635TIP3   OH244319   4.683   2.892  13.847  0.3973 -0.1601 -0.5241
 7635TIP3    H144320   4.745   2.935  13.906  0.0183  1.0672 -0.9835
 7635TIP3    H244321   4.635   2.830  13.903  1.9737 -1.1072 -0.1608
 7636TIP3   OH244322   0.469   3.083  15.498  0.3624  0.2594 -0.2838
 7636TIP3    H144323   0.405   3.038  15.444  1.4908 -2.6099  0.5945
 7636TIP3    H244324   0.554   3.058  15.461  1.1535 -1.3757  2.3677
 7637TIP3   OH244325   6.713   0.689  15.910  0.3631 -0.3857 -0.1173
 7637TIP3    H144326   6.655   0.765  15.913  1.1136  0.2835  3.9323
 7637TIP3    H244327   6.791   0.720  15.865  0.3683  1.1017  0.8405
 7638TIP3   OH244328   2.755   4.090   0.820  0.2311  0.2972 -0.1804
 7638TIP3    H144329   2.695   4.045   0.880 -0.2603 -0.1980 -1.0170
 7638TIP3    H244330   2.753   4.181   0.848  0.1892  0.0309  0.6983
 7639TIP3   OH244331   3.074   6.290  12.684 -0.0491  0.8131  0.4873
 7639TIP3    H144332   3.152   6.315  12.634  0.7935 -0.0916  1.3175
 7639TIP3    H244333   3.081   6.195  12.695 -0.2378  0.9661  2.2464
 7640TIP3   OH244334   2.077   5.663   2.023 -0.2712  0.0103  0.4962
 7640TIP3    H144335   2.088   5.708   2.106 -2.0387 -0.2051  0.8844
 7640TIP3    H244336   2.130   5.584   2.031  2.3594  1.5896  0.0465
 7641TIP3   OH244337   2.893   6.019  12.728  0.1023  0.0015 -0.6390
 7641TIP3    H144338   2.982   6.026  12.765 -0.4728 -0.5462  0.9478
 7641TIP3    H244339   2.841   6.081  12.780 -1.1342 -2.1583  0.8706
 7642TIP3   OH244340   1.763   1.440   5.234 -0.4143  0.2527 -0.6596
 7642TIP3    H144341   1.738   1.533   5.243 -0.2553  0.2222  0.1732
 7642TIP3    H244342   1.745   1.420   5.143 -3.0727  0.3527 -0.2390
 7643TIP3   OH244343   0.331   3.857  14.570  0.6827 -0.2021  0.1177
 7643TIP3    H144344   0.380   3.776  14.569  2.3122  0.7444 -1.6964
 7643TIP3    H244345   0.363   3.904  14.648  0.6481 -0.7294  0.4524
 7644TIP3   OH244346   0.790   6.086   5.700 -0.9210 -0.1195  0.7051
 7644TIP3    H144347   0.705   6.082   5.656 -1.1893  0.1836  1.1886
 7644TIP3    H244348   0.777   6.040   5.783 -1.4187  2.3480  2.0641
 7645TIP3   OH244349   6.392   2.972  13.002  0.3119  0.1938  0.2604
 7645TIP3    H144350   6.405   2.879  13.018 -0.0351 -0.2777 -1.8580
 7645TIP3    H244351   6.435   2.988  12.917  0.2419  1.9312  0.5074
 7646TIP3   OH244352   5.421   0.467  13.183 -0.0177  0.1994 -0.1276
 7646TIP3    H144353   5.500   0.412  13.178 -1.1410 -1.3713 -1.7157
 7646TIP3    H244354   5.433   0.531  13.113 -0.2605 -0.2133 -0.5519
 7647TIP3   OH244355   1.391   4.054   4.953 -0.0566 -0.4161  0.0020
 7647TIP3    H144356   1.485   4.071   4.967  0.0446 -1.0437  0.1273
 7647TIP3    H244357   1.389   4.000   4.874 -0.1983 -1.5631  0.7653
 7648TIP3   OH244358   0.655   0.899   3.871 -0.1307 -0.4219  0.5784
 7648TIP3    H144359   0.664   0.894   3.775  0.0125 -2.1765  0.6535
 7648TIP3    H244360   0.711   0.972   3.896  0.9188 -0.7893 -0.5598
 7649TIP3   OH244361   0.594   0.730   1.462  0.4766 -0.0336 -0.3195
 7649TIP3    H144362   0.622   0.717   1.553 -1.2227  2.9052  0.7559
 7649TIP3    H244363   0.546   0.650   1.441  1.2245 -0.9461  1.2131
 7650TIP3   OH244364   0.186   2.629   2.005  0.2688 -0.2749 -0.1492
 7650TIP3    H144365   0.230   2.652   1.923  0.5810 -1.5653 -0.3663
 7650TIP3    H244366   0.145   2.711   2.034  0.9034  0.4119 -1.1231
 7651TIP3   OH244367   2.822   3.541  13.023  0.4152  0.4203  0.2473
 7651TIP3    H144368   2.838   3.447  13.022 -0.5867  0.2262 -1.6161
 7651TIP3    H244369   2.760   3.555  13.094  0.3141 -0.3681  0.3119
 7652TIP3   OH244370   4.656   1.886  15.671  0.3758 -0.0120 -0.3465
 7652TIP3    H144371   4.694   1.875  15.584  0.9685 -0.5554 -0.0286
 7652TIP3    H244372   4.624   1.976  15.673  2.0540  0.6175 -0.4730
 7653TIP3   OH244373   4.483   1.476  15.901  0.2366  0.0274 -0.0865
 7653TIP3    H144374   4.440   1.538  15.842 -0.0936  0.3856  0.5294
 7653TIP3    H244375   4.434   1.394  15.890 -0.0567  0.1951 -0.0352
 7654TIP3   OH244376   3.311   6.584  12.343 -0.1629  0.2242 -0.3256
 7654TIP3    H144377   3.352   6.633  12.414 -3.0549  0.7252  1.1429
 7654TIP3    H244378   3.343   6.625  12.263  3.5753 -0.6591  0.5294
 7655TIP3   OH244379   1.420   2.569   3.060 -0.0039 -0.4150 -0.5598
 7655TIP3    H144380   1.389   2.562   3.150  2.5284 -0.8361  0.3415
 7655TIP3    H244381   1.460   2.484   3.042 -0.2815 -0.2625 -2.0367
 7656TIP3   OH244382   0.541   2.633   5.070 -0.2146 -0.0801  0.2982
 7656TIP3    H144383   0.451   2.618   5.100 -0.8769  1.7058 -0.6274
 7656TIP3    H244384   0.575   2.699   5.129  0.2836 -0.3279  0.2864
 7657TIP3   OH244385   0.685   3.893  13.888 -0.0066  0.0423 -0.0558
 7657TIP3    H144386   0.595   3.881  13.856  0.4147  0.7007 -1.6121
 7657TIP3    H244387   0.690   3.841  13.968 -1.6827 -0.2483 -0.1070
 7658TIP3   OH244388   4.380   3.901   3.060  0.3255  0.2813  0.3662
 7658TIP3    H144389   4.468   3.867   3.077 -0.4350 -1.8412  0.4580
 7658TIP3    H244390   4.339   3.907   3.146 -0.8263 -2.5549  0.1477
 7659TIP3   OH244391   0.576   4.752  14.819 -0.4194  0.0036 -0.0911
 7659TIP3    H144392   0.507   4.687  14.835 -0.9652  0.2538 -1.2857
 7659TIP3    H244393   0.609   4.775  14.906 -1.4966 -0.4914  0.4662
 7660TIP3   OH244394   4.546   6.412   1.095  0.6220 -0.2177  0.3277
 7660TIP3    H144395   4.544   6.381   1.005 -0.3265  1.4747 -0.2765
 7660TIP3    H244396   4.473   6.369   1.138  1.3819 -1.4213  0.4542
 7661TIP3   OH244397   3.518   3.456   3.489  0.1552  0.2398 -0.0037
 7661TIP3    H144398   3.436   3.502   3.506  0.5286  1.1988 -0.6920
 7661TIP3    H244399   3.554   3.440   3.577 -1.0318 -0.7331  0.3291
 7662TIP3   OH244400   4.646   3.250  16.026 -0.0937 -0.0836 -0.1681
 7662TIP3    H144401   4.552   3.233  16.019  0.0009 -0.5033 -0.4568
 7662TIP3    H244402   4.669   3.222  16.114 -0.2448  0.0618 -0.0800
 7663TIP3   OH244403   2.415   5.505   1.427  0.2653 -0.0221  0.0073
 7663TIP3    H144404   2.377   5.582   1.471  0.0486  1.7296 -2.9690
 7663TIP3    H244405   2.507   5.506   1.454  0.7298  2.4976 -1.3397
 7664TIP3   OH244406   3.387   0.008  16.283 -0.3506  0.1696 -0.2894
 7664TIP3    H144407   3.439   0.087  16.276 -0.5583  0.2587 -0.8565
 7664TIP3    H244408   3.307   0.036  16.328  1.1494 -0.4830  3.1342
 7665TIP3   OH244409   4.743   4.594  11.600  0.1442 -0.0920 -0.0151
 7665TIP3    H144410   4.787   4.654  11.661 -1.5345 -0.6480  1.8688
 7665TIP3    H244411   4.746   4.509  11.645 -2.6110 -0.1776  0.1417
 7666TIP3   OH244412   2.195   4.366  15.033 -0.3372 -0.6889  0.0415
 7666TIP3    H144413   2.228   4.432  14.972 -0.7124 -1.0356 -0.5506
 7666TIP3    H244414   2.136   4.414  15.091  0.4463 -0.2534  0.4850
 7667TIP3   OH244415   0.175   5.481  12.895 -0.3071  0.2202 -0.2049
 7667TIP3    H144416   0.154   5.492  12.988  2.4717 -1.1921  0.7072
 7667TIP3    H244417   0.112   5.536  12.849 -0.5500  2.5035  2.6267
 7668TIP3   OH244418   4.771   3.887  12.274  0.0823 -0.2952  0.2323
 7668TIP3    H144419   4.854   3.853  12.307 -0.7802 -2.1290  0.6990
 7668TIP3    H244420   4.761   3.973  12.315  1.2855 -0.4789  0.9484
 7669TIP3   OH244421   6.138   3.381  11.219  0.1705  0.0551 -0.1866
 7669TIP3    H144422   6.064   3.441  11.228  0.8482  0.5789  2.6749
 7669TIP3    H244423   6.197   3.424  11.156 -0.5758  1.0696 -0.2073
 7670TIP3   OH244424   5.120   2.691  12.901 -0.0825  0.0067  0.4454
 7670TIP3    H144425   5.089   2.611  12.860  0.5149  0.5024 -1.0597
 7670TIP3    H244426   5.041   2.736  12.931 -0.5756 -0.2478 -0.4514
 7671TIP3   OH244427   1.831   5.571   5.338 -0.1306 -0.0558  0.4710
 7671TIP3    H144428   1.819   5.480   5.366 -0.2174 -0.0948  0.3095
 7671TIP3    H244429   1.751   5.591   5.288  0.1774 -0.1006 -0.0460
 7672TIP3   OH244430   0.312   5.894  11.794 -0.3943 -0.2988 -0.4612
 7672TIP3    H144431   0.377   5.843  11.747  2.4864 -0.5494  3.2985
 7672TIP3    H244432   0.350   5.981  11.801 -1.1685 -0.0175  0.4910
 7673TIP3   OH244433   0.249   3.974  12.383  0.4061 -0.0821  0.0209
 7673TIP3    H144434   0.187   3.901  12.382 -0.6768  0.8270 -0.0890
 7673TIP3    H244435   0.312   3.952  12.314 -0.4219 -0.4684 -0.6253
 7674TIP3   OH244436   0.178   2.550  13.235  0.3775 -0.0305 -0.2540
 7674TIP3    H144437   0.160   2.457  13.224  2.3107 -0.4433 -0.3071
 7674TIP3    H244438   0.208   2.558  13.326 -1.1007  0.8130  0.2021
 7675TIP3   OH244439   3.082   3.401  11.119  0.7130  0.1595  0.0891
 7675TIP3    H144440   3.019   3.464  11.084  0.6727  0.8065  1.2968
 7675TIP3    H244441   3.147   3.454  11.164  0.9111 -0.6347  0.7605
 7676TIP3   OH244442   3.623   5.328   4.377 -0.3882 -0.3537 -0.1215
 7676TIP3    H144443   3.597   5.279   4.455 -0.9079  1.2720  0.7655
 7676TIP3    H244444   3.549   5.321   4.318  0.6719 -3.1051 -1.3205
 7677TIP3   OH244445   1.866   5.731   5.607 -0.6429 -0.3210 -0.3532
 7677TIP3    H144446   1.786   5.689   5.639  0.5299 -0.8317  2.1469
 7677TIP3    H244447   1.936   5.671   5.633  0.9372  2.1883  1.6154
 7678TIP3   OH244448   1.970   2.186  16.192 -0.1281 -0.1275  0.0925
 7678TIP3    H144449   2.010   2.099  16.192  0.0658 -0.0678  1.8247
 7678TIP3    H244450   2.022   2.237  16.254 -1.3634  0.6890  0.4988
 7679TIP3   OH244451   5.870   1.387   3.277  0.3437  0.5033  0.2478
 7679TIP3    H144452   5.916   1.470   3.266 -0.1765  0.9830  1.5963
 7679TIP3    H244453   5.902   1.353   3.361  0.7715 -0.8208 -0.4142
 7680TIP3   OH244454   1.685   2.384   5.434 -0.0710  0.3473 -0.0547
 7680TIP3    H144455   1.750   2.445   5.469  0.1316  0.5422 -0.7439
 7680TIP3    H244456   1.629   2.439   5.379 -0.3350  0.0392 -0.0973
 7681TIP3   OH244457   0.925   0.057  13.358 -0.3051  0.5596 -0.1217
 7681TIP3    H144458   0.875   0.135  13.378 -1.0068  0.1318 -0.1589
 7681TIP3    H244459   0.878  -0.014  13.402  0.1611  0.1217 -0.3138
 7682TIP3   OH244460   6.559   5.269   4.951 -0.2248  0.1328 -0.2371
 7682TIP3    H144461   6.601   5.241   5.033  0.9784 -0.4106 -1.0117
 7682TIP3    H244462   6.496   5.199   4.932  1.5501 -1.2883 -1.2522
 7683TIP3   OH244463   5.886   0.976   2.457 -0.0576  0.3408 -0.7264
 7683TIP3    H144464   5.968   1.022   2.472 -0.5923  1.0821  0.0469
 7683TIP3    H244465   5.831   1.000   2.532 -0.4014 -1.4558 -0.3496
 7684TIP3   OH244466   6.559   2.179   6.775  0.7579 -0.3024  0.3071
 7684TIP3    H144467   6.618   2.111   6.807 -1.2997 -1.9079  0.9012
 7684TIP3    H244468   6.495   2.133   6.720  0.5807  1.5092 -1.1490
 7685TIP3   OH244469   0.730   5.873   2.862  0.0056 -0.7524 -0.0067
 7685TIP3    H144470   0.739   5.965   2.840 -1.5769 -0.7841 -0.9321
 7685TIP3    H244471   0.781   5.862   2.942 -0.0193  0.9726  0.2716
 7686TIP3   OH244472   4.385   0.555   6.421  0.0127 -0.2259  0.1479
 7686TIP3    H144473   4.464   0.592   6.460 -0.8538  3.1847 -0.9084
 7686TIP3    H244474   4.407   0.547   6.328  0.4681 -3.6269  0.4192
 7687TIP3   OH244475   2.532   1.651   3.301  0.1233  0.0167  0.2216
 7687TIP3    H144476   2.608   1.640   3.243 -1.1735 -1.6702 -1.3069
 7687TIP3    H244477   2.543   1.737   3.339  2.7510 -0.1276 -0.0145
 7688TIP3   OH244478   3.449   2.664   6.943  0.4353 -0.2636  0.0852
 7688TIP3    H144479   3.478   2.750   6.911 -1.2147  0.3703  0.2425
 7688TIP3    H244480   3.386   2.634   6.877 -1.1784 -0.0334  1.4783
 7689TIP3   OH244481   1.244   1.821  12.402 -0.4632 -0.1165 -0.5454
 7689TIP3    H144482   1.173   1.759  12.421 -0.0547 -1.2672 -2.5037
 7689TIP3    H244483   1.200   1.896  12.363 -0.8727  0.4865  1.0150
 7690TIP3   OH244484   3.060   6.363  16.491  0.0858  0.2605 -0.0593
 7690TIP3    H144485   2.967   6.368  16.468  0.0109 -0.2635  0.1187
 7690TIP3    H244486   3.101   6.429  16.436 -0.5326  1.2078  0.5889
 7691TIP3   OH244487   3.567   0.487   5.145 -0.2475 -0.6714 -0.0412
 7691TIP3    H144488   3.632   0.502   5.214  1.6956  0.7835 -2.0251
 7691TIP3    H244489   3.493   0.541   5.170  0.1200 -0.7163  1.2404
 7692TIP3   OH244490   1.908   3.941  11.755  0.5548 -0.2165 -0.1029
 7692TIP3    H144491   1.821   3.971  11.732 -0.4118 -1.5836  1.4815
 7692TIP3    H244492   1.968   3.999  11.709 -1.1492  3.2255  1.6655
 7693TIP3   OH244493   0.213   6.344  14.508  0.0962 -0.5793  0.4933
 7693TIP3    H144494   0.226   6.425  14.459  1.0003 -0.5597  0.7329
 7693TIP3    H244495   0.175   6.372  14.591 -0.7219 -0.5318  0.1080
 7694TIP3   OH244496   3.803   0.969  12.620  0.0179 -0.2134  0.2023
 7694TIP3    H144497   3.750   1.010  12.688 -0.7736  1.2330 -1.2193
 7694TIP3    H244498   3.857   0.905  12.667  0.2312  1.4082  2.3310
 7695TIP3   OH244499   6.048   4.596   0.557  0.1512 -0.0188 -0.3189
 7695TIP3    H144500   6.086   4.520   0.602  0.1612  1.3811  2.1927
 7695TIP3    H244501   6.118   4.627   0.500  0.4786 -1.2964 -0.6511
 7696TIP3   OH244502   5.821   3.195   1.939 -0.1919  0.2763 -0.3588
 7696TIP3    H144503   5.885   3.139   1.983 -2.8130 -1.7621  1.1220
 7696TIP3    H244504   5.818   3.275   1.993  1.3638  0.5961 -0.7102
 7697TIP3   OH244505   2.526   4.757  13.469 -0.0215 -0.3408 -0.1186
 7697TIP3    H144506   2.541   4.674  13.425  0.5612 -0.8818  1.0632
 7697TIP3    H244507   2.479   4.735  13.550 -0.3532  0.5355 -0.0522
 7698TIP3   OH244508   1.812   1.219  13.230  0.1804  0.0966  0.2243
 7698TIP3    H144509   1.788   1.264  13.149 -1.1220 -0.5722  0.2097
 7698TIP3    H244510   1.749   1.250  13.295  1.9308  1.5218  1.3326
 7699TIP3   OH244511   5.327   6.090  14.454 -0.2552 -0.1850  0.0191
 7699TIP3    H144512   5.308   6.008  14.499 -1.6352 -2.0233 -3.5936
 7699TIP3    H244513   5.411   6.075  14.411 -0.5755  0.2594 -0.7748
 7700TIP3   OH244514   5.598   6.285   6.233 -0.0159 -0.0849  0.9143
 7700TIP3    H144515   5.547   6.344   6.289  0.0456  1.3912 -0.5136
 7700TIP3    H244516   5.683   6.277   6.278  0.9264  3.0321 -0.0224
 7701TIP3   OH244517   4.394   2.175   5.291 -0.3292  0.1507 -0.1896
 7701TIP3    H144518   4.357   2.147   5.375  0.8633 -0.0833  0.2914
 7701TIP3    H244519   4.471   2.227   5.316 -1.1037  1.8188 -1.1153
 7702TIP3   OH244520   4.241   0.345   2.281  0.1641 -0.0493  0.0301
 7702TIP3    H144521   4.244   0.323   2.188 -0.4637 -3.0697  0.6012
 7702TIP3    H244522   4.151   0.329   2.307  0.3662  0.6074  1.1922
 7703TIP3   OH244523   4.131   3.580  15.278 -0.0975  0.7424 -0.8967
 7703TIP3    H144524   4.163   3.523  15.209  0.1071  2.5530 -2.3541
 7703TIP3    H244525   4.177   3.550  15.357  1.1397 -0.0973 -1.9025
 7704TIP3   OH244526   6.142   6.362   4.288  0.1004  0.7471  0.2118
 7704TIP3    H144527   6.157   6.354   4.194  0.3262 -2.5903  0.4236
 7704TIP3    H244528   6.054   6.327   4.301  0.4320  0.3159  1.3590
 7705TIP3   OH244529   1.883   2.619  16.899 -0.9178 -0.4372 -0.0567
 7705TIP3    H144530   1.835   2.581  16.972  0.1035 -2.7478 -0.5194
 7705TIP3    H244531   1.818   2.671  16.852 -1.7988  0.4025  1.9429
 7706TIP3   OH244532   2.456   3.936  16.709 -0.3021 -0.4440 -0.5665
 7706TIP3    H144533   2.431   3.951  16.800  0.5448  2.2955 -0.6932
 7706TIP3    H244534   2.537   3.985  16.698 -1.5844  1.2991 -3.3733
 7707TIP3   OH244535   6.018   3.118  16.159 -0.5475  0.6254 -0.1484
 7707TIP3    H144536   5.975   3.054  16.216 -1.0527  0.7538 -0.3832
 7707TIP3    H244537   6.111   3.109  16.179 -0.6213 -0.1210 -0.1178
 7708TIP3   OH244538   3.157   4.965   2.731 -0.7053  0.1734  0.4223
 7708TIP3    H144539   3.111   4.976   2.647 -0.3418  0.1807  0.2180
 7708TIP3    H244540   3.173   4.870   2.737  0.5999  0.3271 -0.2546
 7709TIP3   OH244541   0.145   0.471   4.123  0.1649 -0.2168  0.2066
 7709TIP3    H144542   0.206   0.445   4.192  0.6932  0.3596 -0.0354
 7709TIP3    H244543   0.172   0.422   4.046  0.4744  0.2158  0.0374
 7710TIP3   OH244544   3.856   0.922  14.410 -0.1374  0.1667 -0.5396
 7710TIP3    H144545   3.938   0.954  14.448 -0.8533 -0.0808  1.2867
 7710TIP3    H244546   3.878   0.905  14.318  0.9521  3.4129 -1.0174
 7711TIP3   OH244547   5.899   5.562  17.048 -0.0822  0.2043  0.2778
 7711TIP3    H144548   5.951   5.628  17.095  1.3586  0.1026 -1.1019
 7711TIP3    H244549   5.808   5.588  17.064  0.4274  1.7892  0.8036
 7712TIP3   OH244550   1.034   2.912   0.694 -0.1039 -0.1292 -1.0391
 7712TIP3    H144551   0.952   2.898   0.741  2.0913 -0.0298  3.3150
 7712TIP3    H244552   1.089   2.837   0.719  2.3904  1.7507 -0.4674
 7713TIP3   OH244553   2.918   6.233   4.121 -0.4466  0.3357  0.1284
 7713TIP3    H144554   2.919   6.287   4.200  0.2395 -0.4516  0.6712
 7713TIP3    H244555   2.994   6.264   4.071 -1.9746  2.1918 -1.2010
 7714TIP3   OH244556   1.081   1.312  11.138  0.3800  0.2330  0.1409
 7714TIP3    H144557   1.078   1.305  11.234  0.6901  0.4305  0.1672
 7714TIP3    H244558   1.170   1.340  11.119  0.0904  0.9552 -0.1633
 7715TIP3   OH244559   0.309   6.499   3.886 -0.3099 -0.3610 -0.2859
 7715TIP3    H144560   0.367   6.423   3.888 -0.4640 -0.4701  0.3441
 7715TIP3    H244561   0.364   6.572   3.914 -0.4774 -0.4741  0.3647
 7716TIP3   OH244562   3.341   1.377  14.015  0.1185 -0.3264 -0.2939
 7716TIP3    H144563   3.399   1.352  14.087  1.2575  0.2202 -0.9972
 7716TIP3    H244564   3.353   1.308  13.950  2.0066  1.0383 -1.5321
 7717TIP3   OH244565   2.751   2.556  13.525 -0.0534  0.3713  0.2257
 7717TIP3    H144566   2.780   2.607  13.600  1.0280  1.1141 -0.6710
 7717TIP3    H244567   2.822   2.563  13.462  0.1558 -2.2880  0.0644
 7718TIP3   OH244568   6.359   1.643   3.961  0.1744  0.2293  0.0149
 7718TIP3    H144569   6.400   1.720   3.923  0.3181 -0.3920 -1.1451
 7718TIP3    H244570   6.376   1.573   3.898  1.7462 -1.2307  1.9221
 7719TIP3   OH244571   0.679   1.051  17.497 -0.5164  0.7126 -0.2590
 7719TIP3    H144572   0.758   1.055  17.442  0.4910  1.2920  1.1659
 7719TIP3    H244573   0.609   1.025  17.437  0.4021  1.9787 -1.9625
 7720TIP3   OH244574   3.835   2.431  14.288  0.1889 -0.2372 -0.2023
 7720TIP3    H144575   3.858   2.457  14.199  1.2020  2.9465  0.8539
 7720TIP3    H244576   3.755   2.481  14.307 -0.2654 -1.2191  0.5586
 7721TIP3   OH244577   4.633   3.420   3.377 -0.0897  0.1875 -0.6671
 7721TIP3    H144578   4.638   3.515   3.386  2.4652 -0.0708  2.2078
 7721TIP3    H244579   4.583   3.391   3.453  0.7684 -0.8390 -0.4584
 7722TIP3   OH244580   1.275   4.932   0.656 -0.0902 -0.1428  0.2623
 7722TIP3    H144581   1.201   4.947   0.715 -0.4199  0.8223 -0.3717
 7722TIP3    H244582   1.252   4.851   0.610 -0.8676  0.2787 -0.1000
 7723TIP3   OH244583   2.555   3.535   2.448  0.2041  0.1015  0.5687
 7723TIP3    H144584   2.547   3.628   2.428  2.0222  0.2601  0.3840
 7723TIP3    H244585   2.631   3.506   2.396  0.8592 -1.0273  2.0853
 7724TIP3   OH244586   4.309   4.389  10.917  0.4222 -0.1714 -0.2033
 7724TIP3    H144587   4.294   4.376  11.011 -0.5108  0.2974 -0.2735
 7724TIP3    H244588   4.224   4.371  10.877  0.0936  2.1549 -0.6881
 7725TIP3   OH244589   3.673   4.889  17.198 -0.6515  0.4591  0.6211
 7725TIP3    H144590   3.604   4.868  17.261 -1.0542 -1.0897 -0.2698
 7725TIP3    H244591   3.658   4.981  17.176 -1.6959  0.4803  1.3469
 7726TIP3   OH244592   3.004   3.569   4.258  0.0555 -0.2455 -0.4157
 7726TIP3    H144593   2.952   3.489   4.265 -0.1900 -0.1199 -0.7555
 7726TIP3    H244594   2.959   3.621   4.191  0.8079 -0.2758 -0.9580
 7727TIP3   OH244595   4.890   1.287   3.009 -0.3902 -0.3710 -0.3122
 7727TIP3    H144596   4.811   1.248   3.048 -1.3207  0.9233 -0.8455
 7727TIP3    H244597   4.942   1.315   3.085 -0.8901 -0.3584  0.0320
 7728TIP3   OH244598   6.473   5.902  12.835 -0.5897 -0.2721 -0.0534
 7728TIP3    H144599   6.557   5.941  12.810 -1.1599  1.0285 -0.0277
 7728TIP3    H244600   6.497   5.828  12.890  0.5295  0.6154  0.6999
 7729TIP3   OH244601   4.397   1.152  13.373  0.7757  0.4815  0.9298
 7729TIP3    H144602   4.315   1.194  13.347  1.0251  0.1401 -0.5032
 7729TIP3    H244603   4.464   1.197  13.321  1.1400 -1.0951 -0.0385
 7730TIP3   OH244604   1.123   0.589  13.817  0.2535  0.0516  0.2583
 7730TIP3    H144605   1.159   0.590  13.906  1.3382 -1.1099 -0.1415
 7730TIP3    H244606   1.037   0.548  13.826  0.3912 -0.1278  0.7756
 7731TIP3   OH244607   5.370   3.950  11.490 -0.8048  0.0775  0.1039
 7731TIP3    H144608   5.365   3.961  11.395 -0.1503  0.2011  0.0780
 7731TIP3    H244609   5.286   3.983  11.523 -0.3442  1.6962 -0.2824
 7732TIP3   OH244610   5.849   3.605  15.463 -0.1562 -0.1920 -0.5261
 7732TIP3    H144611   5.774   3.563  15.421 -1.0233 -0.1725  0.9333
 7732TIP3    H244612   5.906   3.632  15.391 -0.5576 -2.0424 -1.5839
 7733TIP3   OH244613   0.511   6.317   2.970 -0.4543 -0.6330  0.0483
 7733TIP3    H144614   0.537   6.240   3.020 -0.3769  0.0264  1.0546
 7733TIP3    H244615   0.593   6.363   2.952 -0.3026 -1.5612 -1.9496
 7734TIP3   OH244616   1.378   0.425  12.076 -0.4244 -0.4375  0.7849
 7734TIP3    H144617   1.456   0.370  12.090  0.8235  0.9678 -0.2711
 7734TIP3    H244618   1.388   0.497  12.138 -0.8365 -0.2057  0.5866
 7735TIP3   OH244619   0.851   4.889  13.993  0.0463  0.2059 -0.1534
 7735TIP3    H144620   0.836   4.913  13.902 -1.0222  0.8743  0.1888
 7735TIP3    H244621   0.913   4.817  13.989  1.7940  1.6949 -1.3051
 7736TIP3   OH244622   0.841   5.725   3.642 -0.1728  0.6097 -0.2057
 7736TIP3    H144623   0.823   5.650   3.699  1.4132 -0.4305 -0.9760
 7736TIP3    H244624   0.864   5.796   3.701 -1.4016  0.4240  0.5330
 7737TIP3   OH244625   4.503   4.875   0.347 -1.1676  0.5919  0.1936
 7737TIP3    H144626   4.522   4.782   0.347 -2.4685  0.2879  1.4499
 7737TIP3    H244627   4.432   4.885   0.411 -0.3461  2.5667  0.8865
 7738TIP3   OH244628   1.554   2.606  13.551 -0.4255 -0.0123  0.4489
 7738TIP3    H144629   1.475   2.619  13.500  0.8777 -1.3582 -2.0961
 7738TIP3    H244630   1.554   2.513  13.573  1.2246 -0.4232 -1.0917
 7739TIP3   OH244631   0.818   3.930  12.391 -0.0808 -0.1704  0.8675
 7739TIP3    H144632   0.777   3.922  12.305 -0.6633 -0.1806  1.1384
 7739TIP3    H244633   0.833   4.023  12.402 -0.5055 -0.1104  0.9752
 7740TIP3   OH244634   6.476   5.354   3.911 -0.2858 -0.4112 -0.5258
 7740TIP3    H144635   6.463   5.343   3.816 -0.0351 -1.1334 -0.4841
 7740TIP3    H244636   6.482   5.264   3.944 -1.2189 -0.1853  0.3008
 7741TIP3   OH244637   5.496   4.496  15.271  0.2687  0.2417 -0.8060
 7741TIP3    H144638   5.422   4.456  15.318  0.6773  0.2805 -0.1147
 7741TIP3    H244639   5.539   4.550  15.337  1.0840 -0.0029 -1.1319
 7742TIP3   OH244640   2.500   1.610  17.171 -0.4241  0.7367 -0.1178
 7742TIP3    H144641   2.498   1.536  17.110 -0.7091  1.5022 -1.0695
 7742TIP3    H244642   2.516   1.686  17.115 -1.3541  1.5413  0.6736
 7743TIP3   OH244643   0.483   2.030   2.818  0.2691  0.4332 -0.3111
 7743TIP3    H144644   0.432   2.007   2.741  0.9545  0.2024 -0.7082
 7743TIP3    H244645   0.470   2.124   2.829  1.6254  0.8537 -1.8269
 7744TIP3   OH244646   5.779   4.209   0.153  0.1019 -0.2951 -0.2625
 7744TIP3    H144647   5.853   4.156   0.183 -0.6973 -1.0882  0.3657
 7744TIP3    H244648   5.703   4.167   0.191 -0.7277  0.2286 -1.3022
 7745TIP3   OH244649   3.857   0.919  14.125 -0.0985 -0.5237  0.2285
 7745TIP3    H144650   3.815   0.973  14.058 -0.9168  1.0489  1.9177
 7745TIP3    H244651   3.950   0.939  14.116 -0.1708 -0.5270 -0.5955
 7746TIP3   OH244652   6.594   4.168   5.892  0.0354  0.9753 -0.0231
 7746TIP3    H144653   6.651   4.091   5.897 -0.3799  0.6938  0.5056
 7746TIP3    H244654   6.549   4.159   5.808 -0.3472  0.3991  0.2415
 7747TIP3   OH244655   5.202   0.561   1.059  0.0752  0.1643  0.3598
 7747TIP3    H144656   5.186   0.598   0.972 -0.4600  0.1248  0.4386
 7747TIP3    H244657   5.150   0.615   1.118 -0.2973 -0.3850  0.5374
 7748TIP3   OH244658   1.928   1.077  16.342  0.3397  0.5524 -0.2107
 7748TIP3    H144659   2.009   1.050  16.386  0.1129 -1.3899 -0.8882
 7748TIP3    H244660   1.924   1.022  16.264 -1.1801  1.2587 -0.6575
 7749TIP3   OH244661   6.192   1.888   4.984 -0.2067 -0.2134 -0.0837
 7749TIP3    H144662   6.280   1.889   5.022  0.5092 -1.7068 -1.5938
 7749TIP3    H244663   6.202   1.926   4.897 -0.7502 -1.6242 -0.7971
 7750TIP3   OH244664   6.557   2.733   0.675 -0.0625 -0.3866  0.1615
 7750TIP3    H144665   6.563   2.829   0.673  1.1606 -0.4504 -0.5345
 7750TIP3    H244666   6.463   2.715   0.672 -0.4125  0.7980  2.1459
 7751TIP3   OH244667   4.305   3.275   1.720  0.7665 -0.2688  0.4337
 7751TIP3    H144668   4.250   3.335   1.769  1.0672  0.3412  0.0362
 7751TIP3    H244669   4.245   3.211   1.682  0.2359  0.8443 -0.6461
 7752TIP3   OH244670   1.563   6.049   2.478  0.2779  0.0307  0.7252
 7752TIP3    H144671   1.580   5.956   2.490 -1.7375 -0.3630  0.9595
 7752TIP3    H244672   1.528   6.056   2.389 -0.8083  0.3235  1.1511
 7753TIP3   OH244673   4.124   5.739  14.380 -0.0389 -0.0158  0.2344
 7753TIP3    H144674   4.090   5.815  14.334 -0.0818  0.5915  1.2215
 7753TIP3    H244675   4.217   5.737  14.360 -0.4034 -0.9893 -1.5269
 7754TIP3   OH244676   0.097   5.600   2.875  0.0473  0.2918 -0.6856
 7754TIP3    H144677   0.108   5.524   2.932 -1.0998 -0.1619 -1.0595
 7754TIP3    H244678   0.172   5.596   2.816  1.1746  0.6822  0.6528
 7755TIP3   OH244679   2.820   0.052   0.474  0.0967 -0.1171 -0.2946
 7755TIP3    H144680   2.852   0.133   0.512 -0.2869  0.1901 -0.6117
 7755TIP3    H244681   2.779   0.006   0.547 -0.5951  0.4454 -0.3140
 7756TIP3   OH244682   3.310   6.428  12.618  0.0184  0.4155  0.3689
 7756TIP3    H144683   3.342   6.440  12.529 -1.6248  0.2587 -0.2707
 7756TIP3    H244684   3.341   6.505  12.665  0.2701  0.8779 -0.5284
 7757TIP3   OH244685   3.114   2.064   3.119  0.0790 -0.4526 -0.0531
 7757TIP3    H144686   3.114   2.123   3.044  1.0639 -1.7890 -1.1496
 7757TIP3    H244687   3.134   1.978   3.082 -1.2418 -1.4911  1.5027
 7758TIP3   OH244688   4.188   2.495  17.152  0.3103 -0.5831  0.0008
 7758TIP3    H144689   4.092   2.497  17.154  0.3345  0.8590  0.3940
 7758TIP3    H244690   4.212   2.442  17.227 -0.1738 -1.3785 -0.3854
 7759TIP3   OH244691   3.525   0.364  17.031 -0.0535  0.1830  0.1336
 7759TIP3    H144692   3.595   0.403  16.979 -0.2739  1.0625  0.4905
 7759TIP3    H244693   3.552   0.272  17.042 -0.2078 -0.1390 -1.8745
 7760TIP3   OH244694   2.991   5.531   5.808 -0.2889  0.8365 -0.1889
 7760TIP3    H144695   3.029   5.612   5.774 -1.3899  2.0825  1.4005
 7760TIP3    H244696   3.066   5.486   5.849  0.0526  1.8340  0.3191
 7761TIP3   OH244697   1.245   2.456  13.712 -0.0082  0.3363  0.3452
 7761TIP3    H144698   1.188   2.478  13.785 -1.9438  0.8105 -1.2414
 7761TIP3    H244699   1.273   2.366  13.730 -2.1027 -0.2990  0.6902
 7762TIP3   OH244700   5.617   1.253   0.784  0.3221  0.1027  0.6100
 7762TIP3    H144701   5.603   1.345   0.806  1.4001  0.2007  0.9300
 7762TIP3    H244702   5.613   1.207   0.868  0.2920 -0.0796  0.5101
 7763TIP3   OH244703   1.459   3.815  12.377  0.2495  0.1502  0.1015
 7763TIP3    H144704   1.438   3.786  12.289 -1.2298 -0.0829  0.5069
 7763TIP3    H244705   1.498   3.901  12.366 -0.3216  0.3018 -0.7546
 7764TIP3   OH244706   0.087   2.825   3.072  0.6910 -0.2808 -0.1384
 7764TIP3    H144707   0.074   2.908   3.026 -0.1031 -0.1379  0.3221
 7764TIP3    H244708   0.178   2.827   3.102  0.9117  0.0633 -0.8225
 7765TIP3   OH244709   4.079   5.675   5.709  0.4542  0.3327  0.7261
 7765TIP3    H144710   4.078   5.711   5.797  1.3116  1.5839  0.2537
 7765TIP3    H244711   4.112   5.586   5.720 -0.9669 -0.0782  1.8339
 7766TIP3   OH244712   0.905   4.053   6.439 -0.0051 -0.0293  0.1050
 7766TIP3    H144713   0.976   4.116   6.451  0.6727 -0.8756  0.6280
 7766TIP3    H244714   0.888   4.019   6.526 -0.3610 -0.5825 -0.1751
 7767TIP3   OH244715   2.572   0.101  15.361 -0.0481 -0.5998  0.8066
 7767TIP3    H144716   2.554   0.021  15.313 -0.9576 -0.4256  0.8392
 7767TIP3    H244717   2.486   0.132  15.390  0.4400 -0.5609  2.3206
 7768TIP3   OH244718   1.136   1.906  14.932 -0.0679  0.2129 -0.3009
 7768TIP3    H144719   1.195   1.968  14.975  1.7946 -0.2720 -2.0146
 7768TIP3    H244720   1.193   1.850  14.879 -1.9135 -1.4403 -0.6977
 7769TIP3   OH244721   5.028   0.900  17.497  0.1507 -0.1889 -0.1566
 7769TIP3    H144722   5.092   0.930  17.562  0.9419 -1.4095 -0.3456
 7769TIP3    H244723   5.055   0.941  17.415  0.2943 -0.1582 -0.0941
 7770TIP3   OH244724   2.477   0.876   0.152  0.2707  0.3334 -0.0127
 7770TIP3    H144725   2.565   0.838   0.156  0.5790  0.0769 -4.2015
 7770TIP3    H244726   2.493   0.969   0.133 -0.3470  0.4641  0.1065
 7771TIP3   OH244727   1.137   5.956  14.926  0.2836  0.8143  0.1945
 7771TIP3    H144728   1.112   5.972  14.836  2.5388  2.2367 -0.2723
 7771TIP3    H244729   1.118   6.038  14.972 -4.1980 -0.9306  2.0206
 7772TIP3   OH244730   6.297   6.472   4.062  0.4587 -0.0778 -0.1097
 7772TIP3    H144731   6.352   6.400   4.031  0.8581  0.7553 -1.4109
 7772TIP3    H244732   6.357   6.529   4.110  0.7436  0.8047 -1.4844
 7773TIP3   OH244733   2.564   6.342  15.234 -0.0765  0.3082 -0.2223
 7773TIP3    H144734   2.640   6.400  15.237 -0.9896  1.6371 -1.2611
 7773TIP3    H244735   2.574   6.294  15.152  0.1067 -0.1949  0.0924
 7774TIP3   OH244736   3.269   5.796   2.210  0.0323 -0.2158 -0.4211
 7774TIP3    H144737   3.274   5.891   2.210 -2.2960 -0.0359 -0.6924
 7774TIP3    H244738   3.360   5.767   2.205  0.7548  1.9926 -1.2297
 7775TIP3   OH244739   0.843   4.309   0.970 -0.1334 -0.2085  0.1705
 7775TIP3    H144740   0.801   4.229   0.939 -0.7203  0.0016  0.4081
 7775TIP3    H244741   0.890   4.343   0.894  0.1513 -0.7935  0.0787
 7776TIP3   OH244742   5.915   0.770  14.128 -0.2464 -0.0415 -0.0043
 7776TIP3    H144743   5.972   0.769  14.052  1.0952  0.7383  0.9259
 7776TIP3    H244744   5.831   0.739  14.097  0.2053  0.4838 -1.8434
 7777TIP3   OH244745   2.006   6.281   0.169 -0.1306  0.8074 -0.7715
 7777TIP3    H144746   2.013   6.366   0.210  1.6005  0.9412 -1.2743
 7777TIP3    H244747   1.922   6.283   0.123 -0.8850  1.5898  0.5976
 7778TIP3   OH244748   1.075   2.030   5.919  0.2798  0.4797 -0.4167
 7778TIP3    H144749   1.147   1.970   5.936  0.3462  0.7973  0.4997
 7778TIP3    H244750   1.111   2.117   5.937  0.0088  0.7396 -1.1084
 7779TIP3   OH244751   1.798   2.962   4.208 -0.0160 -0.1859  0.2601
 7779TIP3    H144752   1.818   2.967   4.115 -0.5557 -0.9157  0.0939
 7779TIP3    H244753   1.803   2.869   4.229  1.5215  0.0923  1.3022
 7780TIP3   OH244754   5.857   1.218   3.048  0.4540  0.2751 -0.2949
 7780TIP3    H144755   5.945   1.219   3.010 -0.0329 -0.4275 -1.5086
 7780TIP3    H244756   5.864   1.273   3.126  1.5805  1.6170 -1.2712
 7781TIP3   OH244757   4.179   3.412  15.600  0.1310  0.5084  0.1685
 7781TIP3    H144758   4.094   3.455  15.608  0.4026  1.7992 -2.8263
 7781TIP3    H244759   4.243   3.483  15.610  0.6735  0.3687 -1.9604
 7782TIP3   OH244760   4.192   1.154  14.767 -0.1588  0.4974  0.0509
 7782TIP3    H144761   4.214   1.187  14.854  0.0379 -1.1302  0.6551
 7782TIP3    H244762   4.108   1.109  14.779  1.4280 -2.6873  0.2391
 7783TIP3   OH244763   1.937   5.584   0.840  0.0613  0.2311 -0.3979
 7783TIP3    H144764   1.849   5.578   0.878  0.5358  1.8456  1.0967
 7783TIP3    H244765   1.978   5.500   0.860 -0.3258  0.3727  1.1262
 7784TIP3   OH244766   4.584   4.391   4.090  0.1226  0.0017 -0.4581
 7784TIP3    H144767   4.570   4.426   4.178 -2.6754 -1.0062 -0.4037
 7784TIP3    H244768   4.610   4.467   4.038 -0.3200  1.0510  0.7831
 7785TIP3   OH244769   1.138   4.469   2.605 -0.1817 -0.0117  0.0702
 7785TIP3    H144770   1.080   4.397   2.581 -0.0986  0.2244 -0.9180
 7785TIP3    H244771   1.157   4.512   2.521  0.8124  0.3641  0.4775
 7786TIP3   OH244772   1.546   1.726  16.575 -0.5180 -0.1241 -0.4088
 7786TIP3    H144773   1.532   1.817  16.549 -0.9379 -0.2156 -0.5210
 7786TIP3    H244774   1.477   1.678  16.529  0.5234 -0.6913 -1.4382
 7787TIP3   OH244775   1.251   1.274   5.061 -0.0039  0.4944 -0.5504
 7787TIP3    H144776   1.156   1.275   5.044 -0.1859  2.9943  0.1688
 7787TIP3    H244777   1.258   1.282   5.156  0.8777  1.7208 -0.6870
 7788TIP3   OH244778   0.436   6.606  15.259  0.1653 -0.0374 -0.2325
 7788TIP3    H144779   0.480   6.611  15.174 -0.8505 -1.2906 -0.8711
 7788TIP3    H244780   0.444   6.514  15.285 -1.4896 -0.1635 -0.0782
 7789TIP3   OH244781   1.647   2.768   2.681 -0.5598 -0.1538  0.3585
 7789TIP3    H144782   1.637   2.762   2.586  2.0130 -0.3013  0.0157
 7789TIP3    H244783   1.707   2.697   2.704 -1.1105 -0.1167  2.1174
 7790TIP3   OH244784   2.001   0.121   0.653  0.4272 -0.1275  0.0076
 7790TIP3    H144785   2.007   0.202   0.602  1.6823 -0.3732 -0.2699
 7790TIP3    H244786   1.970   0.150   0.740  0.7313  0.6261 -0.1242
 7791TIP3   OH244787   5.973   1.492   4.500  0.3003  0.2880 -0.1155
 7791TIP3    H144788   5.920   1.571   4.493  0.3791  0.3123 -0.4849
 7791TIP3    H244789   5.909   1.421   4.494  0.3061  0.3169 -0.6296
 7792TIP3   OH244790   0.892   5.256  13.943 -0.0086  0.0149 -1.1826
 7792TIP3    H144791   0.867   5.289  14.030  0.2356 -0.9241 -0.7471
 7792TIP3    H244792   0.933   5.331  13.900 -1.4860  0.9425 -1.0669
 7793TIP3   OH244793   0.675   1.994  13.930  0.6097 -0.2980 -0.5704
 7793TIP3    H144794   0.711   1.977  13.843 -0.0190 -1.4027 -0.6331
 7793TIP3    H244795   0.580   1.992  13.917  0.5137  0.1406  0.0346
 7794TIP3   OH244796   0.193   1.759  11.843 -0.2131  0.0697  0.6441
 7794TIP3    H144797   0.227   1.676  11.876 -0.8278  0.0133  1.1783
 7794TIP3    H244798   0.270   1.810  11.822  0.1741 -0.7766 -0.0597
 7795TIP3   OH244799   5.140   1.519   3.628 -0.5380 -0.8865 -0.3523
 7795TIP3    H144800   5.171   1.517   3.719  0.9674  0.1251 -0.8000
 7795TIP3    H244801   5.061   1.465   3.628  0.4809 -2.4551  1.1573
 7796TIP3   OH244802   3.830   2.858   3.672 -0.8226 -0.2937 -0.5450
 7796TIP3    H144803   3.813   2.950   3.650 -0.6994 -0.8055 -3.0588
 7796TIP3    H244804   3.771   2.808   3.616 -0.5500 -1.7821  0.4369
 7797TIP3   OH244805   6.408   5.520   3.422 -0.0120  0.1970 -0.0420
 7797TIP3    H144806   6.448   5.456   3.364 -0.4157  0.0782 -0.1947
 7797TIP3    H244807   6.423   5.604   3.378 -3.6017 -0.1461 -2.3895
 7798TIP3   OH244808   6.682   6.639   1.952 -0.3412  0.0259 -0.0833
 7798TIP3    H144809   6.722   6.642   2.039 -0.7138 -0.5654  0.1144
 7798TIP3    H244810   6.735   6.699   1.900  0.0847  0.1447  0.4707
 7799TIP3   OH244811   3.355   1.934   5.390 -0.2435  0.0890  0.0970
 7799TIP3    H144812   3.293   1.871   5.428 -0.7381  0.0259 -0.7917
 7799TIP3    H244813   3.433   1.881   5.370  1.1763  0.6004  3.5301
 7800TIP3   OH244814   1.910   0.601  11.716  0.0428  0.0696 -0.0812
 7800TIP3    H144815   1.986   0.551  11.684  0.7056  1.0812 -0.1364
 7800TIP3    H244816   1.918   0.687  11.674  0.4143  1.1285  2.0195
 7801TIP3   OH244817   1.529   6.712   3.940 -0.1821 -0.4413 -0.5387
 7801TIP3    H144818   1.500   6.765   3.866 -0.1724  0.3412  0.0085
 7801TIP3    H244819   1.619   6.740   3.956 -0.9415  1.1394  1.2694
 7802TIP3   OH244820   0.376   0.443   1.562 -0.0062 -0.1589 -0.2354
 7802TIP3    H144821   0.361   0.528   1.521  0.7598  0.5878  0.9523
 7802TIP3    H244822   0.389   0.463   1.655  0.4762 -1.5463  0.0275
 7803TIP3   OH244823   3.412   3.076  12.221 -0.3113  0.2295  0.5925
 7803TIP3    H144824   3.354   3.019  12.171 -0.2314 -0.4966  1.3048
 7803TIP3    H244825   3.367   3.161  12.222 -1.5106 -0.3788  1.3488
 7804TIP3   OH244826   2.421   6.413  15.785 -0.0395  0.5127  0.2033
 7804TIP3    H144827   2.420   6.360  15.864 -0.4482 -0.9264 -0.7282
 7804TIP3    H244828   2.504   6.392  15.743 -0.9332 -0.7229 -1.0144
 7805TIP3   OH244829   0.705   1.727  11.816 -0.0813  0.1671 -0.1592
 7805TIP3    H144830   0.635   1.755  11.875  1.2394  2.2278  0.5554
 7805TIP3    H244831   0.690   1.778  11.736 -0.6584 -1.0575 -0.8475
 7806TIP3   OH244832   5.072   6.615   3.108  1.2197  0.2850 -0.5210
 7806TIP3    H144833   5.004   6.664   3.155  0.3510  0.1009 -1.5489
 7806TIP3    H244834   5.150   6.625   3.162  0.6743  1.5028  0.0833
 7807TIP3   OH244835   1.296   4.643  12.615 -0.4595 -0.4627 -0.5034
 7807TIP3    H144836   1.244   4.563  12.611 -1.1870  0.0157 -3.8505
 7807TIP3    H244837   1.232   4.714  12.612  0.2400  0.1629 -1.3427
 7808TIP3   OH244838   1.757   6.339   0.666  0.5038 -0.8184 -0.9224
 7808TIP3    H144839   1.776   6.247   0.686 -2.3032 -1.3148 -0.1610
 7808TIP3    H244840   1.776   6.348   0.572  2.1474 -1.7595 -0.7132
 7809TIP3   OH244841   1.592   6.563   3.261  0.0432  0.1281 -0.0391
 7809TIP3    H144842   1.637   6.486   3.227  0.0488  0.4756 -0.8206
 7809TIP3    H244843   1.628   6.575   3.349 -2.8068 -3.1748  1.8266
 7810TIP3   OH244844   6.580   5.022  12.413 -0.3121 -0.2072 -0.4336
 7810TIP3    H144845   6.575   5.117  12.400 -2.9730  0.0871  1.8763
 7810TIP3    H244846   6.515   4.986  12.354  0.1148 -0.5377 -0.7078
 7811TIP3   OH244847   2.257   3.826   0.273 -0.5288  0.0270  0.9375
 7811TIP3    H144848   2.300   3.910   0.289 -0.5029 -0.1737  1.9359
 7811TIP3    H244849   2.290   3.768   0.340  0.9227 -1.3653 -0.8885
 7812TIP3   OH244850   4.042   1.810  14.634 -0.1470 -0.2337 -0.0830
 7812TIP3    H144851   4.067   1.725  14.670 -0.2940 -0.6964 -1.0643
 7812TIP3    H244852   4.125   1.851  14.610  0.1753  0.9965  2.6716
 7813TIP3   OH244853   1.975   5.940  17.237  0.0677 -0.4563  0.2326
 7813TIP3    H144854   2.031   5.951  17.160  1.6858 -2.9151  0.9308
 7813TIP3    H244855   1.994   6.015  17.292  0.2958  0.3585 -0.9271
 7814TIP3   OH244856   5.448   1.833   1.796  0.0896  0.0048  0.2273
 7814TIP3    H144857   5.479   1.781   1.871  2.2494  0.7863 -0.0608
 7814TIP3    H244858   5.510   1.813   1.726 -2.3014 -1.2787 -1.6745
 7815TIP3   OH244859   0.399   1.240  12.232 -0.7756  0.1539 -0.5301
 7815TIP3    H144860   0.380   1.153  12.197  0.0984 -1.0690  1.8095
 7815TIP3    H244861   0.325   1.259  12.290  0.3012 -0.3134  1.0755
 7816TIP3   OH244862   2.640   4.174   0.346  0.2230 -0.1537 -0.7059
 7816TIP3    H144863   2.681   4.250   0.305  0.0478  0.2288 -0.1764
 7816TIP3    H244864   2.703   4.144   0.411 -0.4178  0.5724  0.2640
 7817TIP3   OH244865   6.503   0.398  17.429  0.3774 -0.0481 -0.1555
 7817TIP3    H144866   6.415   0.361  17.422 -0.4159  1.6960  0.0227
 7817TIP3    H244867   6.562   0.323  17.428 -1.0527 -1.1856 -1.3212
 7818TIP3   OH244868   4.762   2.165   4.683 -0.5328 -0.4027 -0.3545
 7818TIP3    H144869   4.740   2.102   4.614 -2.1273 -0.0664 -0.1894
 7818TIP3    H244870   4.678   2.201   4.710  0.1849  0.3832  0.9147
 7819TIP3   OH244871   6.091   4.511   0.266 -0.1251  0.0789 -0.2294
 7819TIP3    H144872   6.037   4.503   0.187  0.6977  1.3485 -0.9511
 7819TIP3    H244873   6.028   4.533   0.335 -0.7906 -0.5476 -0.6212
 7820TIP3   OH244874   6.318   4.265  12.300 -0.2280  0.1950 -0.0728
 7820TIP3    H144875   6.327   4.268  12.204  0.5838  1.3041  0.0233
 7820TIP3    H244876   6.408   4.252  12.331 -0.5608 -0.7455  0.5373
 7821TIP3   OH244877   4.843   2.070   0.146  0.5598  0.5366 -0.7311
 7821TIP3    H144878   4.864   2.080   0.053  0.0319 -1.2667 -1.0963
 7821TIP3    H244879   4.775   2.135   0.162  1.1053  1.2987 -1.4467
 7822TIP3   OH244880   0.122   0.629  11.557 -0.4848 -0.1239 -0.3703
 7822TIP3    H144881   0.113   0.697  11.490 -0.0875 -0.2132 -0.5218
 7822TIP3    H244882   0.153   0.552  11.509 -0.9627 -0.4213 -0.2050
 7823TIP3   OH244883   6.369   2.682   5.334  0.0434  0.2531 -0.5438
 7823TIP3    H144884   6.443   2.742   5.346 -0.6260  1.8201 -3.1663
 7823TIP3    H244885   6.402   2.597   5.362  1.2454  1.6583  2.8015
 7824TIP3   OH244886   6.052   2.893   2.612  0.0521 -0.0552  0.4035
 7824TIP3    H144887   6.064   2.894   2.517 -0.1714  0.5217  0.3809
 7824TIP3    H244888   6.066   2.984   2.639 -1.2647  0.0607  0.7540
 7825TIP3   OH244889   0.248   0.854   5.295 -0.2301 -0.0214 -0.5025
 7825TIP3    H144890   0.298   0.934   5.311 -2.4150  1.6537 -1.5253
 7825TIP3    H244891   0.314   0.788   5.274  1.5389  2.0860 -1.9752
 7826TIP3   OH244892   3.714   1.195  14.205 -0.0819 -0.3484 -0.1292
 7826TIP3    H144893   3.663   1.142  14.265  0.6023 -0.5517  0.2832
 7826TIP3    H244894   3.657   1.269  14.183 -1.9155 -2.3088 -2.4266
 7827TIP3   OH244895   5.210   0.472  15.311 -0.2129 -0.3245  0.2417
 7827TIP3    H144896   5.190   0.379  15.318  0.9800 -0.7172 -1.1516
 7827TIP3    H244897   5.193   0.506  15.399 -1.6627 -1.6261  0.5235
 7828TIP3   OH244898   3.839   4.598   5.752  0.1926  0.0465 -0.5185
 7828TIP3    H144899   3.784   4.653   5.696 -1.1137  0.2911  0.9415
 7828TIP3    H244900   3.901   4.658   5.793 -1.0039  0.4175  0.8030
 7829TIP3   OH244901   0.985   3.711   2.295 -0.5467  0.0485 -0.5329
 7829TIP3    H144902   0.965   3.718   2.202 -1.6494 -0.4376 -0.3530
 7829TIP3    H244903   1.055   3.773   2.310  0.5322 -0.7766 -1.9395
 7830TIP3   OH244904   3.667   3.094  14.400  0.5181  1.0781  0.2008
 7830TIP3    H144905   3.674   3.063  14.490  0.2267  1.8572  0.4972
 7830TIP3    H244906   3.749   3.142  14.384  1.5322 -0.8246 -0.6666
 7831TIP3   OH244907   5.696   0.636   0.490 -0.5267 -0.0226 -0.2622
 7831TIP3    H144908   5.605   0.655   0.470 -0.4299 -0.0152 -0.7099
 7831TIP3    H244909   5.745   0.707   0.449 -0.4098  0.7534  1.1849
 7832TIP3   OH244910   0.917   1.322  17.520 -0.4288  0.0671  0.2275
 7832TIP3    H144911   0.985   1.317  17.452  0.8114  0.4106  1.3882
 7832TIP3    H244912   0.927   1.240  17.569 -0.7706  0.1793  0.4831
 7833TIP3   OH244913   2.468   1.157   1.458  0.1690  0.0213 -0.0968
 7833TIP3    H144914   2.498   1.195   1.375 -0.8797 -0.3829 -0.6749
 7833TIP3    H244915   2.455   1.064   1.438 -0.3190 -0.0326  0.4516
 7834TIP3   OH244916   4.914   3.487  13.441  0.5421 -0.2355 -0.7307
 7834TIP3    H144917   4.888   3.407  13.397  1.3818 -1.7281  1.3054
 7834TIP3    H244918   4.966   3.457  13.516 -0.7801  2.0861  1.2644
 7835TIP3   OH244919   6.165   2.910   1.312 -0.1669 -0.1525  0.0665
 7835TIP3    H144920   6.118   2.976   1.261 -1.0921  1.1153  2.4020
 7835TIP3    H244921   6.205   2.853   1.247 -0.9901  1.5534 -2.0396
 7836TIP3   OH244922   3.727   3.437   4.628 -0.3896 -0.4553  0.2327
 7836TIP3    H144923   3.717   3.445   4.533 -1.4431  1.5745  0.4734
 7836TIP3    H244924   3.785   3.362   4.639  0.0865 -0.4909 -2.0181
 7837TIP3   OH244925   5.417   0.208  15.602  0.8302 -0.1649  0.1031
 7837TIP3    H144926   5.347   0.243  15.658 -0.6823 -1.1377 -1.0682
 7837TIP3    H244927   5.409   0.113  15.611  1.3328 -0.3098 -0.8396
 7838TIP3   OH244928   0.725   2.438   2.836 -0.1960  0.2455  0.3950
 7838TIP3    H144929   0.793   2.458   2.771 -0.1529 -2.7331 -0.6304
 7838TIP3    H244930   0.656   2.394   2.786 -0.5632 -1.3576  2.2020
 7839TIP3   OH244931   5.532   1.054  11.294 -0.2167  0.3259  0.1811
 7839TIP3    H144932   5.582   0.991  11.243 -1.0435 -1.2265  1.2066
 7839TIP3    H244933   5.586   1.133  11.294  2.0674 -1.1229  0.8735
 7840TIP3   OH244934   5.221   5.878  14.613 -0.2314  0.1249  0.0584
 7840TIP3    H144935   5.149   5.856  14.554  1.5372 -1.5760 -1.6019
 7840TIP3    H244936   5.234   5.800  14.667  0.7708  0.1600 -0.1121
 7841TIP3   OH244937   0.870   1.177   1.041 -0.1886 -0.0421 -0.6866
 7841TIP3    H144938   0.917   1.125   0.975 -0.5877 -0.2067 -0.8446
 7841TIP3    H244939   0.817   1.113   1.088  1.1645 -0.1504  0.7624
 7842TIP3   OH244940   0.569   1.458   2.275  0.0319  0.0748 -0.4374
 7842TIP3    H144941   0.658   1.451   2.240 -0.4855 -3.2616 -1.3867
 7842TIP3    H244942   0.579   1.433   2.367  0.0463 -0.7349 -0.6507
 7843TIP3   OH244943   4.036   3.076  17.337  0.0251  0.5951 -0.0666
 7843TIP3    H144944   4.062   3.040  17.252  2.9701  0.9190  0.6195
 7843TIP3    H244945   4.011   2.999  17.388  3.1885 -0.2979  0.3432
 7844TIP3   OH244946   6.283   0.671  16.918  0.3958 -0.4942  0.1412
 7844TIP3    H144947   6.194   0.703  16.934  0.5542 -0.4805  1.0406
 7844TIP3    H244948   6.294   0.677  16.823  0.0177  1.0586  0.1713
 7845TIP3   OH244949   4.985   1.232   0.044 -0.4044  0.1725 -0.3235
 7845TIP3    H144950   5.004   1.232   0.138  0.9705  0.2823 -0.5738
 7845TIP3    H244951   4.987   1.324   0.020 -4.0641  0.5069  0.0905
 7846TIP3   OH244952   5.837   5.308  16.481  0.0426 -0.6461 -0.3292
 7846TIP3    H144953   5.879   5.269  16.557  1.2089 -0.7297 -0.9864
 7846TIP3    H244954   5.876   5.395  16.475 -1.2747  0.0006  0.1227
 7847TIP3   OH244955   5.690   3.063   1.306  0.1504 -0.3715  0.9421
 7847TIP3    H144956   5.774   3.094   1.271 -0.7167  1.1829  0.1260
 7847TIP3    H244957   5.713   3.014   1.384  1.8248  0.0845  0.7693
 7848TIP3   OH244958   5.662   0.818  10.885 -0.0690 -0.4491  0.3441
 7848TIP3    H144959   5.751   0.787  10.901 -0.0888 -0.1924  0.9935
 7848TIP3    H244960   5.625   0.752  10.826  0.3128 -0.9672  0.6620
 7849TIP3   OH244961   5.658   3.822   4.642 -0.4377  0.1444  0.0714
 7849TIP3    H144962   5.712   3.822   4.721  0.0151 -0.7355 -0.2241
 7849TIP3    H244963   5.715   3.787   4.574 -0.9157  0.6188 -0.5874
 7850TIP3   OH244964   0.154   3.455  13.372  0.0147 -0.2913  0.1013
 7850TIP3    H144965   0.111   3.536  13.343  0.5472 -0.5963 -1.6356
 7850TIP3    H244966   0.129   3.447  13.465 -1.4319  0.9594 -0.1323
 7851TIP3   OH244967   1.712   2.732  11.884 -0.0543 -0.0836  0.2801
 7851TIP3    H144968   1.787   2.723  11.825 -0.6738 -1.1457 -0.3798
 7851TIP3    H244969   1.702   2.826  11.896  2.5191  0.0969  1.8873
 7852TIP3   OH244970   5.799   0.130  11.292 -0.3547  0.5960  0.3162
 7852TIP3    H144971   5.706   0.114  11.274 -0.8240  0.2606  2.7073
 7852TIP3    H244972   5.800   0.213  11.340  0.2905 -0.4549  2.2172
 7853TIP3   OH244973   5.688   5.236  13.538 -0.2233  0.1316 -0.0937
 7853TIP3    H144974   5.744   5.171  13.578 -0.9470 -0.4148  0.0543
 7853TIP3    H244975   5.648   5.191  13.463 -0.5014  0.4945 -0.1703
 7854TIP3   OH244976   1.591   3.539   0.452 -0.5800 -0.4764 -0.3184
 7854TIP3    H144977   1.542   3.540   0.369 -0.6161  3.3376 -0.4017
 7854TIP3    H244978   1.659   3.605   0.440  0.9657 -1.5680  1.8887
 7855TIP3   OH244979   6.168   5.033   3.494 -0.5107  0.7477 -0.1724
 7855TIP3    H144980   6.250   4.986   3.509 -0.0467  1.4084 -0.5776
 7855TIP3    H244981   6.111   5.005   3.565  0.6854  1.6761  1.2023
 7856TIP3   OH244982   6.383   4.476   1.849 -0.1917 -0.6281 -0.3977
 7856TIP3    H144983   6.448   4.506   1.912  0.6140 -1.2290 -0.9263
 7856TIP3    H244984   6.421   4.496   1.763 -0.6945 -0.9872 -0.7111
 7857TIP3   OH244985   4.564   4.325  11.366  0.4230 -0.2025 -0.1168
 7857TIP3    H144986   4.608   4.329  11.281 -1.3005  1.0116 -1.0153
 7857TIP3    H244987   4.528   4.237  11.370 -0.4704  0.0846 -1.2101
 7858TIP3   OH244988   5.451   3.478   5.314  0.6834 -0.4995 -0.4004
 7858TIP3    H144989   5.370   3.431   5.295 -0.2092  0.4332  0.8767
 7858TIP3    H244990   5.517   3.409   5.324 -0.9794 -1.8120  3.4428
 7859TIP3   OH244991   4.517   1.928  13.845 -0.1983 -0.3496  0.2156
 7859TIP3    H144992   4.562   2.005  13.879  1.0388 -1.1968  0.5588
 7859TIP3    H244993   4.537   1.927  13.751 -1.6854  0.6936 -0.1541
 7860TIP3   OH244994   2.427   2.577   4.754  0.2393  0.3729  0.0897
 7860TIP3    H144995   2.399   2.570   4.663 -0.1374 -1.7395  0.3263
 7860TIP3    H244996   2.353   2.619   4.798 -0.6853 -0.9332 -0.1438
 7861TIP3   OH244997   1.292   3.875  14.424  0.5321  0.2101 -0.6891
 7861TIP3    H144998   1.251   3.831  14.499  0.7525 -0.4829 -0.9653
 7861TIP3    H244999   1.251   3.835  14.348  1.2241 -0.0097 -0.9591
 7862TIP3   OH245000   4.513   6.538  13.002 -0.1122  0.7088 -0.1945
 7862TIP3    H145001   4.558   6.606  12.950  0.4510 -0.7740 -1.7488
 7862TIP3    H245002   4.425   6.573  13.017  0.5038  2.2458  0.0227
 7863TIP3   OH245003   1.115   2.885  16.285 -0.0527  0.2650 -0.0764
 7863TIP3    H145004   1.067   2.921  16.210 -0.9291  2.5723  1.4690
 7863TIP3    H245005   1.076   2.800  16.301  0.3633 -0.4338 -2.3695
 7864TIP3   OH245006   5.385   0.326  12.200  0.3361 -1.1841 -0.2346
 7864TIP3    H145007   5.439   0.248  12.189 -0.6469 -1.9443  0.2345
 7864TIP3    H245008   5.334   0.332  12.119  0.8629 -0.6447 -0.5420
 7865TIP3   OH245009   2.703   5.539   6.975 -0.0003  0.6152  0.1272
 7865TIP3    H145010   2.758   5.493   7.039 -0.4803 -1.9192 -1.1498
 7865TIP3    H245011   2.620   5.554   7.021 -0.1863 -0.7898  0.3072
 7866TIP3   OH245012   4.452   4.076  11.025 -0.1536  0.1709  0.0111
 7866TIP3    H145013   4.458   4.006  10.960  0.7757  2.5894 -2.7273
 7866TIP3    H245014   4.537   4.076  11.069 -0.5488 -1.0415  0.8321
 7867TIP3   OH245015   2.870   2.440  12.852  0.2627  0.2962 -0.0619
 7867TIP3    H145016   2.886   2.388  12.773  1.0371 -1.2665  1.0628
 7867TIP3    H245017   2.878   2.377  12.924  1.2149  1.9640  1.3821
 7868TIP3   OH245018   2.400   5.674   3.048  0.0937  0.0680  0.0939
 7868TIP3    H145019   2.449   5.618   3.108 -0.6313 -0.9699 -0.2377
 7868TIP3    H245020   2.465   5.706   2.985  0.4392 -0.8792 -0.0453
 7869TIP3   OH245021   2.635   1.495   4.275  0.0426 -0.0084  0.7911
 7869TIP3    H145022   2.708   1.451   4.233  0.1044 -0.7783  1.6652
 7869TIP3    H245023   2.651   1.588   4.260  0.8040 -0.2041  0.3441
 7870TIP3   OH245024   4.176   1.363  13.944 -0.0334 -0.0485 -0.4419
 7870TIP3    H145025   4.095   1.312  13.943 -1.2370  1.6853  1.1507
 7870TIP3    H245026   4.152   1.447  13.905  0.8937  0.6205  0.3656
 7871TIP3   OH245027   5.183   1.981  15.850 -0.5026  0.2482  0.0194
 7871TIP3    H145028   5.251   2.037  15.812  0.4295  0.7599  2.2941
 7871TIP3    H245029   5.208   1.892  15.823  0.0323  0.5934 -0.6707
 7872TIP3   OH245030   4.823   3.958  16.301  0.1655  0.1197  0.2023
 7872TIP3    H145031   4.884   3.936  16.371 -0.2540  0.2062  0.5992
 7872TIP3    H245032   4.771   3.878  16.289 -0.2241  0.3288  0.4743
 7873TIP3   OH245033   3.153   6.552  16.982  0.4380  0.3385  0.0606
 7873TIP3    H145034   3.176   6.558  17.075  0.9339  1.6759 -0.1251
 7873TIP3    H245035   3.133   6.459  16.968  3.5123 -0.5575  0.7992
 7874TIP3   OH245036   6.350   6.377  15.553 -0.0824  0.2847  0.2169
 7874TIP3    H145037   6.377   6.447  15.494 -1.7786  1.2234  0.5052
 7874TIP3    H245038   6.317   6.308  15.495  0.0368  0.4167 -0.0075
 7875TIP3   OH245039   6.675   0.859   3.718 -0.2729  0.9868  0.1270
 7875TIP3    H145040   6.713   0.926   3.774 -0.2844 -0.1142  1.4934
 7875TIP3    H245041   6.709   0.776   3.752 -2.8531  0.0381  0.6205
 7876TIP3   OH245042   3.245   1.253   5.714 -0.1844  0.7210 -0.1365
 7876TIP3    H145043   3.225   1.318   5.647 -0.6110 -0.0404 -0.7605
 7876TIP3    H245044   3.321   1.289   5.761 -0.4108  1.6543 -0.4735
 7877TIP3   OH245045   0.880   4.873  11.496  0.7234 -0.1252 -0.1019
 7877TIP3    H145046   0.908   4.782  11.485 -0.8404 -0.5731 -0.7678
 7877TIP3    H245047   0.937   4.908  11.565  2.7830 -0.9422 -1.3048
 7878TIP3   OH245048   1.150   5.308  16.335 -0.4307 -0.0695 -0.6372
 7878TIP3    H145049   1.054   5.303  16.343 -0.4780  0.3484 -0.9391
 7878TIP3    H245050   1.171   5.398  16.360 -0.1347 -0.1054 -0.7590
 7879TIP3   OH245051   1.413   4.221   5.355  0.1435  0.1660 -0.0320
 7879TIP3    H145052   1.393   4.198   5.445  1.1096 -1.2664 -0.1429
 7879TIP3    H245053   1.341   4.186   5.304  0.0059  0.2537  0.1011
 7880TIP3   OH245054   1.397   5.122  14.778  0.1738  0.4937 -0.3455
 7880TIP3    H145055   1.398   5.175  14.698  0.5763  2.1993  0.7370
 7880TIP3    H245056   1.317   5.147  14.823  0.2833  0.0418  0.1137
 7881TIP3   OH245057   0.236   2.065  14.936 -0.1861 -0.1208  0.4296
 7881TIP3    H145058   0.315   2.103  14.899  1.1020 -2.2218  0.8622
 7881TIP3    H245059   0.265   2.024  15.018 -1.4495 -1.9069  0.0609
 7882TIP3   OH245060   4.215   2.487   3.203  0.2860 -0.1245  0.3893
 7882TIP3    H145061   4.188   2.578   3.188 -0.9784 -0.3220  1.3261
 7882TIP3    H245062   4.139   2.435   3.175  0.3571 -0.8063  1.4305
 7883TIP3   OH245063   4.681   0.878   0.684  0.2717 -0.3718 -0.0840
 7883TIP3    H145064   4.715   0.961   0.716  1.5384 -0.3064 -1.5100
 7883TIP3    H245065   4.689   0.883   0.589 -1.2575 -1.4560 -0.3064
 7884TIP3   OH245066   5.382   4.923  13.260  0.4388  0.6413  0.1479
 7884TIP3    H145067   5.421   4.838  13.279 -3.0131 -1.0938  0.2529
 7884TIP3    H245068   5.407   4.941  13.169  1.3490 -0.4028  0.1758
 7885TIP3   OH245069   4.571   3.416  11.145 -0.1753 -0.4345 -0.1352
 7885TIP3    H145070   4.557   3.327  11.112  0.1601 -0.2343 -0.8423
 7885TIP3    H245071   4.621   3.404  11.225  1.3889 -0.8160 -1.1271
 7886TIP3   OH245072   1.296   4.351  17.344  0.0151 -0.1439 -0.2923
 7886TIP3    H145073   1.376   4.309  17.376 -0.5909 -0.8313  0.3556
 7886TIP3    H245074   1.276   4.417  17.410  0.7981  1.0103 -1.1592
 7887TIP3   OH245075   3.240   6.342  16.061  0.0560  0.4139  0.2819
 7887TIP3    H145076   3.330   6.348  16.093  1.1639 -3.3855 -1.4753
 7887TIP3    H245077   3.194   6.292  16.128  0.1609 -0.3279 -0.1764
 7888TIP3   OH245078   5.475   3.870   4.374  0.3468  0.4058  0.4141
 7888TIP3    H145079   5.458   3.815   4.451 -0.4784  0.8768  0.5818
 7888TIP3    H245080   5.432   3.953   4.394  2.1758  1.3840  0.4682
 7889TIP3   OH245081   0.865   3.547   0.131 -0.0475  0.3329 -0.0468
 7889TIP3    H145082   0.826   3.496   0.203 -0.3406 -0.3568 -0.6800
 7889TIP3    H245083   0.929   3.604   0.174 -1.2660  1.0038  0.9370
 7890TIP3   OH245084   2.528   2.827  16.093 -0.5692  0.4019  0.6334
 7890TIP3    H145085   2.616   2.853  16.068 -0.4939  0.6101  1.0966
 7890TIP3    H245086   2.494   2.779  16.017 -0.1605  0.5586  0.3481
 7891TIP3   OH245087   6.096   0.573   0.082  0.1120  0.0367  0.1258
 7891TIP3    H145088   6.155   0.633   0.037 -0.2382  0.3622  0.0922
 7891TIP3    H245089   6.112   0.589   0.175  0.9990 -0.8000  0.1238
 7892TIP3   OH245090   2.365   2.054  12.070 -0.2036 -0.1113 -0.2627
 7892TIP3    H145091   2.351   2.076  11.978  1.5807 -1.6177 -0.9440
 7892TIP3    H245092   2.409   1.969  12.069 -0.0353 -0.1247  1.9923
 7893TIP3   OH245093   0.433   0.112   0.070  0.4642 -0.4605  0.5925
 7893TIP3    H145094   0.353   0.060   0.067  0.8743 -1.0900  0.3651
 7893TIP3    H245095   0.503   0.049   0.052  0.8273  0.4897 -1.6914
 7894TIP3   OH245096   4.020   2.513   4.479  0.3940  0.4005  0.1684
 7894TIP3    H145097   3.975   2.429   4.487 -0.2799  0.5745 -1.4811
 7894TIP3    H245098   4.017   2.550   4.567 -0.0246 -0.9188  0.7424
 7895TIP3   OH245099   4.984   3.630   3.838 -0.1232 -0.4861  0.3293
 7895TIP3    H145100   5.025   3.701   3.790 -0.1183  0.0178  1.0691
 7895TIP3    H245101   4.950   3.571   3.770 -0.5841  0.4766 -0.2890
 7896TIP3   OH245102   5.311   4.035   5.955 -0.4092 -0.1914  0.1987
 7896TIP3    H145103   5.322   4.074   5.868  0.5370 -0.4656  0.1870
 7896TIP3    H245104   5.223   3.998   5.953 -1.3029  1.8087  0.1680
 7897TIP3   OH245105   1.564   6.131  11.763 -0.2363 -0.0697  0.1995
 7897TIP3    H145106   1.574   6.114  11.857  0.6820 -1.1889 -0.0806
 7897TIP3    H245107   1.604   6.056  11.720 -0.8880  0.2958 -1.1052
 7898TIP3   OH245108   0.925   6.381   1.851 -0.1666  0.7359 -0.0212
 7898TIP3    H145109   0.863   6.454   1.855  0.2163  1.0465  0.3116
 7898TIP3    H245110   0.888   6.322   1.784  0.0371  1.7109 -1.0324
 7899TIP3   OH245111   1.664   6.506   1.037  0.5629  0.4414 -0.0592
 7899TIP3    H145112   1.596   6.444   1.010  0.5718 -0.0832  1.0518
 7899TIP3    H245113   1.714   6.523   0.957  0.2469 -0.6037 -0.4959
 7900TIP3   OH245114   0.118   1.431  14.373 -0.0439  0.3076 -0.3664
 7900TIP3    H145115   0.211   1.452  14.368 -0.0481  0.2387 -0.7819
 7900TIP3    H245116   0.084   1.490  14.441  0.6060 -0.8298  0.9969
 7901TIP3   OH245117   3.855   5.744   2.316  0.0315 -0.0879  0.6826
 7901TIP3    H145118   3.934   5.691   2.326 -0.8624 -1.6865 -0.3130
 7901TIP3    H245119   3.787   5.694   2.361 -0.8182  0.2849 -0.1476
 7902TIP3   OH245120   2.119   6.414  13.017 -0.0808  0.2713 -0.0132
 7902TIP3    H145121   2.082   6.487  13.068  3.1181  3.6395 -1.9950
 7902TIP3    H245122   2.196   6.452  12.974  0.6718 -3.8553 -2.8568
 7903TIP3   OH245123   4.765   5.296   2.487  0.1421 -0.3626  0.1988
 7903TIP3    H145124   4.790   5.384   2.460  0.7543 -0.0949  1.5526
 7903TIP3    H245125   4.697   5.308   2.553 -2.4208 -1.0503 -2.1249
 7904TIP3   OH245126   1.030   0.360  15.895 -0.5093  0.1403  0.3208
 7904TIP3    H145127   0.941   0.327  15.899 -0.9549  1.2892  0.1538
 7904TIP3    H245128   1.085   0.281  15.895 -1.5007 -0.5648  0.7152
 7905TIP3   OH245129   3.195   3.640  14.531 -0.1051  0.2157  0.6259
 7905TIP3    H145130   3.123   3.578  14.518  1.3228 -1.3875 -0.1936
 7905TIP3    H245131   3.269   3.585  14.558  0.6248  1.9000  2.2931
 7906TIP3   OH245132   4.506   6.178   3.857 -0.0806  0.2999  0.1418
 7906TIP3    H145133   4.443   6.112   3.887  0.7799 -0.6795 -0.1351
 7906TIP3    H245134   4.494   6.182   3.762  1.4478 -1.2258 -0.1765
 7907TIP3   OH245135   5.348   0.842   0.126 -0.2863 -0.4509 -0.4742
 7907TIP3    H145136   5.417   0.878   0.182 -0.6269 -1.3911  0.5765
 7907TIP3    H245137   5.390   0.830   0.041 -0.0151  1.9288 -0.7567
 7908TIP3   OH245138   3.235   0.356   6.607 -0.7467 -0.5041 -0.2798
 7908TIP3    H145139   3.310   0.341   6.549 -2.7468 -0.8779 -2.9440
 7908TIP3    H245140   3.193   0.271   6.614 -1.9165  0.0588 -0.3088
 7909TIP3   OH245141   4.140   6.526  11.033  0.3630 -0.3152  0.5409
 7909TIP3    H145142   4.129   6.479  10.950  0.0198 -1.8759  1.4250
 7909TIP3    H245143   4.066   6.497  11.087  0.7753  0.4018  1.5169
 7910TIP3   OH245144   2.545   5.260  13.048 -0.4550  0.1075 -0.4833
 7910TIP3    H145145   2.520   5.275  13.139 -0.3304  0.8904 -0.5726
 7910TIP3    H245146   2.607   5.187  13.051  1.1783  1.4546  0.3127
 7911TIP3   OH245147   4.445   0.041  15.442  0.1518  0.6236 -0.6015
 7911TIP3    H145148   4.472   0.070  15.354 -0.1481  1.5874 -0.3900
 7911TIP3    H245149   4.392   0.113  15.475 -0.2445 -0.0012  0.1391
 7912TIP3   OH245150   3.627   2.583   5.277  0.0303  0.6697  0.1030
 7912TIP3    H145151   3.716   2.616   5.290 -0.0872  1.1867 -0.3748
 7912TIP3    H245152   3.629   2.495   5.314  0.3161  1.2306  1.5097
 7913TIP3   OH245153   6.612   4.763  17.560  0.2636  0.3562 -0.0292
 7913TIP3    H145154   6.598   4.668  17.561  0.4454  0.3229 -0.3918
 7913TIP3    H245155   6.675   4.777  17.490  0.5302  0.7085  0.2796
 7914TIP3   OH245156   6.009   1.692  16.132  0.0543  0.9021 -0.2066
 7914TIP3    H145157   5.968   1.777  16.114  1.7414  1.5448 -1.3076
 7914TIP3    H245158   6.079   1.685  16.066 -1.0733 -2.1111 -1.2666
 7915TIP3   OH245159   5.780   0.213  12.085 -0.3263 -0.5024 -0.4170
 7915TIP3    H145160   5.749   0.276  12.151 -0.6726 -2.1555  1.0581
 7915TIP3    H245161   5.774   0.261  12.002  0.1090  1.6509  0.7204
 7916TIP3   OH245162   6.685   1.976  14.984  0.8004  0.6904 -0.1725
 7916TIP3    H145163   6.630   1.993  15.060 -0.2220  3.2234 -1.3676
 7916TIP3    H245164   6.763   2.030  14.998  2.7496 -2.2016  1.0845
 7917TIP3   OH245165   0.568   5.814  12.768 -0.0637 -0.3817 -0.0935
 7917TIP3    H145166   0.635   5.823  12.836  0.7627  0.1587 -0.9576
 7917TIP3    H245167   0.605   5.860  12.692 -0.3489 -2.1700 -1.3628
 7918TIP3   OH245168   1.694   2.033   5.201 -0.2481 -0.3247  0.2379
 7918TIP3    H145169   1.668   2.100   5.137 -1.6297 -2.4702 -1.6229
 7918TIP3    H245170   1.779   2.001   5.170 -1.0854 -1.6230 -0.8698
 7919TIP3   OH245171   2.162   3.972  14.970  0.6890  0.2922 -0.0981
 7919TIP3    H145172   2.146   4.067  14.976 -1.8355 -0.0659  0.2001
 7919TIP3    H245173   2.240   3.964  14.914  0.1640  2.5157 -1.2943
 7920TIP3   OH245174   0.860   3.031  11.366 -0.1847  0.0972  0.4658
 7920TIP3    H145175   0.782   3.051  11.314 -0.7088  0.6472  1.4275
 7920TIP3    H245176   0.926   3.094  11.336  0.2858 -1.0901 -1.1403
 7921TIP3   OH245177   4.914   3.051  15.282 -0.1527  0.3093  0.4683
 7921TIP3    H145178   4.887   2.960  15.271 -0.5950  0.4060  0.7443
 7921TIP3    H245179   4.833   3.101  15.278 -0.0604  0.5810  1.5100
 7922TIP3   OH245180   1.970   4.248  12.623 -0.2570 -0.2064  0.7753
 7922TIP3    H145181   1.988   4.184  12.691  1.4056 -0.5309  0.0901
 7922TIP3    H245182   1.880   4.231  12.596 -0.8456 -0.2578  2.6595
 7923TIP3   OH245183   6.279   5.765  16.468  0.1675 -0.0941 -0.1384
 7923TIP3    H145184   6.353   5.712  16.439 -0.2017 -0.2183 -0.8616
 7923TIP3    H245185   6.203   5.728  16.423 -0.7315 -1.4093  2.2456
 7924TIP3   OH245186   4.493   0.043  11.858 -0.3607  0.5247 -0.4006
 7924TIP3    H145187   4.436  -0.033  11.856 -1.5286  1.3803 -1.3801
 7924TIP3    H245188   4.533   0.041  11.945  0.9657 -2.1213 -0.9606
 7925TIP3   OH245189   4.757   1.158   4.512  0.6693  0.3357  0.5427
 7925TIP3    H145190   4.772   1.090   4.578  2.4127 -0.1433 -0.2840
 7925TIP3    H245191   4.675   1.198   4.538 -0.6875 -2.3781  0.8315
 7926TIP3   OH245192   6.174   3.530  12.581 -0.1575 -0.7483 -0.1418
 7926TIP3    H145193   6.237   3.476  12.534  0.0066 -0.0726 -0.7231
 7926TIP3    H245194   6.203   3.528  12.672 -0.8735 -2.6414  0.0857
 7927TIP3   OH245195   1.323   5.542  10.936  0.3573  0.2982  0.0107
 7927TIP3    H145196   1.372   5.515  11.014 -0.6799 -0.6758  0.3492
 7927TIP3    H245197   1.249   5.592  10.970 -1.4300 -2.0785 -0.0954
 7928TIP3   OH245198   0.362   6.214  13.118  0.2223  0.4370 -0.0282
 7928TIP3    H145199   0.445   6.169  13.103  1.1587  2.4143 -1.2679
 7928TIP3    H245200   0.296   6.157  13.079  1.1603 -0.5580 -0.2089
 7929TIP3   OH245201   3.445   0.052   1.926 -0.5809 -0.5723 -0.1545
 7929TIP3    H145202   3.379   0.107   1.883  0.2378 -0.0645 -0.8004
 7929TIP3    H245203   3.471   0.102   2.003 -1.2460 -0.9676  0.3326
 7930TIP3   OH245204   2.874   1.156   1.175 -0.7546 -0.0758 -0.5199
 7930TIP3    H145205   2.909   1.075   1.138 -0.0595 -0.1286  0.2449
 7930TIP3    H245206   2.910   1.225   1.119 -0.2387 -0.2003 -0.3442
 7931TIP3   OH245207   4.045   2.953  10.698  0.3047  0.2186 -0.0586
 7931TIP3    H145208   4.022   2.906  10.618  0.3829  0.1974 -0.0691
 7931TIP3    H245209   4.082   2.886  10.756 -2.7050 -0.4361  1.2699
 7932TIP3   OH245210   5.868   6.567  17.132 -0.3028 -0.2375  0.3558
 7932TIP3    H145211   5.959   6.591  17.114  0.0881 -1.8609 -0.0031
 7932TIP3    H245212   5.870   6.530  17.220 -0.8076  0.6254  0.7372
 7933TIP3   OH245213   6.200   0.032   4.205 -0.1737 -0.0353 -0.6666
 7933TIP3    H145214   6.291   0.007   4.222  0.0418  0.8634 -0.4760
 7933TIP3    H245215   6.153   0.006   4.285 -0.1804 -0.9338 -0.9536
 7934TIP3   OH245216   2.757   1.685  14.266  0.4264 -0.0167 -0.2316
 7934TIP3    H145217   2.699   1.636  14.208  2.2707 -0.0463 -2.1718
 7934TIP3    H245218   2.803   1.618  14.315  2.3666 -0.3131 -2.3102
 7935TIP3   OH245219   5.246   0.893  13.286  0.0936  0.1612 -0.3756
 7935TIP3    H145220   5.182   0.945  13.238  0.1521  2.2620  1.6663
 7935TIP3    H245221   5.205   0.874  13.370  1.4192 -0.0734  0.2580
 7936TIP3   OH245222   4.615   2.685   2.701 -0.1514  0.4035 -0.2398
 7936TIP3    H145223   4.550   2.665   2.633 -0.6468  2.5652 -0.4860
 7936TIP3    H245224   4.610   2.612   2.762 -1.8536 -0.1450 -0.9819
 7937TIP3   OH245225   4.194   2.635  12.079 -0.1161 -0.2729 -0.2101
 7937TIP3    H145226   4.129   2.573  12.114  1.0208 -1.0120  0.6671
 7937TIP3    H245227   4.143   2.713  12.056 -1.2771 -0.7298  0.7214
 7938TIP3   OH245228   2.918   4.499   1.297 -0.1482 -0.1883  0.1389
 7938TIP3    H145229   2.969   4.440   1.242  0.4497  0.7418 -0.3233
 7938TIP3    H245230   2.830   4.498   1.257 -0.1612 -0.7870  0.1659
 7939TIP3   OH245231   4.796   5.696   0.406 -0.4549  0.6320  0.5772
 7939TIP3    H145232   4.886   5.722   0.389  0.4554 -1.7871  1.2804
 7939TIP3    H245233   4.767   5.657   0.323  0.2196 -1.2501  1.1724
 7940TIP3   OH245234   4.529   1.923  17.444 -0.0247 -0.1552 -0.2749
 7940TIP3    H145235   4.530   1.922  17.540  1.2101 -0.1647 -0.2688
 7940TIP3    H245236   4.464   1.989  17.421  1.6664  1.9149  0.6018
 7941TIP3   OH245237   4.994   3.359   5.675 -0.3347  0.7818 -0.7443
 7941TIP3    H145238   5.079   3.381   5.638  0.2845  0.2028  0.2824
 7941TIP3    H245239   5.014   3.301   5.748 -1.8179 -2.3620 -2.6492
 7942TIP3   OH245240   6.638   6.240  11.875  0.4908  0.5994 -0.1919
 7942TIP3    H145241   6.653   6.233  11.970  0.5198  0.6655 -0.1914
 7942TIP3    H245242   6.648   6.334  11.857 -0.6199  0.7518 -0.0745
 7943TIP3   OH245243   3.792   4.917   3.392  0.7802 -0.3276 -0.3223
 7943TIP3    H145244   3.842   4.920   3.474  0.2213 -0.2148  0.0242
 7943TIP3    H245245   3.704   4.888   3.419  1.0313 -1.9448 -1.1033
 7944TIP3   OH245246   1.775   5.939   3.282  0.6001 -0.1885 -0.9431
 7944TIP3    H145247   1.700   5.968   3.230 -0.2211 -1.4910 -0.5215
 7944TIP3    H245248   1.738   5.920   3.369  1.6633  0.4266 -0.3385
 7945TIP3   OH245249   4.391   4.398  15.730 -0.0375  0.0623 -0.7082
 7945TIP3    H145250   4.362   4.312  15.761 -1.5342  1.0104  0.6598
 7945TIP3    H245251   4.354   4.460  15.792  0.6527  1.7465 -1.9006
 7946TIP3   OH245252   5.688   1.159  14.859  0.5008 -0.3354  0.2949
 7946TIP3    H145253   5.723   1.199  14.939 -0.9589 -0.6485  1.1260
 7946TIP3    H245254   5.691   1.065  14.877 -0.1755 -0.3887  0.1396
 7947TIP3   OH245255   0.153   0.191  11.495  0.3118  0.0550 -0.6568
 7947TIP3    H145256   0.091   0.254  11.531 -0.2188 -0.6841 -0.2509
 7947TIP3    H245257   0.161   0.216  11.403  1.3067  1.6656 -0.1816
 7948TIP3   OH245258   1.363   2.843  11.234 -0.0720  0.0637  0.4430
 7948TIP3    H145259   1.298   2.910  11.214 -0.7164 -0.2630  1.3713
 7948TIP3    H245260   1.434   2.890  11.277  0.2935  0.4160 -0.5376
 7949TIP3   OH245261   2.234   2.764  14.842 -0.0045 -0.1686 -0.4537
 7949TIP3    H145262   2.261   2.682  14.883 -0.5650  0.2102  0.7293
 7949TIP3    H245263   2.300   2.781  14.775  0.8560 -0.9061  0.1857
 7950TIP3   OH245264   3.553   2.614  15.243  0.3774  0.4541  0.0166
 7950TIP3    H145265   3.508   2.616  15.327  1.4855  0.5987  0.6251
 7950TIP3    H245266   3.494   2.660  15.183 -0.2391  0.7091  0.7990
 7951TIP3   OH245267   2.568   0.482  14.011  0.2211  0.6117  0.5999
 7951TIP3    H145268   2.579   0.564  14.058  0.0544  0.8341  0.2523
 7951TIP3    H245269   2.623   0.419  14.059 -0.6910  0.5998  1.6655
 7952TIP3   OH245270   3.203   5.154   1.217 -0.2564  0.0833  0.0639
 7952TIP3    H145271   3.204   5.075   1.163 -2.6401  0.2760 -0.3839
 7952TIP3    H245272   3.164   5.221   1.160 -0.6736  0.8946  1.2699
 7953TIP3   OH245273   0.105   6.421   5.621 -0.0546 -0.6695 -0.3413
 7953TIP3    H145274   0.124   6.390   5.710 -1.0707  1.0255  0.5225
 7953TIP3    H245275   0.029   6.479   5.632  0.3796  0.3135 -2.1833
 7954TIP3   OH245276   1.384   4.350   4.974  0.4917 -0.2356  0.0623
 7954TIP3    H145277   1.479   4.348   4.986  1.0769 -0.8458 -3.5223
 7954TIP3    H245278   1.360   4.259   4.958 -1.0773 -0.3619  2.6091
 7955TIP3   OH245279   5.643   1.566   2.357 -0.3539  0.5431  0.1750
 7955TIP3    H145280   5.670   1.572   2.449  1.5655  0.7913 -0.3710
 7955TIP3    H245281   5.553   1.532   2.361 -0.8483  1.8791  2.1859
 7956TIP3   OH245282   5.901   0.254   5.223 -0.0607 -0.6113 -0.1135
 7956TIP3    H145283   5.888   0.172   5.271  0.3550  0.0825  1.2413
 7956TIP3    H245284   5.813   0.281   5.195 -0.5511 -0.2129  1.6981
 7957TIP3   OH245285   3.406   0.136  11.538 -0.1044 -0.0074  0.0387
 7957TIP3    H145286   3.383   0.047  11.514 -0.8605  0.2440 -0.1808
 7957TIP3    H245287   3.359   0.192  11.476  0.9214  0.5281 -0.2779
 7958TIP3   OH245288   5.277   0.829  16.218 -0.1355  0.1951 -0.0961
 7958TIP3    H145289   5.355   0.859  16.266 -0.8105  0.2764  0.9814
 7958TIP3    H245290   5.258   0.899  16.156  0.1504  0.5592  0.2251
 7959TIP3   OH245291   0.073   2.785  14.717 -0.4694 -0.5217 -0.7900
 7959TIP3    H145292   0.159   2.775  14.757 -0.4127  1.2926 -0.3808
 7959TIP3    H245293   0.038   2.695  14.712  1.6320 -1.3538 -1.4770
 7960TIP3   OH245294   3.956   2.397   1.779  0.0785  0.0118 -0.0562
 7960TIP3    H145295   3.929   2.306   1.766  1.0441 -0.3253  0.1973
 7960TIP3    H245296   3.974   2.429   1.691 -1.5401  0.3940 -0.2816
 7961TIP3   OH245297   5.758   0.961  15.501 -0.7054  0.0921  0.1319
 7961TIP3    H145298   5.760   0.869  15.473 -0.3245 -0.5155  1.9981
 7961TIP3    H245299   5.674   0.994  15.469 -0.2543 -0.4447 -1.8024
 7962TIP3   OH245300   2.241   5.185   5.491  0.0665 -0.4089 -0.5393
 7962TIP3    H145301   2.159   5.142   5.466 -0.5144  0.8005 -0.7942
 7962TIP3    H245302   2.248   5.171   5.585 -1.3835  0.9788 -0.1711
 7963TIP3   OH245303   2.995   0.254   1.301  0.3138  0.4139 -0.9434
 7963TIP3    H145304   2.930   0.250   1.230 -1.7397  2.7666  0.5822
 7963TIP3    H245305   2.978   0.176   1.354  1.6529 -1.1936 -2.7835
 7964TIP3   OH245306   5.263   0.835   3.272 -0.1737 -0.2259 -0.4918
 7964TIP3    H145307   5.272   0.800   3.184  0.3696  1.0995 -0.9763
 7964TIP3    H245308   5.302   0.922   3.268  2.5918 -1.2109  1.7903
 7965TIP3   OH245309   3.287   4.250   1.920  0.1040 -0.1100  0.0928
 7965TIP3    H145310   3.365   4.282   1.876 -1.5208  1.0806 -2.1338
 7965TIP3    H245311   3.225   4.324   1.916 -1.5340 -1.3854  0.6531
 7966TIP3   OH245312   6.712   4.274   5.176 -0.2326 -0.2459 -0.0153
 7966TIP3    H145313   6.705   4.216   5.252 -3.0789  0.4848  0.3990
 7966TIP3    H245314   6.676   4.223   5.103  1.1952 -0.4455 -0.6138
 7967TIP3   OH245315   5.243   2.652   1.319 -0.5660 -0.1086  0.1809
 7967TIP3    H145316   5.237   2.684   1.229  1.7599  1.0232  0.3522
 7967TIP3    H245317   5.337   2.639   1.334 -1.0616 -2.7336  1.6514
 7968TIP3   OH245318   1.275   1.621  12.011  0.5358  0.4823 -0.3500
 7968TIP3    H145319   1.203   1.667  11.968  0.2001  0.1058 -0.1934
 7968TIP3    H245320   1.325   1.583  11.939 -0.7347 -1.2063 -0.3850
 7969TIP3   OH245321   6.187   3.873   0.221  0.0813  0.5791  0.3590
 7969TIP3    H145322   6.118   3.879   0.288 -1.7234  1.9753 -1.4824
 7969TIP3    H245323   6.204   3.780   0.212 -0.4762  0.2916  1.9134
 7970TIP3   OH245324   1.638   3.631  11.767  0.0499  0.1571 -0.3624
 7970TIP3    H145325   1.720   3.591  11.739  0.3626  0.7549 -0.3256
 7970TIP3    H245326   1.573   3.600  11.703  0.3904  0.0227 -0.6479
 7971TIP3   OH245327   6.451   0.075  12.868 -0.0838  0.7232  0.4092
 7971TIP3    H145328   6.422   0.132  12.797  2.5269  2.4537  0.5747
 7971TIP3    H245329   6.487   0.135  12.933  2.4864 -1.0380  0.7709
 7972TIP3   OH245330   4.298   1.218   4.406 -0.3268  0.2048  0.3269
 7972TIP3    H145331   4.347   1.228   4.488 -0.3860  0.8327  0.2904
 7972TIP3    H245332   4.314   1.128   4.380  0.5337  0.2994  0.4897
 7973TIP3   OH245333   5.552   6.706   0.915  0.3978  0.0401  0.1728
 7973TIP3    H145334   5.528   6.775   0.977  0.3625  0.6641 -0.5297
 7973TIP3    H245335   5.475   6.650   0.911 -0.0880  0.7324 -0.3001
 7974TIP3   OH245336   0.075   5.225   5.795  0.4656 -0.4176  0.5909
 7974TIP3    H145337   0.159   5.228   5.841  0.6801  1.3340  0.1547
 7974TIP3    H245338   0.081   5.294   5.729 -1.3806 -0.1557  0.6456
 7975TIP3   OH245339   4.539   4.255  14.536 -0.2916 -0.4420 -0.0086
 7975TIP3    H145340   4.560   4.345  14.510  0.7841  0.2898  2.9076
 7975TIP3    H245341   4.449   4.261  14.570  0.4765  0.0828  2.0763
 7976TIP3   OH245342   3.787   5.698  16.298  0.5942 -0.1111  0.4719
 7976TIP3    H145343   3.794   5.615  16.251  2.7055  0.2570  0.0208
 7976TIP3    H245344   3.696   5.702  16.328  0.2119 -2.1339 -0.2969
 7977TIP3   OH245345   4.892   0.871  17.049  0.4834  0.6893 -0.3060
 7977TIP3    H145346   4.941   0.791  17.068 -0.4999  0.0286 -0.4635
 7977TIP3    H245347   4.940   0.911  16.977  0.2431 -0.4832 -1.1540
 7978TIP3   OH245348   4.748   5.288   1.541  0.1828 -0.3977  0.2802
 7978TIP3    H145349   4.659   5.319   1.524 -0.3882 -2.1761 -0.2134
 7978TIP3    H245350   4.740   5.236   1.622  1.0262  0.3870  0.8908
 7979TIP3   OH245351   0.321   2.871  13.382  0.1200  0.0319  0.0258
 7979TIP3    H145352   0.356   2.960  13.384 -0.0849  0.1497 -1.1538
 7979TIP3    H245353   0.226   2.883  13.370 -0.0792 -0.3300  1.1278
 7980TIP3   OH245354   0.983   1.669  14.985  0.1870 -0.3976  0.3663
 7980TIP3    H145355   1.017   1.609  15.051  0.2430 -1.4960 -0.6259
 7980TIP3    H245356   1.045   1.742  14.984  0.3052 -0.4801  1.3611
 7981TIP3   OH245357   5.210   3.544   2.280 -0.2099  0.1597 -0.9835
 7981TIP3    H145358   5.178   3.634   2.278 -2.1448 -0.4032  0.5614
 7981TIP3    H245359   5.219   3.524   2.373  0.8385 -1.0306 -1.3249
 7982TIP3   OH245360   4.932   2.395   0.001 -0.0758  0.4503 -0.4251
 7982TIP3    H145361   4.864   2.403   0.068 -1.8312 -0.3321 -2.0145
 7982TIP3    H245362   4.903   2.453  -0.069  0.9952  0.2232 -1.0749
 7983TIP3   OH245363   0.071   6.054  11.007  0.6260  0.0810 -0.6440
 7983TIP3    H145364  -0.001   5.996  10.981  1.7433 -0.3966 -2.8343
 7983TIP3    H245365   0.150   6.001  10.998  1.2789  0.2117  2.8487
 7984TIP3   OH245366   3.147   1.178  12.638  0.2162 -0.1396  0.6581
 7984TIP3    H145367   3.171   1.267  12.666  0.7091 -0.1564  0.3059
 7984TIP3    H245368   3.200   1.162  12.560 -0.6110 -0.3687  0.1341
 7985TIP3   OH245369   1.298   4.573   2.133  0.1831 -0.4686  0.6010
 7985TIP3    H145370   1.336   4.493   2.098 -0.0859 -1.5696  2.6422
 7985TIP3    H245371   1.363   4.641   2.116  1.0857 -1.4301  0.1527
 7986TIP3   OH245372   3.001   1.488  16.873  0.3970  0.3774 -0.2695
 7986TIP3    H145373   2.972   1.424  16.807  0.1128  0.3404 -0.1065
 7986TIP3    H245374   3.056   1.549  16.823 -0.4183  0.7849 -0.6988
 7987TIP3   OH245375   1.879   1.616   2.444 -0.0586  0.4167 -0.2009
 7987TIP3    H145376   1.973   1.630   2.444 -0.0280  0.2538 -0.9267
 7987TIP3    H245377   1.853   1.625   2.352 -0.5249 -0.9326 -0.2325
 7988TIP3   OH245378   4.700   6.521  16.164 -0.7188  0.6003 -0.0043
 7988TIP3    H145379   4.637   6.484  16.226  1.2285 -1.4706  0.8908
 7988TIP3    H245380   4.734   6.445  16.117 -0.5482  1.9174 -2.1281
 7989TIP3   OH245381   1.437   3.488  14.115 -0.0216 -0.5585 -0.0712
 7989TIP3    H145382   1.389   3.417  14.158  0.9685 -1.3465 -0.2499
 7989TIP3    H245383   1.408   3.485  14.024 -1.0037  0.1664  0.1918
 7990TIP3   OH245384   4.874   2.333   5.758  0.3138 -0.1954 -0.1821
 7990TIP3    H145385   4.954   2.381   5.736 -0.0245  0.0772 -0.8355
 7990TIP3    H245386   4.806   2.401   5.763 -0.0498 -0.5288 -0.5068
 7991TIP3   OH245387   4.294   1.673   1.494 -0.1350 -0.2476 -0.4667
 7991TIP3    H145388   4.340   1.617   1.556 -1.2369 -0.4519  0.2041
 7991TIP3    H245389   4.347   1.669   1.414  0.5209 -1.1716 -0.0056
 7992TIP3   OH245390   5.816   6.152  11.996 -0.1939  0.4951 -0.4128
 7992TIP3    H145391   5.777   6.186  12.076  0.2911  1.7077 -0.6751
 7992TIP3    H245392   5.773   6.067  11.982  0.5111 -0.2628  1.7211
 7993TIP3   OH245393   0.122   1.199  17.344  0.0109 -0.2106 -0.6361
 7993TIP3    H145394   0.029   1.176  17.350 -1.0288  3.2677 -0.7921
 7993TIP3    H245395   0.158   1.178  17.430 -0.3527 -3.3669 -1.1606
 7994TIP3   OH245396   1.224   2.342  12.179 -0.2579  0.1489  0.3244
 7994TIP3    H145397   1.276   2.422  12.171  0.6214 -0.4889 -0.7372
 7994TIP3    H245398   1.261   2.296  12.254  2.0888 -1.1755 -1.4710
 7995TIP3   OH245399   0.611   6.116  13.010 -0.3704 -0.1918  0.9643
 7995TIP3    H145400   0.645   6.037  12.968 -3.0929  0.3681 -2.8075
 7995TIP3    H245401   0.678   6.183  12.995 -0.3656 -0.5517 -0.8276
 7996TIP3   OH245402   2.335   6.651  15.125 -0.5229 -0.0707 -0.4315
 7996TIP3    H145403   2.288   6.609  15.053  0.2387 -0.3704 -0.7620
 7996TIP3    H245404   2.378   6.726  15.085 -1.3610  0.6870  0.0321
 7997TIP3   OH245405   2.983   4.103  15.568  0.1643 -0.1799 -0.6057
 7997TIP3    H145406   3.057   4.156  15.598  0.1460 -0.2514 -0.4361
 7997TIP3    H245407   3.021   4.016  15.552  0.1043 -0.2321 -0.4618
 7998TIP3   OH245408   4.258   5.562   1.744 -0.0673 -0.0227  0.1343
 7998TIP3    H145409   4.237   5.541   1.652  0.9826  1.5788 -0.4996
 7998TIP3    H245410   4.237   5.481   1.791  1.3998 -1.6577 -1.8066
 7999TIP3   OH245411   0.106   1.041  16.024 -0.5980  0.2718  0.0011
 7999TIP3    H145412   0.051   1.045  16.101  0.1283 -0.1652  0.5609
 7999TIP3    H245413   0.060   1.092  15.958 -1.7416 -0.2101  0.3992
 8000TIP3   OH245414   4.992   2.228   1.050 -0.0623 -0.4947 -0.4588
 8000TIP3    H145415   5.081   2.251   1.079 -0.0570 -1.2221  0.1474
 8000TIP3    H245416   4.938   2.238   1.128 -0.0306 -2.6161 -0.1078
 8001TIP3   OH245417   1.618   4.618  12.701  0.1399  0.1713  0.2943
 8001TIP3    H145418   1.595   4.588  12.613  1.0906  0.5998 -0.1171
 8001TIP3    H245419   1.621   4.538  12.754  3.3285 -0.7035 -0.9393
 8002TIP3   OH245420   1.317   1.627   6.919 -0.3122  0.0016  0.1285
 8002TIP3    H145421   1.325   1.720   6.898 -1.5242 -0.2851 -1.9243
 8002TIP3    H245422   1.368   1.583   6.851 -1.3621 -0.8825 -0.1185
 8003TIP3   OH245423   4.838   4.707   4.889  0.1794  0.4809  0.5089
 8003TIP3    H145424   4.810   4.793   4.921 -1.5004 -0.0082  0.4654
 8003TIP3    H245425   4.786   4.693   4.810 -1.4599 -1.5943  1.8465
 8004TIP3   OH245426   5.319   6.613  15.033 -0.3038  0.7377 -0.2018
 8004TIP3    H145427   5.299   6.703  15.060 -0.5099  1.1477 -1.5916
 8004TIP3    H245428   5.323   6.618  14.937  0.9088 -0.4956 -0.2458
 8005TIP3   OH245429   0.491   3.948  17.586  0.0285 -0.0173  0.2155
 8005TIP3    H145430   0.413   3.993  17.553  0.1154  1.0238  1.3456
 8005TIP3    H245431   0.470   3.855  17.577  0.0134  0.1712 -2.5776
 8006TIP3   OH245432   0.443   4.228  15.233 -0.3969  0.1039 -0.0496
 8006TIP3    H145433   0.385   4.155  15.255  1.7642 -1.4022  0.9997
 8006TIP3    H245434   0.389   4.286  15.180 -3.2772 -0.5080  1.9654
 8007TIP3   OH245435   3.460   1.390   0.440 -0.1428  0.6054 -0.1654
 8007TIP3    H145436   3.538   1.446   0.446 -1.2670  2.4116 -1.2300
 8007TIP3    H245437   3.413   1.406   0.522  0.6764 -0.6846  0.5933
 8008TIP3   OH245438   3.498   1.798   2.137 -0.1947  0.4344  0.4004
 8008TIP3    H145439   3.421   1.817   2.191 -1.6811  0.7535 -1.7305
 8008TIP3    H245440   3.522   1.881   2.098  0.0565 -0.0214 -0.4356
 8009TIP3   OH245441   2.045   1.233   4.984  0.6240  0.0522  0.1317
 8009TIP3    H145442   1.988   1.199   5.053 -0.3817  0.6645 -0.3558
 8009TIP3    H245443   2.128   1.187   4.995  1.1765  1.4946  2.9768
 8010TIP3   OH245444   1.464   3.919  15.215 -0.1868 -0.6873 -0.1669
 8010TIP3    H145445   1.398   3.919  15.145  1.1063 -0.7321 -1.4281
 8010TIP3    H245446   1.428   3.978  15.281 -2.1365 -1.7659 -0.1599
 8011TIP3   OH245447   3.746   3.706  12.894  0.2128  0.2629  0.3552
 8011TIP3    H145448   3.734   3.800  12.900 -0.1157  0.3797 -1.6210
 8011TIP3    H245449   3.841   3.694  12.891  0.2439  0.5809  0.0092
 8012TIP3   OH245450   4.113   1.166  16.472  0.1731 -0.0905 -0.0298
 8012TIP3    H145451   4.096   1.091  16.529  1.7335 -0.7591 -0.3752
 8012TIP3    H245452   4.193   1.205  16.508 -0.4026  1.1797 -0.0971
 8013TIP3   OH245453   3.610   6.676   0.843 -0.0644  0.1411 -0.1508
 8013TIP3    H145454   3.637   6.717   0.761 -0.2041  0.9078  0.1760
 8013TIP3    H245455   3.551   6.606   0.816  0.5423 -0.1536 -0.7476
 8014TIP3   OH245456   3.464   6.596   3.703 -0.4454  0.0660 -0.5854
 8014TIP3    H145457   3.489   6.515   3.746 -0.3683 -0.4831 -1.6543
 8014TIP3    H245458   3.543   6.627   3.660  0.2480  2.0781  1.8506
 8015TIP3   OH245459   4.118   4.066  12.200  0.3614 -0.2731 -0.2206
 8015TIP3    H145460   4.033   4.102  12.224  0.6508 -0.6066  1.4405
 8015TIP3    H245461   4.111   3.972  12.221  0.8306 -0.4904 -0.9829
 8016TIP3   OH245462   2.128   4.303  17.553 -0.4978  0.1377  0.3711
 8016TIP3    H145463   2.041   4.314  17.515  0.3590  0.8001 -1.5423
 8016TIP3    H245464   2.167   4.229  17.506  0.8931  1.4878 -0.7100
 8017TIP3   OH245465   4.313   2.216   1.331 -0.1847 -0.0030 -0.2577
 8017TIP3    H145466   4.378   2.146   1.334  0.1072  0.2862  1.5930
 8017TIP3    H245467   4.322   2.260   1.416 -1.4085  1.3158 -0.7782
 8018TIP3   OH245468   6.080   1.233  15.037 -0.0261  0.0965  0.1351
 8018TIP3    H145469   5.992   1.270  15.029 -0.3161 -0.1976  1.6260
 8018TIP3    H245470   6.135   1.307  15.061  0.5377  0.6574 -2.5621
 8019TIP3   OH245471   5.755   0.956   0.049  0.0569 -0.1622  0.3031
 8019TIP3    H145472   5.686   1.016   0.023  0.2118 -1.1104 -2.5843
 8019TIP3    H245473   5.774   0.905  -0.029  2.2633 -1.6901  1.7122
 8020TIP3   OH245474   2.579   3.390   3.764 -0.0705  0.0779 -0.2589
 8020TIP3    H145475   2.497   3.409   3.811  0.1442  2.5925 -0.7415
 8020TIP3    H245476   2.553   3.328   3.696 -1.1249 -0.7772  0.8548
 8021TIP3   OH245477   3.720   3.414   2.908  0.2684 -0.5608  0.0022
 8021TIP3    H145478   3.768   3.472   2.968  0.4047 -0.2352 -0.4110
 8021TIP3    H245479   3.764   3.330   2.916  0.4088 -0.4681  0.2165
 8022TIP3   OH245480   2.214   0.658   1.792  0.7076 -0.2087  0.5086
 8022TIP3    H145481   2.125   0.671   1.823  0.6848  0.2583  0.2556
 8022TIP3    H245482   2.269   0.671   1.869  0.7816  2.6152  0.0919
 8023TIP3   OH245483   4.761   2.215   1.575  0.8935  0.3888  0.7603
 8023TIP3    H145484   4.698   2.172   1.632  1.9918 -0.7410  1.1724
 8023TIP3    H245485   4.818   2.145   1.544  0.5375  1.0230 -1.4856
 8024TIP3   OH245486   1.943   0.220  17.071 -0.5165  0.1699 -0.6797
 8024TIP3    H145487   2.026   0.259  17.099 -0.9468  1.3855 -0.9910
 8024TIP3    H245488   1.962   0.127  17.060  0.7601  0.3997 -0.5856
 8025TIP3   OH245489   0.563   3.864  16.454  0.0815 -0.3275 -0.3444
 8025TIP3    H145490   0.514   3.835  16.531  1.1494  0.4680  0.6738
 8025TIP3    H245491   0.598   3.784  16.416  0.1366 -0.6712  0.4135
 8026TIP3   OH245492   4.508   4.975  15.623 -0.7758 -0.0291 -0.1935
 8026TIP3    H145493   4.497   4.881  15.634 -1.5150 -0.0229 -0.7869
 8026TIP3    H245494   4.600   4.986  15.598 -1.0570 -0.7530 -1.6522
 8027TIP3   OH245495   4.965   0.858   4.156  0.2035  0.2702 -0.1252
 8027TIP3    H145496   4.903   0.928   4.178  0.6252  1.1876 -1.6704
 8027TIP3    H245497   4.925   0.778   4.190 -2.1277  0.7536 -1.5269
 8028TIP3   OH245498   1.528   1.175   5.769  0.2398 -0.1972 -0.5375
 8028TIP3    H145499   1.571   1.106   5.820  0.6743  0.3753 -0.1230
 8028TIP3    H245500   1.580   1.180   5.688  0.7920  0.2907 -0.1625
 8029TIP3   OH245501   2.133   1.897  12.966  0.3006 -0.0895 -0.1975
 8029TIP3    H145502   2.064   1.895  13.032 -0.8295 -1.9137 -1.3589
 8029TIP3    H245503   2.207   1.851  13.006 -0.2204 -0.7773 -0.0118
 8030TIP3   OH245504   6.646   1.596  16.906  0.2517  0.2232 -0.5888
 8030TIP3    H145505   6.646   1.688  16.932  3.2195  0.9279 -2.6262
 8030TIP3    H245506   6.705   1.554  16.967 -1.1923 -0.4169  0.4128
 8031TIP3   OH245507   2.432   4.044   1.418 -0.0177 -0.2265 -0.0969
 8031TIP3    H145508   2.396   4.097   1.347 -1.2219 -0.4273  0.3434
 8031TIP3    H245509   2.421   4.097   1.496  0.1415 -0.5289  0.1341
 8032TIP3   OH245510   2.488   3.604   2.719  0.3727 -0.5214 -0.3001
 8032TIP3    H145511   2.529   3.578   2.637  0.6955 -0.2919 -0.2119
 8032TIP3    H245512   2.507   3.533   2.780 -0.7455 -1.1929 -0.6955
 8033TIP3   OH245513   0.075   0.683   3.529  0.1487 -0.0100 -0.5598
 8033TIP3    H145514   0.011   0.753   3.544 -0.6756 -0.7440 -0.6219
 8033TIP3    H245515   0.115   0.669   3.614 -0.5502 -0.2976 -0.2703
 8034TIP3   OH245516   3.590   2.594  14.233 -0.4179 -0.1121  0.1917
 8034TIP3    H145517   3.636   2.672  14.203 -1.1940  0.3394  0.1244
 8034TIP3    H245518   3.497   2.618  14.230 -0.6447 -0.8562  0.6901
 8035TIP3   OH245519   1.425   3.797   1.806 -0.1692  0.3270 -0.3287
 8035TIP3    H145520   1.483   3.851   1.861  1.1109 -0.8508 -0.4615
 8035TIP3    H245521   1.467   3.711   1.805 -2.7964 -1.1081  0.9486
 8036TIP3   OH245522   0.397   4.610   4.531 -0.6444  0.7311  0.1640
 8036TIP3    H145523   0.318   4.560   4.511  0.0809 -1.0478  1.4838
 8036TIP3    H245524   0.380   4.650   4.616  0.0012 -0.0109  0.6594
 8037TIP3   OH245525   0.449   5.548   1.007 -0.3452  0.1948 -0.5944
 8037TIP3    H145526   0.435   5.601   1.085  1.2699  2.4508 -1.7348
 8037TIP3    H245527   0.363   5.542   0.966 -1.2032 -0.9751  1.2417
 8038TIP3   OH245528   1.296   1.850   3.264 -0.0506  1.1551 -0.6065
 8038TIP3    H145529   1.368   1.874   3.205 -0.2623  0.2437 -1.2564
 8038TIP3    H245530   1.274   1.760   3.240 -0.5260  0.9577  0.4877
 8039TIP3   OH245531   5.688   2.670  11.755  0.6503  0.1908  0.0533
 8039TIP3    H145532   5.706   2.744  11.696 -0.4636 -0.8360 -1.6585
 8039TIP3    H245533   5.596   2.681  11.778  0.3325 -0.9134 -0.6278
 8040TIP3   OH245534   1.605   2.592   2.012 -0.0659  0.1248 -0.8071
 8040TIP3    H145535   1.567   2.535   2.079  0.2155  1.2247  0.3331
 8040TIP3    H245536   1.572   2.680   2.033  2.2268  0.9584 -0.3548
 8041TIP3   OH245537   0.364   1.152  16.057  0.2499  0.3868 -0.2343
 8041TIP3    H145538   0.281   1.107  16.045  0.9703 -0.8843 -0.5551
 8041TIP3    H245539   0.406   1.150  15.971  1.1054  0.0171  0.1797
 8042TIP3   OH245540   6.150   1.729   4.119 -0.1385 -0.1602 -0.4910
 8042TIP3    H145541   6.224   1.692   4.072 -0.5935  0.5253 -1.8217
 8042TIP3    H245542   6.093   1.764   4.050 -1.4166 -0.1519  0.5175
 8043TIP3   OH245543   2.160   0.813   5.050  0.2039  0.0350  0.0865
 8043TIP3    H145544   2.180   0.825   4.957  1.6959 -1.0137  0.2422
 8043TIP3    H245545   2.239   0.842   5.096  0.4320 -1.7118  0.8834
 8044TIP3   OH245546   0.370   3.623  17.050 -0.9835  0.3904  0.2794
 8044TIP3    H145547   0.377   3.612  17.145 -0.0240  1.2828  0.3337
 8044TIP3    H245548   0.329   3.542  17.020 -1.3089  0.0951  1.4501
 8045TIP3   OH245549   1.740   5.583  10.989 -0.2422 -0.1211 -0.1358
 8045TIP3    H145550   1.724   5.522  10.916  0.3828 -0.9712  0.4147
 8045TIP3    H245551   1.677   5.653  10.975 -1.7018 -1.3898 -0.2326
 8046TIP3   OH245552   0.979   5.959  14.400  0.0748  1.3570 -0.6637
 8046TIP3    H145553   0.885   5.970  14.391 -0.4129 -0.6942  1.0965
 8046TIP3    H245554   1.004   5.904  14.326 -0.0886  1.8272 -1.0788
 8047TIP3   OH245555   5.053   1.126  17.252 -0.5671  0.3139 -0.2418
 8047TIP3    H145556   5.079   1.207  17.209 -1.5793  0.4837 -0.5569
 8047TIP3    H245557   5.023   1.070  17.181  0.1332 -0.3560 -0.0292
 8048TIP3   OH245558   5.409   2.348  16.978  0.1030 -0.0074 -0.2883
 8048TIP3    H145559   5.391   2.257  17.004 -0.7518  0.1305 -0.3841
 8048TIP3    H245560   5.335   2.398  17.012 -1.1360  0.1931 -3.0099
 8049TIP3   OH245561   5.655   5.026  12.534 -0.4142 -0.2719 -0.1337
 8049TIP3    H145562   5.689   5.098  12.586  0.8285  0.1944 -1.5467
 8049TIP3    H245563   5.601   4.976  12.596  0.5858  0.5344  1.4655
 8050TIP3   OH245564   3.332   4.106  16.537  0.1960 -0.2804  0.0450
 8050TIP3    H145565   3.271   4.149  16.596  2.2333  1.0399  1.3153
 8050TIP3    H245566   3.349   4.021  16.578 -0.7193 -0.6561 -0.3175
 8051TIP3   OH245567   4.741   5.046   0.632  0.5582 -0.9389 -0.1605
 8051TIP3    H145568   4.804   5.014   0.697 -0.7000 -2.2648  0.4601
 8051TIP3    H245569   4.725   5.137   0.657 -0.2461 -1.5500  1.7199
 8052TIP3   OH245570   1.679   2.708  13.775  0.7404  0.1892 -0.1902
 8052TIP3    H145571   1.690   2.628  13.826 -0.3223  0.0687 -0.1375
 8052TIP3    H245572   1.627   2.683  13.700  0.6254  0.7810 -0.3167
 8053TIP3   OH245573   0.082   5.120   2.692 -0.0565  0.1819 -0.1763
 8053TIP3    H145574   0.042   5.058   2.753  0.2364 -1.2256 -1.3839
 8053TIP3    H245575   0.176   5.109   2.704  0.0226 -0.7142 -1.4370
 8054TIP3   OH245576   3.675   0.193   5.063  0.1341  0.0125 -0.4816
 8054TIP3    H145577   3.770   0.181   5.067  0.0086 -0.9166  0.4391
 8054TIP3    H245578   3.660   0.282   5.094  0.6843  0.0285 -0.2553
 8055TIP3   OH245579   5.768   2.406  11.969 -0.1811 -0.1162 -0.0571
 8055TIP3    H145580   5.675   2.425  11.956 -0.0741 -0.3211 -1.3567
 8055TIP3    H245581   5.812   2.460  11.903  0.6611  0.3210  0.8552
 8056TIP3   OH245582   4.713   1.767   5.668 -0.1633  0.8449 -0.2327
 8056TIP3    H145583   4.655   1.832   5.628 -0.5672  0.4933 -0.2299
 8056TIP3    H245584   4.666   1.739   5.747 -0.0881  0.4026 -0.3402
 8057TIP3   OH245585   5.619   4.103  13.213  0.6240  0.3059 -0.1716
 8057TIP3    H145586   5.679   4.116  13.139  0.3541  1.6067 -0.1852
 8057TIP3    H245587   5.625   4.185  13.263 -1.7231  0.8145 -0.6122
 8058TIP3   OH245588   5.347   3.039   3.185 -0.1137 -0.5275 -0.4631
 8058TIP3    H145589   5.268   3.000   3.223 -0.4453  0.5729  0.0045
 8058TIP3    H245590   5.319   3.076   3.102 -0.0384 -0.2973 -0.3852
 8059TIP3   OH245591   2.354   3.320   0.230 -0.1383  0.0988 -0.5935
 8059TIP3    H145592   2.445   3.351   0.242 -0.4831  0.3756  2.1426
 8059TIP3    H245593   2.354   3.277   0.145  3.1168 -1.7490  0.1776
 8060TIP3   OH245594   6.026   0.260  15.121  0.0969  0.1809 -0.2206
 8060TIP3    H145595   6.066   0.182  15.159 -0.1512 -0.0032 -0.3382
 8060TIP3    H245596   5.971   0.227  15.050 -0.0663  0.4559 -0.2220
 8061TIP3   OH245597   3.873   0.572  11.497  0.1480  0.1541  1.1852
 8061TIP3    H145598   3.912   0.485  11.486  0.5448  0.5401 -1.1230
 8061TIP3    H245599   3.901   0.620  11.419 -0.8094  2.0770  1.9661
 8062TIP3   OH245600   6.016   0.077   0.749  0.1468  0.8352  0.1694
 8062TIP3    H145601   6.060   0.080   0.834  3.1611 -1.2164 -1.1255
 8062TIP3    H245602   6.017   0.168   0.718  2.6342  1.0867  0.7485
 8063TIP3   OH245603   0.886   1.181   0.210 -0.0660 -0.1355  0.7091
 8063TIP3    H145604   0.820   1.112   0.212 -0.2617  0.0777  1.9151
 8063TIP3    H245605   0.940   1.159   0.133 -0.8742 -0.9094  0.3410
 8064TIP3   OH245606   5.366   4.117   3.673  0.5841 -0.1720 -0.0190
 8064TIP3    H145607   5.312   4.196   3.677 -1.6544 -1.5818 -0.5505
 8064TIP3    H245608   5.438   4.134   3.733  0.1773  2.2597 -0.1260
 8065TIP3   OH245609   0.648   0.321   1.177 -0.0590  0.5267  0.2668
 8065TIP3    H145610   0.572   0.304   1.233  0.4643 -1.9284  0.3592
 8065TIP3    H245611   0.613   0.315   1.088 -0.1150  0.1069  0.3142
 8066TIP3   OH245612   6.419   0.751  10.851 -0.1713 -0.1371 -0.0716
 8066TIP3    H145613   6.407   0.660  10.878  0.6986  0.0812  1.1467
 8066TIP3    H245614   6.335   0.792  10.871  0.2348 -0.1333  1.8519
 8067TIP3   OH245615   5.487   6.068   2.899 -0.3220  0.0802  0.1210
 8067TIP3    H145616   5.540   6.086   2.977  2.2937 -0.4594 -1.4160
 8067TIP3    H245617   5.526   5.988   2.862 -0.5462  1.0990 -2.4969
 8068TIP3   OH245618   3.442   4.975  14.538  0.2426  0.1046 -0.2535
 8068TIP3    H145619   3.404   4.938  14.458 -1.2298  0.2341  0.3439
 8068TIP3    H245620   3.471   5.062  14.513 -0.7359  0.3657 -0.5295
 8069TIP3   OH245621   6.075   2.173   5.019 -0.1658 -0.2241 -0.0238
 8069TIP3    H145622   6.163   2.134   5.025 -0.0797 -0.1971 -0.9846
 8069TIP3    H245623   6.053   2.169   4.926 -1.1341 -0.1034  0.1875
 8070TIP3   OH245624   5.879   3.962   2.115  0.1810  0.4852  0.2556
 8070TIP3    H145625   5.961   3.912   2.116  0.2476  0.5992  0.6354
 8070TIP3    H245626   5.843   3.947   2.028 -0.3822 -1.1985  0.7350
 8071TIP3   OH245627   2.999   4.948  16.001  0.5651  0.1597 -0.4974
 8071TIP3    H145628   2.905   4.967  16.005  0.2167 -1.4606 -0.3041
 8071TIP3    H245629   3.041   5.028  16.033 -0.7814  0.6720  0.0590
 8072TIP3   OH245630   3.760   1.798  16.625 -0.4898  0.5574  0.5182
 8072TIP3    H145631   3.852   1.824  16.618 -0.8567  1.5540 -1.2136
 8072TIP3    H245632   3.717   1.873  16.665 -0.6087  0.1882  1.0975
 8073TIP3   OH245633   5.600   1.214   6.178  0.6785  0.1020 -0.0780
 8073TIP3    H145634   5.662   1.141   6.179  1.7026  0.9119 -1.2646
 8073TIP3    H245635   5.537   1.193   6.248  1.0495 -1.7929 -0.2557
 8074TIP3   OH245636   3.543   2.308   3.233 -0.7283 -0.2729 -0.1525
 8074TIP3    H145637   3.626   2.331   3.274 -0.1977 -0.8104 -0.8795
 8074TIP3    H245638   3.488   2.385   3.245  0.1937  0.4667 -0.4782
 8075TIP3   OH245639   2.662   5.744  10.953 -0.1903  0.2502 -0.4741
 8075TIP3    H145640   2.571   5.738  10.924  0.1142  0.4649 -1.4859
 8075TIP3    H245641   2.664   5.821  11.009 -1.4254 -1.7203  2.6226
 8076TIP3   OH245642   2.983   0.132   3.917 -0.2649  0.0614  0.5538
 8076TIP3    H145643   3.012   0.175   3.997  0.1360  3.1520 -1.0889
 8076TIP3    H245644   2.891   0.158   3.907 -1.0760 -2.2910  1.1378
 8077TIP3   OH245645   0.359   3.098   4.573  0.8343  0.3733 -0.0515
 8077TIP3    H145646   0.311   3.015   4.575  1.7230 -0.1615  2.0695
 8077TIP3    H245647   0.291   3.165   4.577  0.1525 -0.2498 -0.6958
 8078TIP3   OH245648   1.879   4.364   1.683  0.4925  0.4348 -0.0438
 8078TIP3    H145649   1.959   4.315   1.699  0.5211  0.2893 -0.5960
 8078TIP3    H245650   1.816   4.298   1.656  0.0139  0.4707  0.9367
 8079TIP3   OH245651   5.355   4.543  16.112 -0.0269 -0.0828  0.1953
 8079TIP3    H145652   5.405   4.569  16.035 -1.3943  2.3940  0.0275
 8079TIP3    H245653   5.338   4.449  16.099  1.2810 -0.1292 -1.5964
 8080TIP3   OH245654   2.237   1.813   2.008  0.0435  0.2259 -0.3394
 8080TIP3    H145655   2.301   1.770   1.951  0.0896 -0.0395 -0.0886
 8080TIP3    H245656   2.177   1.743   2.034 -2.1613  0.9584 -2.9503
 8081TIP3   OH245657   2.249   1.283   5.416  0.6211 -0.0411  0.3887
 8081TIP3    H145658   2.176   1.296   5.477  0.8701  0.7710  0.5286
 8081TIP3    H245659   2.284   1.371   5.402  0.4071 -0.1729 -1.1378
 8082TIP3   OH245660   1.260   0.561   2.833 -0.3550  0.8503 -0.3410
 8082TIP3    H145661   1.238   0.482   2.784  0.3869  0.0718  0.5555
 8082TIP3    H245662   1.299   0.530   2.914 -2.2994  2.0895  1.1659
 8083TIP3   OH245663   5.645   5.665   3.911  0.2440 -0.0084  0.3245
 8083TIP3    H145664   5.670   5.578   3.943  0.1305 -0.0985  0.1681
 8083TIP3    H245665   5.572   5.691   3.967  0.7665  0.3073  0.8639
 8084TIP3   OH245666   5.515   3.162  14.662 -0.2969 -0.1766  0.1641
 8084TIP3    H145667   5.490   3.143  14.572  1.0354  0.4125 -0.3691
 8084TIP3    H245668   5.590   3.105  14.679  1.0538  1.4674 -0.0059
 8085TIP3   OH245669   1.325   4.483  10.646 -0.1642  0.2304  0.3181
 8085TIP3    H145670   1.324   4.391  10.617 -0.3038  0.2897  0.1299
 8085TIP3    H245671   1.414   4.513  10.626 -0.3047  0.3149 -0.1986
 8086TIP3   OH245672   2.674   5.151   5.571 -0.2853  0.3239 -0.2018
 8086TIP3    H145673   2.657   5.056   5.574 -0.5743  0.2885 -1.8132
 8086TIP3    H245674   2.760   5.161   5.610 -0.0456 -0.6857 -0.4273
 8087TIP3   OH245675   5.399   0.612  14.655  0.0286 -0.1245 -0.3181
 8087TIP3    H145676   5.317   0.596  14.703 -0.3298  1.0584 -0.4963
 8087TIP3    H245677   5.372   0.659  14.576  0.8318 -0.1908 -0.6447
 8088TIP3   OH245678   2.009   2.840  13.953 -0.5452  0.0615  0.2957
 8088TIP3    H145679   1.920   2.814  13.977 -0.6482  0.1864  0.0459
 8088TIP3    H245680   2.048   2.870  14.035 -0.8959  0.4796  0.3160
 8089TIP3   OH245681   5.452   3.147  13.356  0.5045  0.0110 -0.0825
 8089TIP3    H145682   5.419   3.236  13.343  1.4321  0.4792  0.6457
 8089TIP3    H245683   5.522   3.157  13.420 -1.4214 -1.6706  2.4639
 8090TIP3   OH245684   5.088   3.237  15.201  0.0846 -0.7278 -0.1046
 8090TIP3    H145685   5.026   3.171  15.232 -0.0903 -0.7630 -0.5141
 8090TIP3    H245686   5.056   3.260  15.114 -0.2272  0.3608  0.2776
 8091TIP3   OH245687   5.942   4.327  16.114 -0.1582 -0.4378  0.1556
 8091TIP3    H145688   5.939   4.287  16.201 -0.8422 -1.3943 -0.2850
 8091TIP3    H245689   5.856   4.369  16.104  0.0489 -0.0328  0.0769
 8092TIP3   OH245690   1.769   0.104  14.444  0.7270 -0.1830  1.1312
 8092TIP3    H145691   1.833   0.056  14.391 -0.5167  1.5385 -2.1782
 8092TIP3    H245692   1.806   0.192  14.452 -0.2802  0.2675  0.9492
 8093TIP3   OH245693   0.969   3.606  13.723 -0.3880 -0.2329 -0.3146
 8093TIP3    H145694   1.004   3.688  13.757 -1.8440  0.2059  0.2147
 8093TIP3    H245695   0.874   3.615  13.733 -0.5377 -2.3955  0.6908
 8094TIP3   OH245696   2.455   0.316   0.226  0.4695  0.6276  0.2587
 8094TIP3    H145697   2.488   0.304   0.315  1.6989 -0.8531 -0.3405
 8094TIP3    H245698   2.526   0.360   0.180  1.2816 -1.6139 -0.7769
 8095TIP3   OH245699   6.070   0.149   3.462  0.2515  0.1594  0.3966
 8095TIP3    H145700   6.139   0.186   3.409 -1.2664  0.5012 -1.4352
 8095TIP3    H245701   6.031   0.080   3.408 -0.0185 -0.9389  1.8953
 8096TIP3   OH245702   1.329   2.840   0.636  0.5301  0.4959  0.7376
 8096TIP3    H145703   1.315   2.883   0.552  0.8581  0.3334  0.5998
 8096TIP3    H245704   1.274   2.762   0.633 -0.9067  1.4288  1.4047
 8097TIP3   OH245705   5.921   5.398  17.473 -0.1527 -0.3126 -0.3896
 8097TIP3    H145706   5.952   5.310  17.492  0.4220 -0.3827 -1.5892
 8097TIP3    H245707   5.993   5.439  17.425  0.2231  1.3295  1.4564
 8098TIP3   OH245708   0.665   1.281   5.039  0.0956  0.4085 -0.0869
 8098TIP3    H145709   0.639   1.320   5.122  0.6330  0.7236 -0.0646
 8098TIP3    H245710   0.607   1.206   5.029  0.6445 -0.1845  1.0237
 8099TIP3   OH245711   4.016   0.183   0.260 -0.5874  0.3739 -0.7910
 8099TIP3    H145712   4.034   0.112   0.199  0.6487 -0.4889  0.5517
 8099TIP3    H245713   3.979   0.141   0.337 -0.6295  1.2786 -0.2976
 8100TIP3   OH245714   2.333   6.689   0.835  0.0137 -1.2318  0.0939
 8100TIP3    H145715   2.360   6.769   0.791  1.3909 -1.6535  0.1285
 8100TIP3    H245716   2.251   6.712   0.879 -0.0112 -0.0760 -0.5337
 8101TIP3   OH245717   0.840   1.360  13.537 -0.0354  0.4689 -0.0075
 8101TIP3    H145718   0.861   1.392  13.625 -0.8038 -1.4318  0.9483
 8101TIP3    H245719   0.746   1.377  13.527  0.4631  2.7542 -1.4586
 8102TIP3   OH245720   6.252   1.252  16.722 -0.8637 -0.0191  0.3678
 8102TIP3    H145721   6.321   1.212  16.670 -1.6941 -2.2643  0.8836
 8102TIP3    H245722   6.222   1.326  16.670  0.7858  0.0135 -0.6080
 8103TIP3   OH245723   0.611   4.710   5.815  0.2189 -0.3122  0.2588
 8103TIP3    H145724   0.658   4.763   5.880 -0.5924  0.2057  0.4260
 8103TIP3    H245725   0.597   4.626   5.859  0.7115 -0.3658  0.3210
 8104TIP3   OH245726   3.300   6.086   2.152 -0.0989  0.1737  0.0491
 8104TIP3    H145727   3.221   6.121   2.112 -0.3019 -0.5867 -0.2311
 8104TIP3    H245728   3.368   6.097   2.085  0.1262  1.1641  0.4259
 8105TIP3   OH245729   1.016   5.657   6.171 -0.1605  0.3613 -0.4192
 8105TIP3    H145730   1.067   5.615   6.241 -1.1435  0.8510  0.6277
 8105TIP3    H245731   1.033   5.750   6.182  1.3060  0.3752 -2.1810
 8106TIP3   OH245732   4.214   0.261  15.048 -0.0568 -1.1413  0.4724
 8106TIP3    H145733   4.290   0.319  15.047  0.2561 -1.5291 -0.9728
 8106TIP3    H245734   4.139   0.319  15.063  0.2538 -0.3450 -0.8818
 8107TIP3   OH245735   0.654   1.759   3.343 -0.3135 -0.6759 -0.0803
 8107TIP3    H145736   0.632   1.847   3.374  1.2825 -0.2294 -0.1261
 8107TIP3    H245737   0.659   1.767   3.248  0.0922 -0.7569 -0.0664
 8108TIP3   OH245738   3.227   0.897   4.853  0.3345  0.5564 -0.4414
 8108TIP3    H145739   3.245   0.821   4.908 -0.0560  1.6379  1.2403
 8108TIP3    H245740   3.303   0.902   4.795  0.5027 -0.9328 -0.4033
 8109TIP3   OH245741   5.935   0.533   3.336  0.0550 -0.5798 -0.5634
 8109TIP3    H145742   5.854   0.505   3.293 -0.3465 -0.7293  0.2595
 8109TIP3    H245743   5.953   0.463   3.399 -0.6182  0.6743  1.0874
 8110TIP3   OH245744   3.690   5.065   1.671  0.3493  0.4173  0.1599
 8110TIP3    H145745   3.666   4.981   1.712  0.1896  0.5475  0.3369
 8110TIP3    H245746   3.608   5.114   1.668  0.0867 -0.0524 -1.4510
 8111TIP3   OH245747   4.591   3.446  12.455  0.7586 -0.0204  0.5457
 8111TIP3    H145748   4.533   3.404  12.392 -0.1749  2.0255 -0.0419
 8111TIP3    H245749   4.563   3.411  12.540 -0.7806  0.2729  0.1897
 8112TIP3   OH245750   5.827   2.798  17.064  0.3222  0.1121 -0.1277
 8112TIP3    H145751   5.791   2.887  17.055  0.2836  0.3194  1.7980
 8112TIP3    H245752   5.831   2.783  17.158  0.7018 -1.7997 -0.4156
 8113TIP3   OH245753   4.785   1.727  17.507 -0.0198 -1.0682  0.1906
 8113TIP3    H145754   4.724   1.798  17.522  0.6689  0.2023 -2.3454
 8113TIP3    H245755   4.732   1.647  17.511 -1.1545 -0.2842  1.2624
 8114TIP3   OH245756   3.512   0.401  17.597 -0.1017  0.3236 -0.6698
 8114TIP3    H145757   3.580   0.468  17.592 -3.0095  3.7962  1.5728
 8114TIP3    H245758   3.437   0.445  17.636 -2.5316 -4.1600  0.4541
 8115TIP3   OH245759   4.929   4.984   4.328  0.5349 -0.2322 -0.5016
 8115TIP3    H145760   4.841   5.006   4.358  0.1227 -0.5160 -1.4611
 8115TIP3    H245761   4.948   4.899   4.369  1.4549  1.0044  1.8349
 8116TIP3   OH245762   0.575   6.286   4.770  0.0467  0.7247 -0.0450
 8116TIP3    H145763   0.482   6.265   4.781  0.8171 -1.7780  3.3627
 8116TIP3    H245764   0.585   6.370   4.814 -0.0344 -1.0819  3.8473
 8117TIP3   OH245765   2.903   5.579  11.946 -0.8362  0.5928  0.4972
 8117TIP3    H145766   2.970   5.550  12.008  0.0846  0.0501 -0.7184
 8117TIP3    H245767   2.938   5.556  11.860 -2.6724  0.1039 -0.1672
 8118TIP3   OH245768   4.991   4.885   5.500 -0.5495  0.2093  0.6301
 8118TIP3    H145769   4.936   4.808   5.484  0.3690  0.1183 -2.9911
 8118TIP3    H245770   4.939   4.958   5.468  0.6005  0.3632 -0.9700
 8119TIP3   OH245771   0.294   6.634   5.294  0.1099  0.9954 -0.2677
 8119TIP3    H145772   0.251   6.622   5.210  1.8961  0.9369 -1.2066
 8119TIP3    H245773   0.377   6.586   5.286  0.0907  0.5453  1.7076
 8120TIP3   OH245774   0.088   2.214  12.417 -0.0443 -0.1928 -0.1159
 8120TIP3    H145775   0.034   2.280  12.373  1.3394  0.8834 -0.2972
 8120TIP3    H245776   0.051   2.208  12.505 -2.2366 -1.6499 -1.0716
 8121TIP3   OH245777   0.553   6.152   0.909 -0.2683 -0.4292  0.2547
 8121TIP3    H145778   0.542   6.066   0.948  0.9876 -1.2512 -1.0972
 8121TIP3    H245779   0.528   6.140   0.817  1.0547  0.3248 -0.2363
 8122TIP3   OH245780   1.763   0.081   2.953  0.0297  0.4872 -0.2007
 8122TIP3    H145781   1.747   0.138   3.029  0.2613 -0.6189  0.7147
 8122TIP3    H245782   1.855   0.058   2.959 -0.2325 -0.5875 -0.1016
 8123TIP3   OH245783   3.078   5.460  12.626 -0.0521  0.3392 -0.2458
 8123TIP3    H145784   3.088   5.370  12.594  2.1806  0.6539 -0.5588
 8123TIP3    H245785   3.103   5.455  12.718 -2.1745  0.2760  0.3997
 8124TIP3   OH245786   2.633   3.498   4.527 -0.3334  0.1583  0.2569
 8124TIP3    H145787   2.659   3.584   4.494  1.3004 -0.4239 -0.0962
 8124TIP3    H245788   2.582   3.460   4.456 -0.6786  0.6626  0.2320
 8125TIP3   OH245789   3.084   4.769  12.240 -1.0063 -0.4812 -0.2362
 8125TIP3    H145790   3.071   4.739  12.150 -0.4782 -0.7809 -0.2177
 8125TIP3    H245791   3.003   4.747  12.285 -1.0052 -0.9884 -0.4689
 8126TIP3   OH245792   4.781   1.451   4.649 -0.1683  0.3980  0.6207
 8126TIP3    H145793   4.793   1.493   4.735  2.4191  0.4112  0.3373
 8126TIP3    H245794   4.838   1.375   4.652 -2.8518 -1.7633  0.1666
 8127TIP3   OH245795   6.280   2.838  14.788  0.0646  0.4214 -1.0818
 8127TIP3    H145796   6.328   2.920  14.793  1.9107 -0.6536  0.0081
 8127TIP3    H245797   6.333   2.783  14.729 -0.0882 -0.6155 -0.2738
 8128TIP3   OH245798   1.731   5.134  13.248  0.1241  0.4707 -0.6410
 8128TIP3    H145799   1.766   5.222  13.258  0.7360  0.0534  1.1963
 8128TIP3    H245800   1.657   5.145  13.188 -1.0448  2.5954  1.0310
 8129TIP3   OH245801   2.230   2.176  14.116 -0.4453  0.2440  0.6137
 8129TIP3    H145802   2.193   2.108  14.172  0.7692 -1.7480 -0.8756
 8129TIP3    H245803   2.323   2.176  14.137 -0.2925  0.8733 -0.0125
 8130TIP3   OH245804   0.170   5.384  12.179 -0.0572 -0.0009 -0.2465
 8130TIP3    H145805   0.250   5.437  12.169  1.1660 -0.9691  3.0728
 8130TIP3    H245806   0.112   5.439  12.232 -0.6047 -0.2770 -0.5560
 8131TIP3   OH245807   4.919   0.443   2.427  0.2890 -0.0680  0.0117
 8131TIP3    H145808   4.885   0.356   2.404 -0.5389  0.0660  0.6735
 8131TIP3    H245809   5.014   0.432   2.426  0.2586 -0.4652 -1.8445
 8132TIP3   OH245810   2.860   1.997  13.530 -0.3992 -0.3880  0.3292
 8132TIP3    H145811   2.936   2.055  13.533 -1.7948  1.5144  0.8127
 8132TIP3    H245812   2.785   2.055  13.543 -2.1097 -1.8900 -2.0178
 8133TIP3   OH245813   0.682   5.303  13.078 -0.5919 -0.1743 -0.3317
 8133TIP3    H145814   0.772   5.270  13.070 -0.2080  0.5817  0.7043
 8133TIP3    H245815   0.680   5.382  13.024 -1.4229 -1.6163 -2.5500
 8134TIP3   OH245816   1.422   4.168   4.212 -0.1561  0.5457  0.2024
 8134TIP3    H145817   1.418   4.120   4.295  0.9318  0.7284  0.3648
 8134TIP3    H245818   1.334   4.157   4.175  0.0479 -1.5899  0.2294
 8135TIP3   OH245819   1.198   0.817  15.485 -0.1838  0.0264 -0.3668
 8135TIP3    H145820   1.233   0.795  15.399  0.0580 -1.5971  0.1266
 8135TIP3    H245821   1.182   0.912  15.480 -1.7595 -0.2691 -2.7492
 8136TIP3   OH245822   5.457   1.686  16.828  0.3000 -0.3625 -0.2570
 8136TIP3    H145823   5.518   1.750  16.865 -0.0954  0.3860 -0.8976
 8136TIP3    H245824   5.504   1.648  16.754  0.3768 -0.5211 -0.1282
 8137TIP3   OH245825   5.779   1.871  15.244 -0.0414  0.3331 -0.2024
 8137TIP3    H145826   5.778   1.872  15.340  1.2686  1.5235 -0.1546
 8137TIP3    H245827   5.690   1.851  15.219 -0.1757 -1.0902  1.2692
 8138TIP3   OH245828   3.810   0.047   2.637 -0.1057  0.5020 -0.3644
 8138TIP3    H145829   3.777   0.133   2.608 -0.7499  0.0371 -1.0673
 8138TIP3    H245830   3.844   0.063   2.724  1.0020  1.7634 -0.9877
 8139TIP3   OH245831   2.717   5.013   1.650 -0.4696 -0.1405 -0.0045
 8139TIP3    H145832   2.698   5.044   1.561  0.2733 -0.2198 -0.1977
 8139TIP3    H245833   2.631   5.001   1.690 -0.8071  0.1300 -0.6342
 8140TIP3   OH245834   2.464   4.103  13.182 -0.3646  0.2218  0.0308
 8140TIP3    H145835   2.406   4.147  13.120 -1.8430  1.8704  2.3635
 8140TIP3    H245836   2.544   4.156  13.182 -1.1051  1.3996  0.8499
 8141TIP3   OH245837   0.198   1.650   6.399  0.2029  0.0173  0.3696
 8141TIP3    H145838   0.281   1.618   6.362  0.5063  1.0877  0.0900
 8141TIP3    H245839   0.175   1.585   6.465  2.0406  0.4516  1.5095
 8142TIP3   OH245840   3.536   0.384   1.278 -0.5034  0.2500  0.3055
 8142TIP3    H145841   3.441   0.388   1.265 -0.3494  0.9723 -0.6858
 8142TIP3    H245842   3.573   0.388   1.190  0.4658  0.3824  0.7015
 8143TIP3   OH245843   5.280   6.455  15.774  0.0063 -0.1963  0.2758
 8143TIP3    H145844   5.189   6.472  15.798 -0.0110  0.2155 -0.0803
 8143TIP3    H245845   5.312   6.396  15.843  0.0444  1.1732  1.4841
 8144TIP3   OH245846   4.089   5.948  10.646  0.5323  0.4061 -0.2899
 8144TIP3    H145847   4.009   5.930  10.695  0.5476  0.5644 -0.2036
 8144TIP3    H245848   4.139   5.867  10.652  0.3176  0.2587 -0.4642
 8145TIP3   OH245849   6.393   4.969  12.231  0.0958  0.0734 -0.4514
 8145TIP3    H145850   6.365   5.040  12.173  4.0427  2.0875 -0.2098
 8145TIP3    H245851   6.408   4.895  12.173 -1.8767  0.0639 -1.0303
 8146TIP3   OH245852   3.615   1.217  11.105  0.6326 -0.5235 -0.2116
 8146TIP3    H145853   3.614   1.124  11.083 -1.1569 -0.7929  0.7896
 8146TIP3    H245854   3.528   1.249  11.080  0.6621  0.5001  0.8617
 8147TIP3   OH245855   2.844   1.784  16.799 -0.3497  0.3176 -0.2966
 8147TIP3    H145856   2.931   1.746  16.786  0.3779  1.5084  0.8665
 8147TIP3    H245857   2.823   1.821  16.714  1.3983  2.1579 -0.0116
 8148TIP3   OH245858   3.615   3.244  11.208  0.3237 -0.2734  0.5210
 8148TIP3    H145859   3.669   3.191  11.150 -0.4076 -1.4925  0.9007
 8148TIP3    H245860   3.525   3.216  11.190 -0.2413  1.7860 -0.1748
 8149TIP3   OH245861   6.121   6.023  15.453  0.6464  0.1890 -0.1391
 8149TIP3    H145862   6.151   6.111  15.428 -1.6794  0.2098 -3.5363
 8149TIP3    H245863   6.182   5.963  15.411  0.7224  0.1681 -0.0017
 8150TIP3   OH245864   0.665   4.289  12.674  0.3155  0.1891  0.5412
 8150TIP3    H145865   0.674   4.224  12.744  0.5765 -1.9534 -1.3387
 8150TIP3    H245866   0.583   4.266  12.630 -0.1147  1.8269  0.4298
 8151TIP3   OH245867   0.231   5.160   1.987  0.1720 -0.2416  0.4595
 8151TIP3    H145868   0.284   5.228   2.028  0.7690  1.5287 -2.8852
 8151TIP3    H245869   0.141   5.184   2.007  0.3976  1.2943 -0.2530
 8152TIP3   OH245870   2.075   2.657   3.453  0.0167  0.0873 -0.1666
 8152TIP3    H145871   2.025   2.710   3.390 -0.8202 -0.6092 -0.1107
 8152TIP3    H245872   2.011   2.596   3.489  0.5739  0.2202  1.0923
 8153TIP3   OH245873   5.996   4.043   5.150  0.4366  0.1927  0.0898
 8153TIP3    H145874   5.986   4.014   5.241 -1.5683 -0.1415 -0.1793
 8153TIP3    H245875   6.008   3.963   5.100 -0.8977  0.1395 -0.1832
 8154TIP3   OH245876   5.597   3.216  12.696  0.4833 -0.1088  0.4394
 8154TIP3    H145877   5.526   3.209  12.633 -0.4887 -3.1282  1.7118
 8154TIP3    H245878   5.626   3.308  12.690 -1.5006  0.4395 -2.2114
 8155TIP3   OH245879   5.918   4.317   0.418  0.3318 -0.2243 -0.5654
 8155TIP3    H145880   5.862   4.336   0.494 -0.5333 -0.8786 -1.0175
 8155TIP3    H245881   6.005   4.305   0.455  0.3800  1.6868  0.0554
 8156TIP3   OH245882   1.432   3.941   5.702 -0.3261  0.3314  0.5373
 8156TIP3    H145883   1.425   4.024   5.751  2.2731 -0.1020  1.8333
 8156TIP3    H245884   1.521   3.942   5.667 -0.5330 -1.5754 -0.1316
 8157TIP3   OH245885   6.580   4.659  12.738  0.3220 -0.0655 -0.1093
 8157TIP3    H145886   6.492   4.643  12.702 -0.0668  1.2145  0.2219
 8157TIP3    H245887   6.628   4.699  12.666 -0.6143  2.9938  0.8260
 8158TIP3   OH245888   5.594   4.896  16.889 -0.4127 -0.2751 -0.1624
 8158TIP3    H145889   5.581   4.809  16.850  2.3642 -2.2087  2.6840
 8158TIP3    H245890   5.544   4.892  16.971 -1.8652  1.6792 -0.8751
 8159TIP3   OH245891   1.134   2.189   5.316  0.0015 -0.0668  0.2091
 8159TIP3    H145892   1.189   2.114   5.338 -0.9489 -1.4364 -1.8005
 8159TIP3    H245893   1.196   2.262   5.308  1.1642 -0.9805  0.5843
 8160TIP3   OH245894   3.355   2.680   0.580  0.6218 -0.3295 -0.3479
 8160TIP3    H145895   3.412   2.708   0.509  0.3086 -0.7593 -0.7761
 8160TIP3    H245896   3.373   2.741   0.652  0.5149  0.4759 -0.9897
 8161TIP3   OH245897   4.377   2.140  17.397  0.0220  0.4695  0.6836
 8161TIP3    H145898   4.457   2.192  17.391  0.3337  0.1487  1.7467
 8161TIP3    H245899   4.332   2.175  17.473 -1.0040  0.8438 -0.0845
 8162TIP3   OH245900   0.547   4.672   1.187 -0.0074  0.1131  0.1169
 8162TIP3    H145901   0.610   4.607   1.156 -0.6698 -0.2828 -0.4302
 8162TIP3    H245902   0.465   4.650   1.142 -0.6690  0.3321  1.1655
 8163TIP3   OH245903   1.119   2.454  13.463  0.1207 -0.1258  0.3131
 8163TIP3    H145904   1.169   2.460  13.544 -0.0027  2.0163  0.2697
 8163TIP3    H245905   1.069   2.535  13.459 -0.1436 -0.3327 -1.7414
 8164TIP3   OH245906   3.961   6.472  15.405  0.0326 -0.7000  0.1308
 8164TIP3    H145907   4.039   6.482  15.460  0.0377 -1.4656  0.2776
 8164TIP3    H245908   3.961   6.379  15.381 -0.9237 -0.7413  0.2626
 8165TIP3   OH245909   1.535   6.337   5.907 -0.3316  0.0296  0.7338
 8165TIP3    H145910   1.516   6.316   5.815 -1.3379  1.4493  0.5885
 8165TIP3    H245911   1.630   6.333   5.912 -0.0782  2.0564 -0.9617
 8166TIP3   OH245912   3.965   2.325  13.662  0.2599  0.1268 -0.3868
 8166TIP3    H145913   3.913   2.400  13.635  1.5659  0.2305 -2.7880
 8166TIP3    H245914   4.051   2.361  13.683  0.4203 -0.5086  0.0935
 8167TIP3   OH245915   1.938   4.567  14.679  0.4343 -0.3499  0.2457
 8167TIP3    H145916   1.861   4.546  14.732  1.1960 -0.5590  1.2976
 8167TIP3    H245917   1.979   4.641  14.724 -0.4998  1.4438 -1.6948
 8168TIP3   OH245918   1.853   6.426   5.069 -0.2724  0.0711 -0.0518
 8168TIP3    H145919   1.936   6.442   5.024  0.2594 -1.3738  0.3479
 8168TIP3    H245920   1.839   6.504   5.122  0.6630  0.4893 -0.4039
 8169TIP3   OH245921   4.008   0.038  12.890  0.0276 -0.0031 -0.1226
 8169TIP3    H145922   3.948   0.113  12.892  1.2722  1.0326  0.2785
 8169TIP3    H245923   4.022   0.021  12.796  0.0474  0.5430 -0.2216
 8170TIP3   OH245924   5.374   1.000  15.796  0.4183 -0.2172 -0.2975
 8170TIP3    H145925   5.427   0.952  15.733  1.0072 -0.0835  0.0906
 8170TIP3    H245926   5.434   1.019  15.868 -0.0090  0.4400 -0.1110
 8171TIP3   OH245927   6.214   0.608   0.334 -0.4727 -0.3232  0.6448
 8171TIP3    H145928   6.179   0.695   0.348  0.5581  0.1654  0.2824
 8171TIP3    H245929   6.291   0.603   0.391 -0.5703 -1.0239  0.7307
 8172TIP3   OH245930   1.313   3.387  12.309 -0.1480  0.4539 -0.0060
 8172TIP3    H145931   1.271   3.358  12.389 -1.2153 -0.8575 -1.0044
 8172TIP3    H245932   1.268   3.468  12.286 -0.2104  0.5387  0.4040
 8173TIP3   OH245933   4.833   5.447  11.098  0.3827 -0.1183  0.7645
 8173TIP3    H145934   4.901   5.381  11.087 -0.6990 -1.1096 -0.2028
 8173TIP3    H245935   4.804   5.468  11.010  0.0002  0.8991  1.1149
 8174TIP3   OH245936   6.372   0.121   5.922  0.2860 -0.0973 -0.7004
 8174TIP3    H145937   6.416   0.192   5.968 -0.1464  0.4723 -1.1552
 8174TIP3    H245938   6.428   0.104   5.846 -0.5956  1.1030 -1.6651
 8175TIP3   OH245939   0.691   4.940  12.923  0.1747 -0.1876 -0.6919
 8175TIP3    H145940   0.654   4.933  13.011 -0.9355 -1.0143 -1.1997
 8175TIP3    H245941   0.784   4.917  12.935 -0.4968 -2.9796 -0.1141
 8176TIP3   OH245942   4.204   3.812  12.293 -0.2066  0.6778  0.2723
 8176TIP3    H145943   4.259   3.760  12.352  1.3393  2.0037  0.0569
 8176TIP3    H245944   4.232   3.786  12.205 -0.4361  0.8432  0.1510
 8177TIP3   OH245945   3.957   2.145  16.914 -0.0889  0.2622 -0.8978
 8177TIP3    H145946   4.032   2.202  16.932 -0.7564  1.7198 -2.4665
 8177TIP3    H245947   3.884   2.206  16.898 -0.9330 -1.0206 -2.1834
 8178TIP3   OH245948   4.403   1.481   2.625  0.0757  0.4127 -0.1473
 8178TIP3    H145949   4.482   1.426   2.625 -1.5599 -2.1630  0.7404
 8178TIP3    H245950   4.376   1.485   2.533  0.3712 -0.0764 -0.2609
 8179TIP3   OH245951   5.178   5.922  17.602 -0.2558 -0.6624 -0.0614
 8179TIP3    H145952   5.095   5.885  17.571 -0.2555  1.5160 -3.0442
 8179TIP3    H245953   5.234   5.922  17.524  1.0422  1.8674  0.7756
 8180TIP3   OH245954   4.243   4.177  13.444  0.0449 -0.1089 -0.1565
 8180TIP3    H145955   4.269   4.128  13.366  3.1889  0.2356  0.5490
 8180TIP3    H245956   4.320   4.227  13.469 -1.9199  2.4975  1.2386
 8181TIP3   OH245957   5.834   0.733  15.712  0.5009  0.0807 -0.1613
 8181TIP3    H145958   5.820   0.669  15.782  0.4161 -0.0488 -0.2977
 8181TIP3    H245959   5.843   0.680  15.633  1.1705  0.1952 -0.1626
 8182TIP3   OH245960   5.093   5.882  15.345 -0.1145 -0.0099 -0.5643
 8182TIP3    H145961   5.103   5.937  15.422  1.8276  2.9044 -2.6573
 8182TIP3    H245962   5.158   5.812  15.357 -0.0162  0.2617  0.5482
 8183TIP3   OH245963   1.009   0.429  16.948 -0.5190  0.5231  0.4652
 8183TIP3    H145964   1.099   0.399  16.961 -0.5290  0.9376  1.6171
 8183TIP3    H245965   1.011   0.474  16.863  0.7609  1.9663  1.2183
 8184TIP3   OH245966   5.389   1.490   2.018 -0.1051  0.2363  0.7534
 8184TIP3    H145967   5.381   1.408   1.969 -1.9737  1.8774 -1.9543
 8184TIP3    H245968   5.334   1.477   2.095  0.7229 -1.4768  1.1087
 8185TIP3   OH245969   6.642   1.636  16.605 -0.3245  0.0965  1.0269
 8185TIP3    H145970   6.551   1.666  16.612 -0.3446 -0.2351  2.9325
 8185TIP3    H245971   6.670   1.627  16.696  2.4205  2.4898  0.5303
 8186TIP3   OH245972   0.103   3.521   6.150  0.1566 -0.0321 -0.2643
 8186TIP3    H145973   0.176   3.581   6.136 -0.0321  0.5218  0.9412
 8186TIP3    H245974   0.122   3.480   6.235 -0.4647 -0.5823 -0.3792
 8187TIP3   OH245975   0.576   6.478   2.283  0.3964 -0.5707  0.4292
 8187TIP3    H145976   0.529   6.486   2.367 -0.1850  0.0614  0.0534
 8187TIP3    H245977   0.508   6.455   2.220  0.2212  2.0262 -0.4459
 8188TIP3   OH245978   2.853   6.231   2.312 -0.1172  0.3803 -0.4331
 8188TIP3    H145979   2.932   6.179   2.329 -1.5016 -1.6743  0.0682
 8188TIP3    H245980   2.848   6.291   2.385  0.0454 -0.6946  0.4880
 8189TIP3   OH245981   0.272   3.196  15.821  0.5053  0.0170 -0.1104
 8189TIP3    H145982   0.307   3.233  15.902  1.4033  0.3846 -0.6432
 8189TIP3    H245983   0.179   3.214  15.824  0.2277 -1.3794  1.5768
 8190TIP3   OH245984   5.735   4.271  14.506  0.3845  0.2251 -0.1536
 8190TIP3    H145985   5.748   4.363  14.530  1.2539 -0.2923  1.5439
 8190TIP3    H245986   5.654   4.246  14.550  1.2151 -0.3411  1.0999
 8191TIP3   OH245987   6.076   6.213  16.998  0.3244  0.2192  0.0459
 8191TIP3    H145988   6.004   6.162  16.960 -0.4654  0.7681  0.7865
 8191TIP3    H245989   6.112   6.262  16.924  0.1647 -0.3095 -0.3937
 8192TIP3   OH245990   1.896   2.653   6.476 -1.1115  0.4422  0.3876
 8192TIP3    H145991   1.986   2.641   6.506 -1.1856  1.4364  1.0408
 8192TIP3    H245992   1.877   2.745   6.492 -1.1960  1.0538 -2.7110
 8193TIP3   OH245993   4.693   2.715   0.605 -0.0075 -0.4540  0.1782
 8193TIP3    H145994   4.721   2.805   0.624  0.5045 -0.9577  2.0543
 8193TIP3    H245995   4.640   2.690   0.680 -1.2439 -1.3086 -0.9345
 8194TIP3   OH245996   0.498   3.241   4.003 -0.7379  0.6080  0.2875
 8194TIP3    H145997   0.577   3.275   4.045 -0.5785  0.2002  0.3215
 8194TIP3    H245998   0.512   3.259   3.909 -0.5332  0.3917  0.2761
 8195TIP3   OH245999   6.519   3.767  16.033 -0.2780  0.5246 -0.3333
 8195TIP3    H146000   6.521   3.690  16.090  2.8212  1.2993  0.7933
 8195TIP3    H246001   6.426   3.785  16.021 -1.0887 -2.2686  0.8659
 8196TIP3   OH246002   6.455   5.781   4.040 -0.0681 -0.0827  0.0607
 8196TIP3    H146003   6.495   5.702   4.075  0.8720 -0.1256 -1.0421
 8196TIP3    H246004   6.363   5.757   4.026 -0.3779 -0.1822  2.0285
 8197TIP3   OH246005   0.891   2.099  16.059 -0.0008 -0.6897  0.1784
 8197TIP3    H146006   0.967   2.133  16.011  0.4109 -2.6176 -0.5968
 8197TIP3    H246007   0.918   2.105  16.151  1.7936 -2.7905 -0.1362
 8198TIP3   OH246008   0.586   2.051  14.854 -0.2329  0.4610  0.0066
 8198TIP3    H146009   0.566   2.074  14.763  0.6527 -0.5953 -0.4675
 8198TIP3    H246010   0.681   2.051  14.859 -0.2727  0.5287  0.9513
 8199TIP3   OH246011   3.380   2.063  17.534 -0.1988  0.7601  0.4434
 8199TIP3    H146012   3.370   2.067  17.629 -1.1248 -0.1734  0.4035
 8199TIP3    H246013   3.414   2.150  17.510  0.9242  0.7123  1.7057
 8200TIP3   OH246014   6.339   3.063   3.495 -0.1773  0.2500 -0.1303
 8200TIP3    H146015   6.330   3.091   3.586 -0.5987  2.5650 -0.8122
 8200TIP3    H246016   6.433   3.054   3.482 -0.1407 -0.6868  0.6688
 8201TIP3   OH246017   2.174   5.146   5.756  0.7207 -0.2003  0.3703
 8201TIP3    H146018   2.097   5.166   5.809  1.3822  1.7862  0.6502
 8201TIP3    H246019   2.248   5.168   5.812  1.4644 -0.2963 -0.5567
 8202TIP3   OH246020   0.499   4.454  15.985  0.2669  0.0205 -0.0609
 8202TIP3    H146021   0.555   4.405  15.925 -0.7894  0.2141 -1.2557
 8202TIP3    H246022   0.495   4.400  16.064  0.8337 -0.7697 -0.5595
 8203TIP3   OH246023   0.459   6.700  17.264  0.5486 -0.4109 -0.1769
 8203TIP3    H146024   0.521   6.627  17.260 -0.7547 -1.6127  0.4633
 8203TIP3    H246025   0.383   6.664  17.309  0.3119  1.7105  1.2583
 8204TIP3   OH246026   6.032   1.569  12.914  0.7361 -0.0347  0.2516
 8204TIP3    H146027   6.097   1.629  12.951 -0.0741  1.1648 -0.2221
 8204TIP3    H246028   6.021   1.597  12.824  0.3413 -0.9055  0.0185
 8205TIP3   OH246029   5.686   4.547  14.561 -0.4392  0.0709  0.1089
 8205TIP3    H146030   5.591   4.551  14.575 -0.5941 -2.0305 -0.0324
 8205TIP3    H246031   5.718   4.633  14.587 -2.0865  0.0706  2.4545
 8206TIP3   OH246032   2.163   1.302  16.398  0.1375  0.2885 -0.4667
 8206TIP3    H146033   2.155   1.215  16.438 -1.8657  0.9696  0.7946
 8206TIP3    H246034   2.216   1.352  16.460 -1.2876  0.7830  0.3976
 8207TIP3   OH246035   4.551   3.213  13.732 -0.4002 -0.0933  0.4707
 8207TIP3    H146036   4.510   3.295  13.759 -0.4539 -0.6270  2.1377
 8207TIP3    H246037   4.633   3.210  13.783  1.1180  0.3316 -1.8122
 8208TIP3   OH246038   4.331   5.584  13.969  0.1752 -0.5100 -0.7684
 8208TIP3    H146039   4.310   5.499  14.008  1.4158 -0.3197  0.3998
 8208TIP3    H246040   4.426   5.582  13.959  0.2411  0.8161 -0.5122
 8209TIP3   OH246041   5.156   1.659  13.361  0.0462 -0.1536  0.1072
 8209TIP3    H146042   5.095   1.699  13.423 -0.0296 -2.1274  1.3905
 8209TIP3    H246043   5.242   1.673  13.400  0.3348  1.2649 -0.9339
 8210TIP3   OH246044   0.922   5.268  14.806  0.5713  0.2899 -0.1220
 8210TIP3    H146045   0.903   5.361  14.808 -2.0289 -0.1493  1.8588
 8210TIP3    H246046   0.842   5.228  14.770  2.2208 -1.1370 -2.4771
 8211TIP3   OH246047   1.235   5.369  15.999  0.2712  0.7894  0.2148
 8211TIP3    H146048   1.143   5.383  15.976  0.6209  1.9625 -0.5510
 8211TIP3    H246049   1.283   5.389  15.919  1.1233 -1.3493  0.1357
 8212TIP3   OH246050   6.364   5.862  17.228 -0.2206  0.0932 -0.0846
 8212TIP3    H146051   6.294   5.927  17.232  0.6919  1.2001 -1.1893
 8212TIP3    H246052   6.424   5.888  17.298  0.6066  1.0488 -1.1098
 8213TIP3   OH246053   2.896   0.453  11.439  0.1319 -0.2606  0.0473
 8213TIP3    H146054   2.902   0.370  11.392  0.1603 -0.5855  0.6185
 8213TIP3    H246055   2.911   0.519  11.372  0.1316 -0.7158 -0.4106
 8214TIP3   OH246056   5.373   0.144  17.191 -0.0055 -0.3395  0.1196
 8214TIP3    H146057   5.448   0.087  17.204  1.1531  0.9348 -0.6755
 8214TIP3    H246058   5.351   0.133  17.098  0.8668  1.2116 -0.2964
 8215TIP3   OH246059   2.141   6.326  10.995 -0.8201 -0.4131 -0.2326
 8215TIP3    H146060   2.211   6.296  10.937 -0.8312 -1.0732  0.0850
 8215TIP3    H246061   2.061   6.315  10.943 -0.6118  1.2867 -0.9601
 8216TIP3   OH246062   0.583   4.110   1.199  0.3410  0.4232  0.3312
 8216TIP3    H146063   0.608   4.181   1.259  2.4063  1.6409 -1.8082
 8216TIP3    H246064   0.655   4.047   1.205  0.5909  0.5749 -0.8414
 8217TIP3   OH246065   4.391   5.481   3.488 -0.2065 -0.2603  0.0567
 8217TIP3    H146066   4.452   5.488   3.561  0.8064  0.6850 -0.8335
 8217TIP3    H246067   4.421   5.405   3.439 -1.0765 -1.0826  0.7719
 8218TIP3   OH246068   4.196   1.430  14.206 -0.1325 -0.0524 -0.1465
 8218TIP3    H146069   4.109   1.400  14.231  0.0525 -0.1851  0.3546
 8218TIP3    H246070   4.204   1.406  14.114  0.1970 -2.0414  0.3627
 8219TIP3   OH246071   2.433   1.667   0.721 -0.3142  0.0079 -0.7313
 8219TIP3    H146072   2.427   1.701   0.632 -0.5360 -0.3725 -0.8669
 8219TIP3    H246073   2.456   1.742   0.775  0.4836  0.1093 -1.2029
 8220TIP3   OH246074   0.652   0.668  16.773 -0.3503  0.0739  0.0357
 8220TIP3    H146075   0.649   0.627  16.687 -2.2633  0.9487 -0.3695
 8220TIP3    H246076   0.737   0.712  16.775  0.5022 -1.4589 -0.6457
 8221TIP3   OH246077   5.239   4.769   5.587 -0.0291  0.3187  0.6212
 8221TIP3    H146078   5.155   4.803   5.555  0.4404  1.6691  0.7807
 8221TIP3    H246079   5.214   4.701   5.651 -0.9725 -1.2675 -1.3236
 8222TIP3   OH246080   5.984   2.849   1.485 -0.1724 -0.4207 -0.3311
 8222TIP3    H146081   6.027   2.898   1.556 -0.5626 -1.6223  0.7669
 8222TIP3    H246082   6.027   2.880   1.406  1.7952 -0.5874  0.6131
 8223TIP3   OH246083   4.575   0.313  12.537 -0.3498 -0.3983 -0.3182
 8223TIP3    H146084   4.663   0.291  12.507 -0.2920  0.3558 -0.7479
 8223TIP3    H246085   4.573   0.287  12.629  0.6500  0.4574 -0.0360
 8224TIP3   OH246086   5.266   3.487   5.609 -0.0037  0.5636 -0.2409
 8224TIP3    H146087   5.317   3.470   5.530  1.2818  0.0135  0.6714
 8224TIP3    H246088   5.242   3.580   5.603 -2.4018 -0.0849 -2.6200
 8225TIP3   OH246089   2.305   5.950   0.275  0.1091  0.6457 -0.6471
 8225TIP3    H146090   2.313   5.862   0.313  0.7475  0.8456 -0.3056
 8225TIP3    H246091   2.228   5.988   0.318  0.9985  0.9837  0.7005
 8226TIP3   OH246092   0.543   1.195   3.370  0.3588 -0.3490 -0.1851
 8226TIP3    H146093   0.566   1.287   3.384  1.0104 -0.4849 -0.3392
 8226TIP3    H246094   0.449   1.197   3.349  0.4876  0.3422 -0.7336
 8227TIP3   OH246095   3.067   2.076  16.004 -0.3691  0.0779  0.0945
 8227TIP3    H146096   3.160   2.079  15.981 -0.5367  0.6908 -0.5406
 8227TIP3    H246097   3.053   1.987  16.035  0.6798  0.3051  1.3176
 8228TIP3   OH246098   2.575   6.146   3.729  0.1019  0.5219 -0.7026
 8228TIP3    H146099   2.610   6.109   3.648  2.8858  0.5950  0.3463
 8228TIP3    H246100   2.623   6.229   3.740 -0.9430  0.9863  0.5163
 8229TIP3   OH246101   1.301   2.737  17.133  0.8174  0.2005 -0.2468
 8229TIP3    H146102   1.221   2.774  17.095 -0.5351 -1.0307  1.2469
 8229TIP3    H246103   1.326   2.800  17.201  0.0614 -0.2580  0.4815
 8230TIP3   OH246104   2.275   4.823  13.255 -0.2864 -0.2535  0.3050
 8230TIP3    H146105   2.316   4.739  13.235 -1.4931 -1.0805  1.1556
 8230TIP3    H246106   2.348   4.882  13.271  0.5831 -1.3072  0.3253
 8231TIP3   OH246107   0.722   5.362   2.531 -0.8136  0.2446 -0.1442
 8231TIP3    H146108   0.744   5.269   2.526 -0.1098  0.4070 -0.2039
 8231TIP3    H246109   0.802   5.407   2.501  0.1846  0.9854  3.2135
 8232TIP3   OH246110   3.189   4.276  15.893 -0.4451  0.3289  0.4049
 8232TIP3    H146111   3.178   4.288  15.799  0.4519 -1.4324  0.0317
 8232TIP3    H246112   3.228   4.189  15.902 -2.9711 -0.7351  2.5486
 8233TIP3   OH246113   5.630   1.858  11.008 -0.7868 -0.4736  0.0012
 8233TIP3    H146114   5.714   1.849  11.053 -1.1652  0.5448  0.9569
 8233TIP3    H246115   5.570   1.803  11.059 -0.8405 -0.7022 -0.3076
 8234TIP3   OH246116   2.367   0.078  16.591  0.0112 -0.4719 -0.7389
 8234TIP3    H146117   2.307   0.004  16.600  0.0157 -0.6618 -2.0820
 8234TIP3    H246118   2.310   0.154  16.589 -0.2833 -0.6994 -2.7139
 8235TIP3   OH246119   5.038   6.582  15.031  0.0192 -0.2908  0.1769
 8235TIP3    H146120   5.133   6.566  15.031 -0.0130 -1.3111  4.0315
 8235TIP3    H246121   5.030   6.673  15.003  1.8393 -0.8143 -2.5402
 8236TIP3   OH246122   5.385   4.509  17.005 -0.0503  1.1113 -0.3620
 8236TIP3    H146123   5.293   4.484  17.001 -0.2612  1.8870 -0.4870
 8236TIP3    H246124   5.385   4.597  17.042  0.6033  1.3219 -0.8348
 8237TIP3   OH246125   0.510   2.336  15.422 -0.3850 -0.1886  0.2607
 8237TIP3    H146126   0.455   2.369  15.351  1.7424  0.8980 -0.9854
 8237TIP3    H246127   0.514   2.409  15.484  0.4193  0.1182 -0.1396
 8238TIP3   OH246128   5.272   5.112   3.133 -0.1585 -0.2650 -0.3919
 8238TIP3    H146129   5.210   5.046   3.165  0.4128  0.3776  2.3322
 8238TIP3    H246130   5.358   5.073   3.150  0.1781  0.9569  0.9009
 8239TIP3   OH246131   0.733   1.914  15.123 -0.6833  0.7333 -0.1343
 8239TIP3    H146132   0.826   1.910  15.144 -0.3832  2.0672 -1.0921
 8239TIP3    H246133   0.726   1.877  15.035 -1.2127 -0.2272  0.2924
 8240TIP3   OH246134   2.046   2.018  13.271 -0.4279 -0.1201 -0.4210
 8240TIP3    H146135   1.973   1.998  13.213 -1.5221 -0.4090  1.0002
 8240TIP3    H246136   2.028   2.107  13.302 -0.3135 -0.2856  0.1308
 8241TIP3   OH246137   5.647   4.840  15.911  0.3517 -0.3425  0.2123
 8241TIP3    H146138   5.665   4.879  15.996  0.6345 -0.3469  0.1557
 8241TIP3    H246139   5.624   4.914  15.855 -0.8141 -0.4343  0.5334
 8242TIP3   OH246140   4.612   0.493  16.008 -0.2474  0.1927  0.1093
 8242TIP3    H146141   4.544   0.466  15.947 -0.9552 -0.8767  1.2998
 8242TIP3    H246142   4.694   0.466  15.967 -0.5378  1.2234 -1.2025
 8243TIP3   OH246143   0.137   0.471  10.646  0.0589  0.4724 -0.8313
 8243TIP3    H146144   0.129   0.405  10.577 -1.1228 -0.9439  0.5695
 8243TIP3    H246145   0.190   0.540  10.607  0.0020 -0.5674 -2.9134
 8244TIP3   OH246146   4.544   3.764  12.534 -0.4546  0.1009  0.2068
 8244TIP3    H146147   4.503   3.849  12.517 -0.6409 -0.3650 -1.8709
 8244TIP3    H246148   4.628   3.768  12.489 -1.0438 -1.2837 -1.0905
 8245TIP3   OH246149   4.997   3.961   5.593  0.1917 -0.2961 -0.4146
 8245TIP3    H146150   4.912   3.924   5.617 -0.3233  2.1032  1.9742
 8245TIP3    H246151   4.985   4.055   5.603  3.4417  0.0743  1.1643
 8246TIP3   OH246152   0.109   3.684   2.904 -0.3662 -0.3608  0.1614
 8246TIP3    H146153   0.092   3.691   2.998 -0.1920  2.8953  0.0595
 8246TIP3    H246154   0.203   3.673   2.897 -0.0337  1.8881  0.4023
 8247TIP3   OH246155   3.536   2.473   1.050 -0.1555  0.1416  0.3029
 8247TIP3    H146156   3.607   2.409   1.056 -0.4613 -0.2709 -0.3638
 8247TIP3    H246157   3.503   2.480   1.140 -0.2495 -0.7913  0.3550
 8248TIP3   OH246158   5.197   4.057  17.567  0.2907  0.4503  0.0133
 8248TIP3    H146159   5.187   4.006  17.647  1.8665  0.5587  0.3220
 8248TIP3    H246160   5.111   4.054  17.525  0.0814 -1.7310  0.4594
 8249TIP3   OH246161   2.478   0.668  14.953  0.4213  0.3730  0.0664
 8249TIP3    H146162   2.542   0.727  14.913  0.0451  1.1245  0.5314
 8249TIP3    H246163   2.406   0.726  14.979 -0.9147 -0.5819 -1.3364
 8250TIP3   OH246164   5.046   3.900  12.294 -0.1169  0.3279 -0.2053
 8250TIP3    H146165   5.032   3.914  12.200 -1.4803  0.8884  0.0495
 8250TIP3    H246166   5.099   3.975  12.322  2.2364 -0.9875 -0.9016
 8251TIP3   OH246167   4.075   6.233  16.882 -1.2449 -0.5116 -0.0854
 8251TIP3    H146168   4.088   6.237  16.787 -2.5142  0.6737 -0.2501
 8251TIP3    H246169   4.154   6.273  16.918 -0.5853 -1.3092 -0.6170
 8252TIP3   OH246170   5.190   2.597  10.883  0.5530  0.7171  0.3829
 8252TIP3    H146171   5.267   2.568  10.833 -0.8493 -0.4018 -1.2479
 8252TIP3    H246172   5.144   2.657  10.825 -1.8726 -1.6993 -0.4279
 8253TIP3   OH246173   5.244   2.641   0.505  0.1494  1.1924  0.2519
 8253TIP3    H146174   5.226   2.670   0.595  1.0145 -0.4050  0.9823
 8253TIP3    H246175   5.159   2.615   0.471  0.1036 -0.3548  1.4453
 8254TIP3   OH246176   3.659   1.206  11.950 -0.4911 -0.0656  0.1333
 8254TIP3    H146177   3.652   1.300  11.932 -0.0513  0.4044  2.0965
 8254TIP3    H246178   3.753   1.190  11.956 -0.5755 -0.1218  1.9276
 8255TIP3   OH246179   0.115   4.443   4.003  0.0700  0.1350 -0.0430
 8255TIP3    H146180   0.183   4.488   4.054 -0.0254 -0.7760  0.9159
 8255TIP3    H246181   0.101   4.361   4.049 -0.2974 -0.5566 -1.3407
 8256TIP3   OH246182   5.781   1.016  16.768  0.0097  0.0229  0.1769
 8256TIP3    H146183   5.791   1.057  16.853  1.7059  2.0701 -0.9163
 8256TIP3    H246184   5.869   0.989  16.743 -0.3105  0.2185 -1.2746
 8257TIP3   OH246185   3.158   4.082  13.060 -0.0499  0.4201  0.5901
 8257TIP3    H146186   3.216   4.037  12.998  1.4023  1.9663  0.7239
 8257TIP3    H246187   3.148   4.021  13.133 -0.0313 -0.5793 -0.2225
 8258TIP3   OH246188   5.166   5.607   2.679 -0.1784 -0.8013 -0.0144
 8258TIP3    H146189   5.143   5.684   2.730 -0.6145 -1.0899  0.2363
 8258TIP3    H246190   5.234   5.564   2.730 -0.3637 -0.9015  0.1497
 8259TIP3   OH246191   1.675   3.961  17.526 -0.3421  1.1679 -0.1520
 8259TIP3    H146192   1.748   4.018  17.503  0.9592 -0.0335  0.7999
 8259TIP3    H246193   1.666   3.903  17.450  0.0598  0.9707 -0.0512
 8260TIP3   OH246194   5.120   0.943  11.730  0.4899  0.0254 -0.8158
 8260TIP3    H146195   5.117   1.022  11.784  0.9406 -0.1069 -0.5961
 8260TIP3    H246196   5.095   0.872  11.789  0.0994 -0.0017 -1.0090
 8261TIP3   OH246197   2.147   2.634  15.878 -0.1321 -0.2918  0.0298
 8261TIP3    H146198   2.179   2.555  15.922 -0.9398 -1.3090 -1.1255
 8261TIP3    H246199   2.138   2.699  15.948 -0.3515 -1.5137  1.1813
 8262TIP3   OH246200   5.912   0.822   5.185 -0.3036 -0.3793 -0.6300
 8262TIP3    H146201   5.980   0.887   5.171 -1.6069  1.4297  0.9186
 8262TIP3    H246202   5.958   0.738   5.183  1.8343  0.7189 -0.3385
 8263TIP3   OH246203   4.747   0.399  14.563 -0.4364  0.1421 -0.3323
 8263TIP3    H146204   4.719   0.426  14.475 -1.8156 -0.4319 -0.1025
 8263TIP3    H246205   4.715   0.469  14.620 -1.2876 -0.4490 -0.0776
 8264TIP3   OH246206   6.286   1.354   2.475  0.1063 -0.4532  0.2204
 8264TIP3    H146207   6.282   1.344   2.570  0.5014  0.1901  0.3170
 8264TIP3    H246208   6.357   1.417   2.462 -2.5659  2.7675 -0.2288
 8265TIP3   OH246209   3.231   2.589   0.291  0.0110 -0.2251 -0.0661
 8265TIP3    H146210   3.185   2.664   0.328  1.0841 -0.5049  1.9641
 8265TIP3    H246211   3.189   2.513   0.330 -2.3968 -0.9575 -3.5891
 8266TIP3   OH246212   1.327   5.325   5.498  0.4884  0.0605 -0.4501
 8266TIP3    H146213   1.401   5.294   5.447 -0.0227 -0.8131 -0.6815
 8266TIP3    H246214   1.364   5.352   5.582  1.0287 -0.6724 -0.4471
 8267TIP3   OH246215   6.342   4.979  13.243  0.5455 -0.4099  0.1007
 8267TIP3    H146216   6.329   4.893  13.284  1.0288 -1.3079 -1.5589
 8267TIP3    H246217   6.409   5.021  13.296  2.2155 -2.1292 -0.5436
 8268TIP3   OH246218   5.731   2.445  12.981 -0.3910  0.0268 -0.1561
 8268TIP3    H146219   5.713   2.465  12.890  1.6099 -0.6671 -0.7534
 8268TIP3    H246220   5.749   2.530  13.022 -1.6264  0.3728 -0.2913
 8269TIP3   OH246221   6.485   2.867   0.073  0.1679 -0.2043 -0.2363
 8269TIP3    H146222   6.569   2.835   0.105 -1.2407 -1.6829  2.3050
 8269TIP3    H246223   6.454   2.799   0.014 -0.6226 -1.3121  1.3682
 8270TIP3   OH246224   5.852   5.217   3.856 -0.1659 -0.1004  0.4210
 8270TIP3    H146225   5.863   5.309   3.833  1.3671 -0.5957 -1.0489
 8270TIP3    H246226   5.892   5.208   3.943 -1.8836  0.8984  1.3804
 8271TIP3   OH246227   4.015   1.585  17.587  0.0590  0.0393  0.1311
 8271TIP3    H146228   4.063   1.512  17.547  0.9409  1.4278 -1.4862
 8271TIP3    H246229   4.070   1.612  17.660  0.4957  0.0263 -0.1862
 8272TIP3   OH246230   4.770   5.793   4.605 -0.1991  0.0400  0.3674
 8272TIP3    H146231   4.842   5.757   4.657  1.0417  0.7242 -0.8020
 8272TIP3    H246232   4.801   5.880   4.579 -1.0929 -0.0054 -0.9013
 8273TIP3   OH246233   0.880   4.033   0.564  0.0825  0.4824 -0.3331
 8273TIP3    H146234   0.821   4.106   0.580 -0.2561  0.1537 -0.0608
 8273TIP3    H246235   0.968   4.068   0.581 -0.0410  0.9543 -0.6839
 8274TIP3   OH246236   5.181   4.997  14.733  0.6006  0.0178  0.2094
 8274TIP3    H146237   5.120   5.068  14.712  0.5664 -0.3257 -0.9611
 8274TIP3    H246238   5.223   4.976  14.649  0.4576 -1.4668  0.4701
 8275TIP3   OH246239   5.117   1.619   1.179  0.6647  0.1527  0.4781
 8275TIP3    H146240   5.045   1.557   1.166 -0.7696  1.3112  2.3456
 8275TIP3    H246241   5.146   1.641   1.090 -2.7221  1.2123 -0.5270
 8276TIP3   OH246242   0.490   3.009  16.504 -0.2275 -0.3793 -0.0343
 8276TIP3    H146243   0.422   2.980  16.444  1.7951 -0.7955 -2.2546
 8276TIP3    H246244   0.497   2.939  16.569 -0.8955 -1.0043 -0.6319
 8277TIP3   OH246245   0.561   3.249   3.726 -0.3213 -0.2914 -0.2770
 8277TIP3    H146246   0.596   3.336   3.707 -0.2842 -0.4657 -1.0313
 8277TIP3    H246247   0.628   3.189   3.691 -1.8501 -0.6599 -2.8438
 8278TIP3   OH246248   5.927   5.905  12.837 -0.2870  0.4065 -0.1558
 8278TIP3    H146249   5.989   5.860  12.894  0.8788  2.6575  0.4798
 8278TIP3    H246250   5.973   5.916  12.754 -0.5360  0.4961 -0.2841
 8279TIP3   OH246251   4.493   2.276   0.346 -0.4015 -0.6240  0.8810
 8279TIP3    H146252   4.568   2.264   0.405  0.3906  0.3590  0.1113
 8279TIP3    H246253   4.531   2.314   0.267 -1.6925 -0.2817  0.4042
 8280TIP3   OH246254   1.832   2.953  15.123 -0.0670 -0.2784  0.8210
 8280TIP3    H146255   1.835   3.015  15.196 -1.5472  1.9619 -0.8997
 8280TIP3    H246256   1.923   2.926  15.112  0.9870  2.8668  0.6748
 8281TIP3   OH246257   2.276   2.097   2.066  0.0791  0.1545  0.2222
 8281TIP3    H146258   2.326   2.139   1.996  1.0160 -0.6530  0.4028
 8281TIP3    H246259   2.269   2.005   2.040  0.3271 -0.1296  1.1273
 8282TIP3   OH246260   4.395   5.557  14.880  0.1302 -0.0474  0.0702
 8282TIP3    H146261   4.476   5.607  14.875 -0.8570  1.7001  0.7335
 8282TIP3    H246262   4.391   5.526  14.970  0.3416 -0.6474 -0.1223
 8283TIP3   OH246263   2.857   4.965  16.809 -0.4995  0.1903 -0.6870
 8283TIP3    H146264   2.860   4.909  16.731  1.6335  0.3955 -0.8031
 8283TIP3    H246265   2.764   4.971  16.830 -0.9880 -1.3114 -2.1714
 8284TIP3   OH246266   1.406   3.293   2.363 -0.2821  0.1425  0.6451
 8284TIP3    H146267   1.354   3.239   2.305  0.9945 -0.7678  0.2973
 8284TIP3    H246268   1.426   3.236   2.438  1.8124 -0.2446 -0.1277
 8285TIP3   OH246269   2.413   6.141  14.782 -0.3148  0.1115  1.0149
 8285TIP3    H146270   2.452   6.053  14.788 -0.4053  0.0201  0.4238
 8285TIP3    H246271   2.357   6.136  14.704 -1.5729  0.2164  1.8820
 8286TIP3   OH246272   0.276   0.098  13.463 -0.4323  0.2999  0.3453
 8286TIP3    H146273   0.336   0.137  13.526  0.1038 -1.0824  0.7319
 8286TIP3    H246274   0.190   0.130  13.487 -0.2432 -0.2420  1.8366
 8287TIP3   OH246275   1.622   6.263  15.851 -0.4455 -0.3437  0.4023
 8287TIP3    H146276   1.655   6.265  15.761 -1.3662 -0.5872  0.0512
 8287TIP3    H246277   1.698   6.286  15.904  0.2712 -0.7999 -0.3892
 8288TIP3   OH246278   3.977   5.041  12.541  0.1354 -0.3703 -0.1397
 8288TIP3    H146279   3.914   5.104  12.575  1.6244  0.7643  0.6563
 8288TIP3    H246280   3.970   5.049  12.446 -1.8092 -1.2401 -0.1173
 8289TIP3   OH246281   2.094   1.342  13.833 -0.3788  0.2833  0.7595
 8289TIP3    H146282   2.038   1.390  13.894 -1.7474 -0.5731  0.2201
 8289TIP3    H246283   2.068   1.251  13.843  0.9745 -0.1462  0.5256
 8290TIP3   OH246284   0.578   4.494   5.964  0.3281 -0.3258  0.4124
 8290TIP3    H146285   0.514   4.451   6.020  0.9056 -0.0120  1.3331
 8290TIP3    H246286   0.657   4.502   6.018  0.8799  0.0563 -0.4155
 8291TIP3   OH246287   1.439   3.815  11.820  0.4742  0.0796  0.4652
 8291TIP3    H146288   1.395   3.793  11.738  1.2148 -1.2914  0.4084
 8291TIP3    H246289   1.511   3.752  11.826  1.4625  1.2432  1.3338
 8292TIP3   OH246290   1.438   4.105  11.521 -0.1743 -0.3633  0.3950
 8292TIP3    H146291   1.480   4.021  11.500  2.6509  1.3089 -1.2686
 8292TIP3    H246292   1.345   4.090  11.504  0.3100 -2.9910 -0.3656
 8293TIP3   OH246293   1.314   6.102  17.382 -0.2709 -0.1794  0.3071
 8293TIP3    H146294   1.288   6.167  17.317 -2.0245 -0.3371  0.7870
 8293TIP3    H246295   1.331   6.153  17.462 -0.2079 -0.1793  0.2936
 8294TIP3   OH246296   0.168   0.759  14.864  0.2116 -0.3264 -0.4656
 8294TIP3    H146297   0.163   0.686  14.802  1.5835  1.0354 -2.3064
 8294TIP3    H246298   0.184   0.836  14.809 -1.0066  1.3666  1.4036
 8295TIP3   OH246299   1.428   4.715  13.405 -0.0007 -0.3258  0.0036
 8295TIP3    H146300   1.494   4.750  13.345 -1.1315  0.8640 -0.6138
 8295TIP3    H246301   1.384   4.793  13.439 -0.3797 -1.0577  1.2222
 8296TIP3   OH246302   1.921   5.298   5.776 -0.5795 -0.2972  0.3159
 8296TIP3    H146303   1.957   5.372   5.729  3.1016 -1.4372  1.0298
 8296TIP3    H246304   1.890   5.334   5.859  1.1225  0.4941  0.6362
 8297TIP3   OH246305   4.537   4.348   5.735  0.8976 -0.1087 -0.1924
 8297TIP3    H146306   4.555   4.421   5.795 -1.8873  0.9373 -0.4636
 8297TIP3    H246307   4.481   4.386   5.667 -1.1289 -2.5556 -0.0477
 8298TIP3   OH246308   3.970   6.163   0.109  0.2302  0.2924  0.2185
 8298TIP3    H146309   4.023   6.086   0.130 -1.1841 -0.7315  0.1377
 8298TIP3    H246310   4.025   6.213   0.049  0.8659 -1.0493 -0.3638
 8299TIP3   OH246311   4.716   5.632  11.285 -0.1942 -0.1524  0.4891
 8299TIP3    H146312   4.732   5.570  11.214 -1.3874 -0.0722  0.1410
 8299TIP3    H246313   4.795   5.625  11.340  1.0119  0.1998 -1.1224
 8300TIP3   OH246314   4.192   0.360   5.332 -0.4398 -0.2431  0.2565
 8300TIP3    H146315   4.259   0.426   5.317 -0.5878 -0.2740 -0.5883
 8300TIP3    H246316   4.122   0.406   5.379  0.0981 -0.1792  1.0217
 8301TIP3   OH246317   0.065   3.223   0.013 -0.9832 -0.2055 -0.3212
 8301TIP3    H146318   0.113   3.305   0.022  0.7433 -1.3176  1.4150
 8301TIP3    H246319   0.042   3.198   0.102 -2.2817 -1.1805 -0.8916
 8302TIP3   OH246320   5.802   3.892   1.671  0.3434 -0.2583 -0.2636
 8302TIP3    H146321   5.883   3.840   1.672  0.9737  0.6911 -0.8564
 8302TIP3    H246322   5.822   3.966   1.614  0.1102  1.6785  2.0024
 8303TIP3   OH246323   5.134   0.231   4.896 -0.6526  0.5764 -0.3416
 8303TIP3    H146324   5.203   0.278   4.849  1.6306  0.2031  2.3079
 8303TIP3    H246325   5.172   0.144   4.914 -2.5293 -0.2859 -0.2833
 8304TIP3   OH246326   3.625   1.381  17.503 -0.1918 -0.7044  0.0402
 8304TIP3    H146327   3.603   1.474  17.491 -3.0161 -1.2811  0.0981
 8304TIP3    H246328   3.654   1.376  17.594  1.4657  0.3166 -0.3824
 8305TIP3   OH246329   3.961   5.526  13.404 -0.4913 -0.0262  0.2732
 8305TIP3    H146330   3.953   5.589  13.475 -1.2482  0.8304 -0.5515
 8305TIP3    H246331   4.023   5.461  13.437 -1.0677  0.1813  1.8283
 8306TIP3   OH246332   4.510   0.328   3.243 -0.1348  0.8370 -0.0114
 8306TIP3    H146333   4.534   0.298   3.155  0.0575  0.2752  0.2307
 8306TIP3    H246334   4.592   0.357   3.282 -0.0955  0.3757  0.2547
 8307TIP3   OH246335   3.355   1.463  15.852  0.5151  0.1334 -0.1248
 8307TIP3    H146336   3.367   1.391  15.913  0.9314 -0.3044 -0.7115
 8307TIP3    H246337   3.430   1.521  15.867 -1.2915  2.0616  2.4474
 8308TIP3   OH246338   5.317   2.599  12.453 -0.1997 -0.2968  0.5759
 8308TIP3    H146339   5.374   2.656  12.505  0.1514 -0.6008  0.5249
 8308TIP3    H246340   5.231   2.641  12.458 -0.0016  0.0951  0.7572
 8309TIP3   OH246341   4.558   0.990   0.344  0.2404  0.1586  0.4592
 8309TIP3    H146342   4.531   0.903   0.371 -1.4938  0.3390 -0.5877
 8309TIP3    H246343   4.577   0.982   0.251 -1.8101  1.2553 -0.1211
 8310TIP3   OH246344   4.144   0.502  15.353  0.1956 -0.0314 -0.1244
 8310TIP3    H146345   4.163   0.455  15.272  2.1420  0.8356 -0.2310
 8310TIP3    H246346   4.065   0.551  15.335 -1.0922 -2.1109 -0.4721
 8311TIP3   OH246347   4.009   0.029   0.036 -0.1096  0.0025  0.4208
 8311TIP3    H146348   3.949  -0.043   0.054 -1.0767  0.9121  0.9859
 8311TIP3    H246349   3.960   0.087  -0.022  0.6005  0.2658  0.0804
 8312TIP3   OH246350   2.028   6.022  14.947 -0.3931  0.0588  0.2219
 8312TIP3    H146351   2.068   6.020  14.859 -0.6889  1.5883  0.0231
 8312TIP3    H246352   2.023   6.115  14.968  0.9662 -0.2987  2.4736
 8313TIP3   OH246353   1.207   2.168   4.879 -0.0490 -0.0174 -0.4240
 8313TIP3    H146354   1.117   2.199   4.881  0.2787  0.9375  0.5432
 8313TIP3    H246355   1.260   2.247   4.893  0.9366 -0.5940 -0.7614
 8314TIP3   OH246356   5.042   3.302  15.783  0.0568 -0.4827 -0.4129
 8314TIP3    H146357   4.998   3.329  15.702  1.9148  0.2888 -1.2288
 8314TIP3    H246358   4.992   3.226  15.813 -0.2303 -1.3040 -2.7373
 8315TIP3   OH246359   2.924   2.046  17.343 -0.1396  0.2675 -0.5544
 8315TIP3    H146360   2.980   2.086  17.410 -0.0784 -1.1502  0.2897
 8315TIP3    H246361   2.851   2.106  17.333 -1.3062 -0.4830  2.4484
 8316TIP3   OH246362   5.729   0.430   2.738 -0.3366 -0.3559 -0.1261
 8316TIP3    H146363   5.754   0.338   2.729  1.5522 -0.0059  0.9165
 8316TIP3    H246364   5.749   0.469   2.653  0.4396 -0.6037 -0.0689
 8317TIP3   OH246365   4.228   2.360   1.576 -0.2753  0.0248 -0.1350
 8317TIP3    H146366   4.286   2.434   1.558  1.4129 -1.2345 -0.0735
 8317TIP3    H246367   4.258   2.325   1.660  1.1425 -2.6653 -1.6411
 8318TIP3   OH246368   6.397   0.071   2.150  0.8856  0.4643  0.0276
 8318TIP3    H146369   6.351   0.154   2.136  0.9760  0.2482 -1.7455
 8318TIP3    H246370   6.483   0.098   2.182  0.8423  1.0591 -0.3241
 8319TIP3   OH246371   4.904   1.560   1.695 -0.0280 -0.2434  0.3115
 8319TIP3    H146372   4.997   1.540   1.702  0.3592 -0.3158 -3.3952
 8319TIP3    H246373   4.898   1.654   1.711  0.6354 -0.2693  0.7242
 8320TIP3   OH246374   2.349   4.947   0.747 -0.6386  0.2050 -0.0804
 8320TIP3    H146375   2.331   4.864   0.702 -0.4223 -0.6049  1.2692
 8320TIP3    H246376   2.438   4.938   0.780 -0.7740  0.7914  0.4616
 8321TIP3   OH246377   6.406   4.955   4.175 -0.3303  0.0031  0.1411
 8321TIP3    H146378   6.453   4.895   4.117 -0.2187  0.1473  0.0826
 8321TIP3    H246379   6.316   4.924   4.174  0.0413 -1.2184  1.4506
 8322TIP3   OH246380   2.200   3.230   1.621 -0.3766 -0.2580 -0.2433
 8322TIP3    H146381   2.129   3.166   1.624  1.5243 -2.7433 -2.5341
 8322TIP3    H246382   2.267   3.188   1.566  1.4347  3.3629 -1.0826
 8323TIP3   OH246383   1.960   3.485   5.123 -0.1090  0.2932  0.2680
 8323TIP3    H146384   2.006   3.554   5.171  1.3314  0.2709 -0.9896
 8323TIP3    H246385   1.986   3.498   5.032 -4.0791  1.4369 -0.9232
 8324TIP3   OH246386   1.044   0.797   1.279 -0.4813  0.0939  0.4567
 8324TIP3    H146387   1.045   0.757   1.193  0.9734 -1.2324  1.0357
 8324TIP3    H246388   1.042   0.891   1.262 -2.3297 -0.1457 -0.9650
 8325TIP3   OH246389   5.238   0.030   2.639 -0.0376  0.1167  0.0308
 8325TIP3    H146390   5.263  -0.057   2.668  0.7672  0.0160 -0.8809
 8325TIP3    H246391   5.172   0.059   2.701  0.3248 -0.7874  0.8627
 8326TIP3   OH246392   1.452   6.620  12.895  0.8845  0.3685 -0.5490
 8326TIP3    H146393   1.412   6.657  12.974 -0.4068 -0.4060 -0.8096
 8326TIP3    H246394   1.543   6.605  12.920  0.3020 -0.7173  1.1337
 8327TIP3   OH246395   4.004   4.785  16.424 -0.0777  0.0646  0.5516
 8327TIP3    H146396   3.995   4.843  16.499 -0.4541 -2.1012  2.2953
 8327TIP3    H246397   3.940   4.715  16.440 -0.3486 -0.3276 -1.9402
 8328TIP3   OH246398   1.369   5.030   4.846 -0.4108 -0.1586 -0.3056
 8328TIP3    H146399   1.299   4.969   4.865 -0.1822 -0.7615 -1.3298
 8328TIP3    H246400   1.355   5.102   4.908 -1.4767 -0.6091  0.0066
 8329TIP3   OH246401   0.484   5.426   4.311  0.8759  0.2175  0.2177
 8329TIP3    H146402   0.419   5.473   4.259 -0.8695 -0.9922  1.1832
 8329TIP3    H246403   0.567   5.439   4.265  0.1533  2.6480 -0.5385
 8330TIP3   OH246404   0.844   0.721  17.059 -0.5168 -0.4783  0.2910
 8330TIP3    H146405   0.859   0.632  17.025 -1.8404 -0.7470  0.3643
 8330TIP3    H246406   0.931   0.751  17.084  0.3887 -0.6750 -2.2945
 8331TIP3   OH246407   5.277   6.372   5.833  0.4956 -0.3094  0.4043
 8331TIP3    H146408   5.222   6.296   5.852  1.0352 -0.6641  0.5820
 8331TIP3    H246409   5.297   6.364   5.740  0.0353 -0.0337  0.2777
 8332TIP3   OH246410   6.523   1.935   0.709  0.3064 -0.1040  0.1509
 8332TIP3    H146411   6.595   1.887   0.669  1.6405  1.8940  0.0035
 8332TIP3    H246412   6.483   1.982   0.636 -0.1078  0.0735  0.4873
 8333TIP3   OH246413   0.154   1.358  12.376  0.0404  0.3451 -0.2299
 8333TIP3    H146414   0.067   1.390  12.400  1.0204  1.7798  1.6664
 8333TIP3    H246415   0.165   1.387  12.285 -1.4205  0.2175 -0.4708
 8334TIP3   OH246416   0.507   2.062   5.326 -0.9201  0.2564  0.2756
 8334TIP3    H146417   0.518   2.051   5.420  0.4629  0.4140  0.1538
 8334TIP3    H246418   0.538   1.979   5.288 -0.9666  0.3873 -0.0572
 8335TIP3   OH246419   4.874   4.783   2.371  0.0617 -0.0324 -0.4742
 8335TIP3    H146420   4.942   4.810   2.309  0.3446 -0.3758 -0.3147
 8335TIP3    H246421   4.856   4.861   2.422  0.7659 -0.0942 -0.1188
 8336TIP3   OH246422   4.932   2.745  14.284  0.2650 -0.5697 -0.0947
 8336TIP3    H146423   4.989   2.681  14.241  0.2687  0.3409 -1.5068
 8336TIP3    H246424   4.854   2.695  14.307 -0.1333 -0.9216 -2.0325
 8337TIP3   OH246425   0.036   2.046   1.113 -0.6763 -0.3302 -0.0960
 8337TIP3    H146426  -0.021   2.120   1.092 -0.0777  0.3910  0.7284
 8337TIP3    H246427   0.014   1.979   1.048 -1.8544  0.2396 -0.3070
 8338TIP3   OH246428   4.339   0.510  13.763 -0.7582  0.2875 -0.6526
 8338TIP3    H146429   4.391   0.590  13.776 -1.2516  0.7434 -1.4078
 8338TIP3    H246430   4.404   0.440  13.760 -0.3483  0.5876  0.5026
 8339TIP3   OH246431   4.524   3.520  14.117 -0.9556 -0.1739 -0.1612
 8339TIP3    H146432   4.508   3.613  14.131 -1.4694 -0.4953  1.5617
 8339TIP3    H246433   4.618   3.514  14.101 -1.1664  0.8126 -2.1872
 8340TIP3   OH246434   1.526   2.974  16.765 -0.1768  0.2738 -0.4631
 8340TIP3    H146435   1.438   2.946  16.739  0.1830  0.6897 -2.2812
 8340TIP3    H246436   1.537   3.060  16.722  1.4119 -0.1653 -0.9920
 8341TIP3   OH246437   0.410   3.093   3.286  0.0746  0.0408  0.0186
 8341TIP3    H146438   0.436   3.035   3.357 -0.8906 -1.6229 -0.9466
 8341TIP3    H246439   0.447   3.053   3.207 -2.5220 -0.5917 -0.9680
 8342TIP3   OH246440   1.536   1.975  16.435  0.2616 -0.3572 -0.7259
 8342TIP3    H146441   1.473   1.966  16.364  0.9835 -0.3363 -1.3795
 8342TIP3    H246442   1.558   2.068  16.436  0.8603 -0.4921 -1.0111
 8343TIP3   OH246443   1.769   6.063  12.848 -0.3241 -0.5008  0.4289
 8343TIP3    H146444   1.769   6.107  12.763  0.6122 -0.0356  0.6525
 8343TIP3    H246445   1.694   6.004  12.845  0.8147 -1.9940 -1.5206
 8344TIP3   OH246446   2.783   1.010   0.419 -0.1289  0.2730 -0.0354
 8344TIP3    H146447   2.819   1.098   0.407 -0.4403  0.6328  1.4431
 8344TIP3    H246448   2.843   0.953   0.371 -1.5677  1.5007 -3.6192
 8345TIP3   OH246449   2.743   2.689  11.516 -0.4078  0.1673 -0.0422
 8345TIP3    H146450   2.681   2.753  11.480 -0.3283 -0.4160 -1.2851
 8345TIP3    H246451   2.750   2.622  11.448 -0.6692 -1.2934  1.3076
 8346TIP3   OH246452   2.469   4.817   3.268  0.3499 -0.0699  0.3671
 8346TIP3    H146453   2.411   4.886   3.299  1.2437  1.4856 -1.2203
 8346TIP3    H246454   2.546   4.823   3.325  0.3955  0.2130  0.2791
 8347TIP3   OH246455   5.273   0.131   0.059  0.4431  0.3932  0.1523
 8347TIP3    H146456   5.199   0.099   0.111 -0.3125 -2.6218 -2.4492
 8347TIP3    H246457   5.351   0.095   0.103 -0.1970 -2.4092 -0.7722
 8348TIP3   OH246458   5.640   3.886  14.363  0.5404  0.0259  0.2010
 8348TIP3    H146459   5.671   3.879  14.273 -0.7801 -0.0983 -0.2695
 8348TIP3    H246460   5.615   3.978  14.373  0.5800  0.0153  0.4095
 8349TIP3   OH246461   0.213   4.465  15.450  0.2081 -0.2800 -0.5754
 8349TIP3    H146462   0.139   4.525  15.435  0.6231  0.3816 -0.0478
 8349TIP3    H246463   0.189   4.385  15.404 -0.5492  0.1535 -0.9513
 8350TIP3   OH246464   0.786   1.438  12.627  0.2123  0.0778 -0.8509
 8350TIP3    H146465   0.742   1.400  12.551 -2.0017  0.3506  0.2185
 8350TIP3    H246466   0.817   1.524  12.597 -0.1904 -0.0295 -1.5710
 8351TIP3   OH246467   3.847   5.509   4.367  0.2413 -0.2718 -0.0843
 8351TIP3    H146468   3.756   5.479   4.370 -0.1239  0.7307 -0.7261
 8351TIP3    H246469   3.842   5.600   4.338  1.5159 -0.5253 -1.2057
 8352TIP3   OH246470   3.687   2.441  15.506 -0.0685 -0.5790 -0.8279
 8352TIP3    H146471   3.650   2.363  15.547 -0.7788 -0.5976 -1.4747
 8352TIP3    H246472   3.651   2.514  15.556  2.1827 -0.6705  1.0801
 8353TIP3   OH246473   6.569   3.978  13.269 -0.2726  0.1214  0.7992
 8353TIP3    H146474   6.534   3.925  13.341 -1.9611  1.6184  1.1488
 8353TIP3    H246475   6.528   3.943  13.190 -1.9249  1.2513  1.1022
 8354TIP3   OH246476   4.769   1.065  11.646  0.1352  0.2443  0.1494
 8354TIP3    H146477   4.851   1.106  11.617 -0.0238  0.8473  0.5302
 8354TIP3    H246478   4.760   1.091  11.738  0.2408 -1.0080  0.5341
 8355TIP3   OH246479   1.131   3.566   5.699 -0.0693  0.8964 -0.1120
 8355TIP3    H146480   1.154   3.658   5.713  2.2521  0.3707 -0.1581
 8355TIP3    H246481   1.212   3.518   5.717 -1.2047 -1.1447 -0.2025
 8356TIP3   OH246482   6.595   5.735   0.240 -0.2101  0.1477  0.0773
 8356TIP3    H146483   6.620   5.768   0.154  0.4925 -1.2713 -0.2901
 8356TIP3    H246484   6.666   5.675   0.264 -1.3965 -1.0270  0.7355
 8357TIP3   OH246485   2.050   1.026  12.991 -0.3299 -0.3174  0.3572
 8357TIP3    H146486   2.094   1.066  13.066  0.2426 -1.1929  0.5048
 8357TIP3    H246487   2.111   1.037  12.918 -0.7235  0.1975  0.1004
 8358TIP3   OH246488   5.408   1.923   0.331  0.2904  0.2428  0.0444
 8358TIP3    H146489   5.441   1.990   0.271 -0.6365 -1.1515 -2.0931
 8358TIP3    H246490   5.313   1.927   0.323  0.2326 -2.0491 -0.9958
 8359TIP3   OH246491   3.689   4.288  14.106  0.2640 -0.2439 -0.1523
 8359TIP3    H146492   3.768   4.315  14.153  0.8504 -0.5336 -0.9560
 8359TIP3    H246493   3.705   4.314  14.015 -0.7837  0.1571 -0.2389
 8360TIP3   OH246494   6.424   4.982   4.432 -0.3385 -0.0871 -0.0193
 8360TIP3    H146495   6.407   4.967   4.339 -3.6047 -2.7165  0.8113
 8360TIP3    H246496   6.338   4.998   4.470  0.6571 -0.8270  2.8160
 8361TIP3   OH246497   2.183   4.062  17.439  0.1323 -0.1395  0.5117
 8361TIP3    H146498   2.229   4.003  17.379  0.5193 -1.9204  2.4358
 8361TIP3    H246499   2.222   4.044  17.525 -0.3430  2.3639  1.3380
 8362TIP3   OH246500   1.587   3.393  12.424 -0.0997 -0.4782  0.2473
 8362TIP3    H146501   1.562   3.335  12.352  2.1596 -1.7067  0.3684
 8362TIP3    H246502   1.646   3.457  12.384 -0.8938  0.4701  0.5439
 8363TIP3   OH246503   1.800   6.357   5.998 -0.2188  0.4539 -0.8457
 8363TIP3    H146504   1.873   6.302   5.969  0.2073 -0.4862  1.7455
 8363TIP3    H246505   1.833   6.400   6.077 -2.1308  0.7743 -0.1706
 8364TIP3   OH246506   1.199   3.456   4.712  0.8079  0.3990 -0.5476
 8364TIP3    H146507   1.216   3.374   4.758  0.9940 -0.4665 -2.0914
 8364TIP3    H246508   1.129   3.498   4.762 -0.3129 -1.4101 -0.5292
 8365TIP3   OH246509   0.301   4.709   4.777  0.5391  0.3257 -0.2117
 8365TIP3    H146510   0.371   4.755   4.824 -0.0788 -0.7513  1.8690
 8365TIP3    H246511   0.226   4.712   4.836  0.6304 -3.8323  0.3866
 8366TIP3   OH246512   6.702   0.887   2.023 -0.0208  0.4774 -0.4057
 8366TIP3    H146513   6.728   0.873   1.932 -0.9718  0.3325 -0.6616
 8366TIP3    H246514   6.724   0.804   2.066  0.6653  0.6359 -0.4443
 8367TIP3   OH246515   4.695   0.065   3.532 -0.4608 -0.4777  0.0771
 8367TIP3    H146516   4.716   0.134   3.469 -1.9155 -1.0586 -1.1061
 8367TIP3    H246517   4.721   0.101   3.617 -2.1533  1.9880 -0.3406
 8368TIP3   OH246518   2.279   6.208  12.187 -0.8636 -0.2478 -0.1534
 8368TIP3    H146519   2.305   6.299  12.205 -0.1474 -0.5189  0.2127
 8368TIP3    H246520   2.338   6.155  12.240 -1.1991 -0.9397 -0.4599
 8369TIP3   OH246521   2.464   3.734  14.884  0.1829  0.2224  0.4240
 8369TIP3    H146522   2.433   3.644  14.869  0.0282  0.5330 -1.2798
 8369TIP3    H246523   2.397   3.789  14.846  1.2453  0.9975 -0.3903
 8370TIP3   OH246524   6.229   6.104   5.033  0.0919  0.5105  0.4190
 8370TIP3    H146525   6.136   6.096   5.056 -0.3413 -0.0522 -1.4011
 8370TIP3    H246526   6.229   6.122   4.940  1.7420  3.6146  0.8932
 8371TIP3   OH246527   2.175   5.583  11.797  0.1842  0.0346 -0.1804
 8371TIP3    H146528   2.256   5.532  11.802  0.2821 -0.0849 -2.3986
 8371TIP3    H246529   2.176   5.623  11.710 -1.7038  0.7904  0.0898
 8372TIP3   OH246530   0.077   4.581   1.993  0.0214 -0.3979 -0.2592
 8372TIP3    H146531   0.166   4.611   1.976  0.1351  1.4275  2.7094
 8372TIP3    H246532   0.024   4.661   1.989 -1.1174 -1.1231 -0.0720
 8373TIP3   OH246533   4.748   3.814   1.937  0.0868  0.2065  0.2688
 8373TIP3    H146534   4.767   3.905   1.962 -0.9355  0.0891  1.5919
 8373TIP3    H246535   4.780   3.807   1.847  2.0434  1.2855  0.8152
 8374TIP3   OH246536   4.931   1.308   0.826  0.2819  0.1070  0.4266
 8374TIP3    H146537   4.968   1.372   0.765  0.5334  1.0859  1.5769
 8374TIP3    H246538   5.006   1.260   0.859  0.1223 -0.5833 -0.1998
 8375TIP3   OH246539   5.596   2.053  16.528 -0.5174  0.2023 -0.1611
 8375TIP3    H146540   5.661   2.016  16.587  0.4714  1.7819 -0.2002
 8375TIP3    H246541   5.557   2.126  16.577  0.8600  2.0374 -1.6472
 8376TIP3   OH246542   0.981   1.792  16.432 -0.0087 -0.1216  0.6193
 8376TIP3    H146543   0.929   1.716  16.405  1.1532 -0.0502 -2.2307
 8376TIP3    H246544   0.919   1.850  16.475 -1.6459 -1.2594 -0.0986
 8377TIP3   OH246545   3.321   3.259  14.235  0.0825  0.0240 -0.3925
 8377TIP3    H146546   3.410   3.227  14.227 -0.1361 -0.7738  0.2350
 8377TIP3    H246547   3.266   3.189  14.201 -0.5168 -1.1787  2.7193
 8378TIP3   OH246548   2.702   3.584  10.645  0.1873 -0.1361  0.0231
 8378TIP3    H146549   2.712   3.577  10.740  0.7947 -0.9632 -0.0955
 8378TIP3    H246550   2.629   3.526  10.624  0.3917 -0.3598 -0.0753
 8379TIP3   OH246551   5.292   0.706  11.860  0.0630 -0.2611 -0.1592
 8379TIP3    H146552   5.350   0.773  11.896 -0.6802 -0.5578  1.6889
 8379TIP3    H246553   5.348   0.657  11.799  0.9527  1.2345 -0.6046
 8380TIP3   OH246554   3.021   0.848  15.165 -0.2626  0.1312 -0.3562
 8380TIP3    H146555   3.010   0.926  15.219 -0.1835  1.2181 -1.8631
 8380TIP3    H246556   3.101   0.806  15.198 -0.6798  0.2868  0.9050
 8381TIP3   OH246557   1.172   2.804   4.173  0.2231  0.1867 -0.5599
 8381TIP3    H146558   1.170   2.746   4.097 -0.5114  0.6140 -0.8789
 8381TIP3    H246559   1.135   2.751   4.244  1.5054 -0.4302 -0.3229
 8382TIP3   OH246560   2.434   2.510   6.574  0.1261  0.6579  0.1167
 8382TIP3    H146561   2.354   2.458   6.587 -0.2769  1.1177 -0.4935
 8382TIP3    H246562   2.439   2.565   6.652 -0.7909  1.4519 -0.3730
 8383TIP3   OH246563   4.067   1.572  15.889 -0.7112  0.3108 -0.0124
 8383TIP3    H146564   4.038   1.493  15.935 -2.0638  1.4645  1.2234
 8383TIP3    H246565   4.021   1.569  15.805 -1.1210  0.0156  0.2182
 8384TIP3   OH246566   0.435   2.052  14.400 -0.8736  0.2137 -0.0104
 8384TIP3    H146567   0.356   2.022  14.445 -1.0044 -0.1188 -0.4550
 8384TIP3    H246568   0.503   2.050  14.467 -1.0452 -0.3559  0.1479
 8385TIP3   OH246569   2.049   0.819   6.435  0.6483  0.1708 -1.2309
 8385TIP3    H146570   2.093   0.865   6.364  0.3440  1.6878 -0.4921
 8385TIP3    H246571   2.043   0.884   6.506 -0.6934 -0.6984 -0.4851
 8386TIP3   OH246572   1.947   1.960   5.946  0.0014  0.1367 -0.2640
 8386TIP3    H146573   1.876   2.013   5.983  0.6372  1.0068 -0.2440
 8386TIP3    H246574   2.018   1.967   6.010 -0.2891 -1.6962  0.2902
 8387TIP3   OH246575   6.267   0.392  16.110 -0.4953  0.2749  0.3300
 8387TIP3    H146576   6.282   0.487  16.108 -0.6737  0.2941 -0.2634
 8387TIP3    H246577   6.172   0.383  16.102 -0.3029 -0.0161 -2.3076
 8388TIP3   OH246578   2.106   3.333   3.879  0.4047 -0.3174 -0.1755
 8388TIP3    H146579   2.078   3.410   3.830  2.9416  0.8583  0.0525
 8388TIP3    H246580   2.194   3.355   3.909  0.4328 -2.5436  1.6105
 8389TIP3   OH246581   3.018   0.428   5.770  0.2655 -0.1344  0.3227
 8389TIP3    H146582   3.104   0.463   5.794 -0.0043 -0.0731  1.2373
 8389TIP3    H246583   2.982   0.396   5.852 -0.4022 -0.5704 -0.1388
 8390TIP3   OH246584   3.734   5.866   0.128 -0.4001 -0.0400  0.1393
 8390TIP3    H146585   3.792   5.849   0.053  0.0049  0.5062  0.3200
 8390TIP3    H246586   3.698   5.952   0.111 -0.5275 -0.0360  0.4326
 8391TIP3   OH246587   2.893   4.885   6.038  0.4346 -0.0234 -0.0366
 8391TIP3    H146588   2.852   4.846   6.115 -0.4917 -0.0747 -0.5462
 8391TIP3    H246589   2.948   4.816   6.002  1.8809  0.3864  1.2758
 8392TIP3   OH246590   0.305   4.142   0.289  0.0925  0.5745 -0.0954
 8392TIP3    H146591   0.320   4.223   0.240  1.5255  0.3758 -0.0448
 8392TIP3    H246592   0.292   4.075   0.222  1.0943  0.4763 -0.2173
 8393TIP3   OH246593   1.151   0.723   5.000  0.2023  0.7886 -0.1368
 8393TIP3    H146594   1.100   0.718   5.081  0.7603 -0.4949  0.1645
 8393TIP3    H246595   1.160   0.632   4.972  0.7876  1.1445 -1.1611
 8394TIP3   OH246596   2.027   3.425  12.114 -0.6445 -0.9938 -0.1664
 8394TIP3    H146597   2.065   3.502  12.070  1.9601 -2.2319 -0.2541
 8394TIP3    H246598   1.963   3.392  12.051 -1.7034  0.9540 -0.2033
 8395TIP3   OH246599   5.553   5.622   2.530 -0.1354  0.1248 -0.4712
 8395TIP3    H146600   5.633   5.660   2.496 -0.5411 -0.1768 -1.8013
 8395TIP3    H246601   5.494   5.617   2.455 -1.1798 -0.2417  0.3457
 8396TIP3   OH246602   4.403   0.117   3.829 -0.3188  0.5988  0.1734
 8396TIP3    H146603   4.437   0.054   3.892 -0.6754 -1.3956 -1.5082
 8396TIP3    H246604   4.308   0.103   3.830 -0.7123  2.9205  1.5508
 8397TIP3   OH246605   5.131   6.564  17.612  0.3990  0.3351 -0.5167
 8397TIP3    H146606   5.120   6.639  17.553  0.8536  0.3214 -0.6232
 8397TIP3    H246607   5.219   6.532  17.594 -0.2283 -0.9947 -1.3570
 8398TIP3   OH246608   5.241   3.548  11.537  0.2024 -0.4124 -0.4108
 8398TIP3    H146609   5.183   3.616  11.571 -0.0851 -0.9869  0.2543
 8398TIP3    H246610   5.273   3.584  11.454 -1.5329 -0.3260 -1.0689
 8399TIP3   OH246611   0.332   4.932   3.767 -0.2491 -0.1215 -0.2325
 8399TIP3    H146612   0.314   4.913   3.675 -0.4465 -0.3930 -0.1399
 8399TIP3    H246613   0.248   4.921   3.811 -0.3600  0.9187 -0.1634
 8400TIP3   OH246614   1.598   0.462   6.224  0.1146  0.4962  0.3298
 8400TIP3    H146615   1.542   0.462   6.146 -0.0487 -1.8478  0.3565
 8400TIP3    H246616   1.649   0.542   6.218  0.8986 -0.1112 -2.8160
 8401TIP3   OH246617   5.953   2.532  15.311 -0.1624  0.1241  0.1257
 8401TIP3    H146618   5.863   2.552  15.337 -0.5554 -0.3723 -0.7991
 8401TIP3    H246619   5.960   2.565  15.222  0.6829  0.4494  0.3018
 8402TIP3   OH246620   3.561   4.031  13.470 -0.2874 -0.0977 -0.4170
 8402TIP3    H146621   3.477   4.006  13.507 -0.4354  1.1904  0.1495
 8402TIP3    H246622   3.573   3.971  13.396 -0.7291 -1.6395  0.7196
 8403TIP3   OH246623   5.316   1.871   2.879  0.1586 -0.0971 -0.1802
 8403TIP3    H146624   5.281   1.942   2.932  1.4409  0.3995  0.0244
 8403TIP3    H246625   5.293   1.895   2.789 -1.2105 -0.4846  0.0329
 8404TIP3   OH246626   0.729   3.664  17.531  0.0949 -0.0382 -0.2731
 8404TIP3    H146627   0.782   3.730  17.486 -0.3980  1.7885  1.6923
 8404TIP3    H246628   0.791   3.621  17.591 -0.1869  0.6257  0.4983
 8405TIP3   OH246629   1.754   2.106   6.057 -0.1521  0.2703  0.9832
 8405TIP3    H146630   1.749   2.201   6.066 -1.1235  0.1210  2.1595
 8405TIP3    H246631   1.777   2.074   6.144  2.8323 -0.4488  0.0592
 8406TIP3   OH246632   0.253   4.981   1.776 -0.8330 -0.5396  0.0145
 8406TIP3    H146633   0.285   5.034   1.849 -0.9309 -0.2638 -0.1401
 8406TIP3    H246634   0.198   5.041   1.726  1.2114 -0.0087 -1.6897
 8407TIP3   OH246635   1.782   4.384   1.356 -0.2789  0.2204 -0.1881
 8407TIP3    H146636   1.791   4.311   1.417 -1.4645  0.3068  0.1138
 8407TIP3    H246637   1.757   4.343   1.273 -1.0183  0.2806  0.0004
 8408TIP3   OH246638   3.686   1.887   0.731  0.4026 -0.0841 -0.6588
 8408TIP3    H146639   3.674   1.980   0.710  1.3746  0.1816 -0.0520
 8408TIP3    H246640   3.613   1.843   0.686  0.4975  0.8563 -1.7646
 8409TIP3   OH246641   3.249   1.259   3.119 -0.4457  0.3692  0.3592
 8409TIP3    H146642   3.154   1.256   3.133 -0.3784  0.1228  0.7896
 8409TIP3    H246643   3.261   1.223   3.031 -0.9280  2.5617 -0.6805
 8410TIP3   OH246644   3.250   2.084  13.892 -0.4450  0.0544  1.0786
 8410TIP3    H146645   3.284   2.169  13.920  1.3242 -0.2751  0.0948
 8410TIP3    H246646   3.292   2.021  13.950  0.9172 -0.3792 -0.2872
 8411TIP3   OH246647   4.499   3.495  17.060  0.4456  0.7429 -0.7750
 8411TIP3    H146648   4.430   3.514  16.997 -2.2447 -1.5518  1.2280
 8411TIP3    H246649   4.542   3.417  17.025 -0.7349 -0.2463 -0.1043
 8412TIP3   OH246650   3.989   0.730  13.863  0.5235 -0.7851 -0.2506
 8412TIP3    H146651   3.984   0.640  13.831  0.9460 -0.5008 -1.1623
 8412TIP3    H246652   3.898   0.760  13.864  0.4157 -1.1050 -0.2861
 8413TIP3   OH246653   1.212   0.160  11.733  0.4391 -0.2985  0.2930
 8413TIP3    H146654   1.133   0.209  11.760  1.4075 -0.0101  2.9262
 8413TIP3    H246655   1.227   0.187  11.643 -2.3403 -0.2062 -0.2452
 8414TIP3   OH246656   1.925   4.878  12.546  0.2587  0.1105 -0.4852
 8414TIP3    H146657   1.891   4.856  12.633 -0.4415  0.3636 -0.6886
 8414TIP3    H246658   2.016   4.901  12.561  0.4071 -0.7765  0.0492
 8415TIP3   OH246659   4.448   4.012   2.022 -0.1311 -0.3014  0.6151
 8415TIP3    H146660   4.440   3.944   1.955 -0.7390  0.6481 -0.3021
 8415TIP3    H246661   4.377   4.073   2.003  0.3476  0.5543  1.4699
 8416TIP3   OH246662   5.165   2.370   2.610  0.2175  0.5563 -0.3562
 8416TIP3    H146663   5.113   2.313   2.554  0.5745  1.8962 -2.1354
 8416TIP3    H246664   5.101   2.416   2.665 -0.2523  0.2702 -0.6589
 8417TIP3   OH246665   6.459   5.547  13.136 -0.2096  0.4221 -0.3932
 8417TIP3    H146666   6.460   5.525  13.043 -0.4059 -1.7362  0.0530
 8417TIP3    H246667   6.366   5.554  13.158 -0.3361 -2.0222  0.1832
 8418TIP3   OH246668   1.451   5.885  17.299 -0.3368 -0.5652 -0.2987
 8418TIP3    H146669   1.542   5.911  17.315 -0.7967  1.4721 -0.7202
 8418TIP3    H246670   1.400   5.965  17.315 -1.8959 -1.2442 -1.6070
 8419TIP3   OH246671   2.909   2.873  13.532  0.0312  0.7605 -0.1519
 8419TIP3    H146672   2.850   2.944  13.558  1.1786  1.4212  0.7400
 8419TIP3    H246673   2.934   2.895  13.442 -0.9806  0.5324 -0.4986
 8420TIP3   OH246674   2.449   4.911   5.599  0.1329 -0.2659 -0.1019
 8420TIP3    H146675   2.483   4.867   5.521  1.0247  3.1695 -1.8694
 8420TIP3    H246676   2.522   4.908   5.661  0.8434  0.2167 -0.8826
 8421TIP3   OH246677   2.797   5.854  17.046  0.5217 -0.2119  0.6514
 8421TIP3    H146678   2.874   5.831  17.098  0.4169  0.1881  0.9858
 8421TIP3    H246679   2.740   5.901  17.106  0.6648  0.7900  0.0296
 8422TIP3   OH246680   1.980   5.572  11.412  0.3210 -1.1390 -0.1524
 8422TIP3    H146681   2.034   5.506  11.368  1.3760 -1.5007  1.5678
 8422TIP3    H246682   1.891   5.556  11.381  0.7583 -2.5596 -0.7292
 8423TIP3   OH246683   0.926   0.847  12.745  0.5571  0.2934  0.5515
 8423TIP3    H146684   0.832   0.842  12.764  0.4766 -0.4055  0.0177
 8423TIP3    H246685   0.962   0.902  12.815 -0.1684  0.1340  1.0605
 8424TIP3   OH246686   1.282   3.733  11.605 -0.2589  0.4957 -0.2088
 8424TIP3    H146687   1.363   3.698  11.570 -0.2712  2.3165 -2.2962
 8424TIP3    H246688   1.217   3.715  11.537 -1.2846  0.3481  0.7845
 8425TIP3   OH246689   4.595   3.280  12.922  0.1301  0.0917  0.0537
 8425TIP3    H146690   4.562   3.295  12.833  1.2559  0.8390 -0.2531
 8425TIP3    H246691   4.671   3.338  12.930  1.0744 -1.1901  0.9002
 8426TIP3   OH246692   5.353   5.580   3.329 -0.5840  0.0467  0.4253
 8426TIP3    H146693   5.350   5.485   3.314  0.6816  0.1528 -0.6241
 8426TIP3    H246694   5.265   5.610   3.304 -1.0773 -0.8669  0.9906
 8427TIP3   OH246695   3.388   6.494   3.033 -0.0390  0.1750 -0.7188
 8427TIP3    H146696   3.394   6.417   2.977  1.2277  0.0459 -0.4518
 8427TIP3    H246697   3.306   6.484   3.081  1.6257 -2.8718  1.8927
 8428TIP3   OH246698   5.548   5.970  12.950  0.3934 -0.3558  0.3922
 8428TIP3    H146699   5.538   5.979  12.855 -1.1633 -1.5465  0.3994
 8428TIP3    H246700   5.467   6.006  12.986  1.4316  1.1191  1.3814
 8429TIP3   OH246701   5.864   6.241   0.344  0.2594  0.0604 -0.4997
 8429TIP3    H146702   5.817   6.158   0.340  0.3625  0.0322 -1.6233
 8429TIP3    H246703   5.916   6.243   0.263  0.0048  1.3663 -0.6618
 8430TIP3   OH246704   3.471   0.424  14.425  0.1758  0.3150  0.1380
 8430TIP3    H146705   3.488   0.518  14.426 -0.3523  0.5694 -3.2768
 8430TIP3    H246706   3.552   0.385  14.392 -0.9594  0.1265 -2.7048
 8431TIP3   OH246707   3.388   1.915   1.194 -0.3026  0.0973 -0.0489
 8431TIP3    H146708   3.409   1.994   1.244 -0.8046  0.7112 -0.7867
 8431TIP3    H246709   3.471   1.891   1.152  0.2126 -0.6290  1.3218
 8432TIP3   OH246710   3.808   6.472  14.181 -0.7852  0.4809 -0.4003
 8432TIP3    H146711   3.728   6.429  14.211 -1.4637  1.9723 -0.0333
 8432TIP3    H246712   3.863   6.477  14.260 -0.5629  0.0072 -0.5191
 8433TIP3   OH246713   3.492   5.112   4.880 -0.1074  0.2218 -0.5551
 8433TIP3    H146714   3.481   5.057   4.803 -1.7839  1.1811 -1.0534
 8433TIP3    H246715   3.561   5.174   4.855  0.0561 -0.0981 -0.9039
 8434TIP3   OH246716   3.190   3.679  11.982  0.0036  0.0759  0.3663
 8434TIP3    H146717   3.155   3.686  12.070 -1.3633  0.7466 -0.2104
 8434TIP3    H246718   3.156   3.596  11.949 -1.7717  1.0939 -0.4741
 8435TIP3   OH246719   3.276   5.335   5.085  0.5053 -0.2145  0.0920
 8435TIP3    H146720   3.255   5.402   5.151 -1.5606 -0.0809 -0.6182
 8435TIP3    H246721   3.240   5.254   5.121 -0.5050 -0.1678 -0.7783
 8436TIP3   OH246722   1.198   6.222   6.797  0.2011  0.3484  0.0835
 8436TIP3    H146723   1.172   6.139   6.839  1.8396  0.7883  2.1428
 8436TIP3    H246724   1.267   6.197   6.737 -1.3112 -0.1195 -1.5471
 8437TIP3   OH246725   0.307   6.709   0.353  0.4780 -0.0013  0.5327
 8437TIP3    H146726   0.345   6.792   0.324 -0.7380 -0.0440 -1.3393
 8437TIP3    H246727   0.266   6.673   0.275 -2.2983 -0.5407  2.1158
 8438TIP3   OH246728   2.856   1.600   5.532  0.0745  0.5395 -0.2967
 8438TIP3    H146729   2.873   1.529   5.470  1.4279  0.6245 -0.0541
 8438TIP3    H246730   2.871   1.680   5.482  0.5999  0.6129 -0.0398
 8439TIP3   OH246731   6.059   3.488   1.890 -0.5893 -0.2030 -0.4333
 8439TIP3    H146732   6.044   3.516   1.800 -0.3228  0.4381 -0.2797
 8439TIP3    H246733   5.971   3.481   1.927 -0.7453 -1.1729 -0.9422
 8440TIP3   OH246734   2.531   4.683   3.545  0.6229  0.2306 -0.2898
 8440TIP3    H146735   2.472   4.740   3.496  0.5087  0.4711  0.1267
 8440TIP3    H246736   2.533   4.720   3.633  0.3199 -0.5719  0.0646
 8441TIP3   OH246737   3.466   1.778  13.044 -0.4882 -0.2245  0.0920
 8441TIP3    H146738   3.512   1.743  13.120 -0.2716 -1.7196 -0.6917
 8441TIP3    H246739   3.458   1.871  13.062 -1.2540 -0.6619  2.3779
 8442TIP3   OH246740   0.107   2.861   4.299 -0.0464 -0.5469  0.2898
 8442TIP3    H146741   0.057   2.929   4.254 -0.2127 -0.9475 -0.1291
 8442TIP3    H246742   0.130   2.901   4.384  0.1864  0.1713 -0.0989
 8443TIP3   OH246743   6.556   4.401  16.076  0.0320  0.4076 -0.8821
 8443TIP3    H146744   6.583   4.460  16.005  0.3428  0.6705 -0.5491
 8443TIP3    H246745   6.637   4.381  16.122  0.0112 -0.7275 -1.3200
 8444TIP3   OH246746   4.269   1.625   6.002 -0.3394  0.0978  1.0350
 8444TIP3    H146747   4.224   1.691   6.055  0.1932 -0.3190  2.0269
 8444TIP3    H246748   4.206   1.603   5.933 -0.2421  2.1951  0.2088
 8445TIP3   OH246749   1.365   1.028  12.389  1.0398 -0.6195 -0.3417
 8445TIP3    H146750   1.407   0.942  12.395 -0.3278 -1.2255  2.5327
 8445TIP3    H246751   1.309   1.033  12.467 -1.8016  1.3906 -2.3052
 8446TIP3   OH246752   3.203   1.791  15.247  0.1367 -0.4141  0.3121
 8446TIP3    H146753   3.180   1.706  15.209 -0.5980 -1.0044  1.9794
 8446TIP3    H246754   3.142   1.802  15.320  1.2341  0.8461  1.0846
 8447TIP3   OH246755   0.538   3.558   4.034  0.1044 -0.0615  0.3217
 8447TIP3    H146756   0.620   3.508   4.036 -0.2797 -0.7059  0.5046
 8447TIP3    H246757   0.554   3.634   4.090  0.6672 -0.0399  0.1321
 8448TIP3   OH246758   3.146   1.557   2.907  0.0518 -0.6775 -0.0787
 8448TIP3    H146759   3.223   1.568   2.851  0.1179  1.9061  0.4058
 8448TIP3    H246760   3.181   1.522   2.989  0.0959 -3.4576 -1.1903
 8449TIP3   OH246761   6.369   6.575   5.023  0.4543  0.5804  0.2557
 8449TIP3    H146762   6.292   6.521   5.004 -0.1521  0.5187  2.5421
 8449TIP3    H246763   6.397   6.546   5.110  2.8563  0.8780 -0.3580
 8450TIP3   OH246764   4.044   3.345  17.315 -0.2201 -0.0576  0.6032
 8450TIP3    H146765   4.122   3.363  17.261 -1.3678 -0.5277 -1.3106
 8450TIP3    H246766   4.035   3.250  17.312 -1.0309  0.0139  0.5752
 8451TIP3   OH246767   5.603   4.046   0.302 -0.4043  0.5145  0.5496
 8451TIP3    H146768   5.565   3.982   0.242  1.3012 -0.8777  0.8802
 8451TIP3    H246769   5.547   4.123   0.293 -1.4703 -0.3954 -1.1943
 8452TIP3   OH246770   4.489   4.245   5.181 -0.5799  0.2175  0.1626
 8452TIP3    H146771   4.543   4.324   5.186  0.4843 -0.5541  1.7435
 8452TIP3    H246772   4.400   4.276   5.201 -0.1692  1.0121  0.8218
 8453TIP3   OH246773   1.772   4.124   1.930  0.8439  0.1576  0.6102
 8453TIP3    H146774   1.768   4.219   1.941 -0.4604  0.4494 -1.7849
 8453TIP3    H246775   1.822   4.093   2.006  1.7834  2.7890  1.1560
 8454TIP3   OH246776   1.852   4.616  16.004 -0.0984 -0.1810  0.0736
 8454TIP3    H146777   1.864   4.582  15.916 -1.3705 -0.5943  0.0447
 8454TIP3    H246778   1.854   4.711  15.993 -0.3845 -0.2300 -0.4219
 8455TIP3   OH246779   0.963   4.907   1.983 -0.9151 -0.8805 -0.2852
 8455TIP3    H146780   0.946   4.890   2.076 -1.3078 -1.1365 -0.4023
 8455TIP3    H246781   1.050   4.870   1.967 -0.3516  0.1621  0.2414
 8456TIP3   OH246782   1.259   1.914  13.074 -0.4343 -0.0254 -0.0432
 8456TIP3    H146783   1.258   1.947  13.163 -2.2436 -0.6016  0.1864
 8456TIP3    H246784   1.296   1.826  13.082 -1.7169 -0.5461  0.3453
 8457TIP3   OH246785   1.177   4.738  14.791  0.3886  0.3131 -0.3886
 8457TIP3    H146786   1.260   4.750  14.838  1.2921 -1.4538 -1.4268
 8457TIP3    H246787   1.166   4.818  14.740  0.7059  1.1564  0.8174
 8458TIP3   OH246788   1.819   1.617  14.617 -0.1834 -0.6844 -0.1298
 8458TIP3    H146789   1.811   1.637  14.710  0.3607  0.4749 -0.3139
 8458TIP3    H246790   1.755   1.548  14.601 -1.7664  0.5564  0.6797
 8459TIP3   OH246791   0.704   2.698  12.373  0.0350  0.1532  0.5333
 8459TIP3    H146792   0.689   2.791  12.390  0.8934  0.7852 -1.7337
 8459TIP3    H246793   0.788   2.696  12.326 -0.0136 -1.7576  0.4491
 8460TIP3   OH246794   4.163   4.663  12.237  0.5795  0.3087  0.3033
 8460TIP3    H146795   4.209   4.720  12.299 -0.5751  1.2877  0.2988
 8460TIP3    H246796   4.146   4.583  12.286 -0.7892  1.2630  1.5055
 8461TIP3   OH246797   6.518   5.035   2.609  0.0247 -0.1010  0.1693
 8461TIP3    H146798   6.594   4.998   2.562  0.4968  1.6444 -0.5005
 8461TIP3    H246799   6.540   5.023   2.701  1.4836  1.0323  0.0022
 8462TIP3   OH246800   0.858   2.218   5.386  0.5183  0.6651 -0.2949
 8462TIP3    H146801   0.943   2.175   5.381  0.9200  1.5856 -2.0135
 8462TIP3    H246802   0.818   2.182   5.466  1.0209 -2.4406 -1.2958
 8463TIP3   OH246803   2.849   2.122   1.698 -0.1538  0.0410  0.8659
 8463TIP3    H146804   2.760   2.093   1.679  0.3174 -0.1790 -1.2398
 8463TIP3    H246805   2.838   2.208   1.739 -1.3171  0.5939 -0.5238
 8464TIP3   OH246806   1.570   3.812   0.407 -0.0165  0.3976 -0.1244
 8464TIP3    H146807   1.613   3.862   0.476 -2.2788  2.1755  0.1220
 8464TIP3    H246808   1.484   3.790   0.443  0.5345 -3.0523 -0.5581
 8465TIP3   OH246809   0.044   5.420  11.929 -0.1030  0.2654 -0.0202
 8465TIP3    H146810   0.089   5.380  12.004 -0.3215  0.5653  0.2724
 8465TIP3    H246811   0.091   5.387  11.852  0.0331 -0.1592  0.2416
 8466TIP3   OH246812   2.048   2.397   5.609  0.2516  0.0456 -0.1389
 8466TIP3    H146813   2.024   2.452   5.535  0.4027  0.0520 -0.1831
 8466TIP3    H246814   1.964   2.368   5.645  0.1725 -0.8941 -1.0117
 8467TIP3   OH246815   3.138   5.260  17.278  0.0339 -0.2573  0.3816
 8467TIP3    H146816   3.197   5.327  17.314  0.1639 -0.1355 -0.0562
 8467TIP3    H246817   3.068   5.254  17.342  1.2155 -1.4155  1.6422
 8468TIP3   OH246818   1.726   3.039   2.688 -0.4749 -0.1609  0.0219
 8468TIP3    H146819   1.696   2.952   2.716 -0.0859  0.0222  1.0632
 8468TIP3    H246820   1.820   3.037   2.704 -0.4861  0.4971  0.2031
 8469TIP3   OH246821   3.323   3.352  17.503  0.6039 -0.1677  0.6820
 8469TIP3    H146822   3.265   3.379  17.432  2.1407  0.3588 -0.4150
 8469TIP3    H246823   3.355   3.434  17.540  0.5768 -0.4519  1.3485
 8470TIP3   OH246824   3.794   0.211   0.908 -0.1675 -0.2085  0.4209
 8470TIP3    H146825   3.734   0.176   0.974 -0.4454  1.5923  1.1857
 8470TIP3    H246826   3.839   0.283   0.952  1.0588 -0.1991 -0.7854
 8471TIP3   OH246827   0.143   1.631  14.119  0.1944  0.4210  0.6197
 8471TIP3    H146828   0.098   1.547  14.124  0.2106  0.4763  2.1695
 8471TIP3    H246829   0.227   1.617  14.163  1.0959  0.7208 -0.9256
 8472TIP3   OH246830   6.655   4.010   2.592 -0.1279 -0.1877 -0.1014
 8472TIP3    H146831   6.730   4.038   2.541  2.8033 -3.0799  2.1573
 8472TIP3    H246832   6.665   4.054   2.676 -2.7475  1.6081 -0.5987
 8473TIP3   OH246833   0.095   0.832   1.785  0.4464  0.5744  0.0682
 8473TIP3    H146834   0.069   0.780   1.710  1.1638 -0.3512  0.4451
 8473TIP3    H246835   0.120   0.917   1.748 -0.6368  0.6296 -0.5610
 8474TIP3   OH246836   4.340   3.864   5.154  0.3798 -0.1854 -0.2492
 8474TIP3    H146837   4.418   3.834   5.107 -0.1116 -1.3365 -0.3736
 8474TIP3    H246838   4.327   3.953   5.123  2.5363  0.6132  0.9554
 8475TIP3   OH246839   3.151   0.349   3.204 -0.2308  0.0627 -0.5095
 8475TIP3    H146840   3.110   0.351   3.290 -0.0970 -0.9991 -0.3972
 8475TIP3    H246841   3.079   0.356   3.142 -0.3091  1.0169 -0.3113
 8476TIP3   OH246842   5.286   0.720  15.677 -0.4382  0.4278  0.2429
 8476TIP3    H146843   5.306   0.779  15.605  0.4502 -0.3781 -0.1929
 8476TIP3    H246844   5.218   0.662  15.642  1.1202 -1.0099 -0.5646
 8477TIP3   OH246845   2.714   2.433  13.784  0.1230 -0.1621 -0.7856
 8477TIP3    H146846   2.809   2.429  13.789  0.0391 -0.2568  1.9197
 8477TIP3    H246847   2.683   2.356  13.831 -1.3097 -0.2452 -1.7908
 8478TIP3   OH246848   2.328   2.972  13.816  0.6672 -0.8392 -0.2562
 8478TIP3    H146849   2.405   2.979  13.760  1.4033  0.6932  0.8949
 8478TIP3    H246850   2.357   3.003  13.902 -1.1555 -0.4675  0.2734
 8479TIP3   OH246851   1.763   1.709   4.556 -0.1932 -1.0864 -0.2891
 8479TIP3    H146852   1.721   1.714   4.470 -1.2275 -0.9390  0.2111
 8479TIP3    H246853   1.704   1.756   4.614  0.5695 -1.0626  0.4832
 8480TIP3   OH246854   3.824   5.901   1.602  0.0939 -0.4685 -0.3254
 8480TIP3    H146855   3.857   5.853   1.678  0.3195 -0.7728 -0.6110
 8480TIP3    H246856   3.745   5.945   1.633 -1.2472 -2.5771 -0.5411
 8481TIP3   OH246857   4.780   3.564  11.006  0.3203  0.2437 -0.5625
 8481TIP3    H146858   4.699   3.578  11.056  0.9614  0.1580  0.5189
 8481TIP3    H246859   4.798   3.648  10.966 -0.2825  0.2764 -0.7850
 8482TIP3   OH246860   6.273   6.537  13.720  0.3389  0.2438  0.6029
 8482TIP3    H146861   6.260   6.507  13.810 -0.4399 -0.4296  0.2792
 8482TIP3    H246862   6.185   6.561  13.690  0.4078 -0.6155 -0.3371
 8483TIP3   OH246863   0.837   4.900  11.971 -0.4242  0.2081  0.1130
 8483TIP3    H146864   0.869   4.810  11.973 -0.6946  0.1192  1.7295
 8483TIP3    H246865   0.773   4.902  11.900  1.1482 -0.2930 -1.4005
 8484TIP3   OH246866   2.912   5.243  11.983  0.0632 -0.3339  0.6826
 8484TIP3    H146867   2.897   5.153  11.954 -2.4501  0.4425 -0.6362
 8484TIP3    H246868   2.979   5.276  11.923  0.1202 -0.9479  0.3947
 8485TIP3   OH246869   0.617   1.903  15.701 -0.5988 -1.1207 -0.3348
 8485TIP3    H146870   0.615   1.953  15.782 -0.0588  0.7547 -1.4119
 8485TIP3    H246871   0.680   1.832  15.717 -0.1095 -0.4644  0.7110
 8486TIP3   OH246872   4.274   4.314   5.937 -0.2155 -0.4717 -0.1587
 8486TIP3    H146873   4.310   4.358   6.014  0.2414 -0.5594 -0.3209
 8486TIP3    H246874   4.350   4.292   5.883 -0.6498  1.4938 -1.6788
 8487TIP3   OH246875   6.706   2.504  13.600 -0.2658  0.6795 -0.4825
 8487TIP3    H146876   6.691   2.477  13.509  0.3947  1.0269 -0.6996
 8487TIP3    H246877   6.634   2.564  13.619  0.9164  2.5480 -1.6065
 8488TIP3   OH246878   0.945   0.731   5.799 -0.2914 -0.5502  0.1210
 8488TIP3    H146879   0.925   0.699   5.711 -0.5099 -0.4873  0.1474
 8488TIP3    H246880   0.884   0.684   5.856  0.0831 -0.8453  0.2798
 8489TIP3   OH246881   1.006   3.545   4.889 -0.5910  0.5350  0.2119
 8489TIP3    H146882   1.070   3.617   4.897 -0.3534  0.0828  3.2490
 8489TIP3    H246883   0.960   3.544   4.972 -1.4871 -2.0487 -0.2305
 8490TIP3   OH246884   6.691   1.413   2.148 -0.0035 -0.0890  0.2742
 8490TIP3    H146885   6.696   1.319   2.166  0.3431 -0.1858 -0.2775
 8490TIP3    H246886   6.714   1.420   2.055  2.1578  0.7334  0.8132
 8491TIP3   OH246887   0.283   0.214   2.780  0.4441  1.0187 -0.2198
 8491TIP3    H146888   0.360   0.157   2.778  1.4880  2.3919 -0.4674
 8491TIP3    H246889   0.250   0.206   2.870  0.0218 -0.6207 -0.4755
 8492TIP3   OH246890   0.862   6.252   0.389  0.1173 -0.1767 -0.2526
 8492TIP3    H146891   0.778   6.211   0.367 -0.6537 -0.5432  2.9656
 8492TIP3    H246892   0.918   6.179   0.413  0.5412  0.2502  0.0636
 8493TIP3   OH246893   6.624   0.485   5.719 -0.0906  0.1618 -0.2250
 8493TIP3    H146894   6.627   0.542   5.641 -1.4732  1.8078  0.8525
 8493TIP3    H246895   6.668   0.536   5.787 -0.4452 -0.5068  0.5137
 8494TIP3   OH246896   0.209   1.111  15.630  0.2541 -0.1661 -0.4265
 8494TIP3    H146897   0.187   1.085  15.541 -0.6736  0.6417 -0.4469
 8494TIP3    H246898   0.295   1.071  15.647  1.1730  0.9361 -2.2216
 8495TIP3   OH246899   1.080   0.443  12.106  0.3299  0.1102 -0.2779
 8495TIP3    H146900   1.164   0.435  12.059  1.4502  0.2684  1.5914
 8495TIP3    H246901   1.025   0.494  12.047  1.6179  0.2166 -1.4660
 8496TIP3   OH246902   2.819   3.445   1.744 -0.2604  0.1170  0.3109
 8496TIP3    H146903   2.790   3.503   1.673 -2.0330 -1.4510 -0.3093
 8496TIP3    H246904   2.752   3.377   1.749  0.5861 -0.6489  2.5322
 8497TIP3   OH246905   3.124   5.031   2.136 -0.0087  0.6489 -0.2394
 8497TIP3    H146906   3.180   5.084   2.080 -2.1267  1.4669 -1.6993
 8497TIP3    H246907   3.132   4.942   2.101 -1.1693  1.1203 -1.7774
 8498TIP3   OH246908   5.655   5.942  16.369  0.0135 -0.1234  0.0661
 8498TIP3    H146909   5.666   5.847  16.374  2.4404 -0.0281 -1.8724
 8498TIP3    H246910   5.646   5.961  16.276  0.3472  1.6127  0.3518
 8499TIP3   OH246911   2.643   0.401  14.329 -0.6589  0.2735 -0.3642
 8499TIP3    H146912   2.636   0.371  14.420  1.6745  3.1127  0.9150
 8499TIP3    H246913   2.573   0.465  14.320 -1.6158 -0.8255 -1.0122
 8500TIP3   OH246914   2.823   1.068   3.068  0.3749  0.2449 -0.1273
 8500TIP3    H146915   2.775   1.009   3.126 -3.3917  2.0289 -1.0776
 8500TIP3    H246916   2.811   1.031   2.980  2.6783 -0.3808 -0.2258
 8501TIP3   OH246917   2.154   4.873  17.600  0.3166  0.4224  0.1720
 8501TIP3    H146918   2.158   4.817  17.677  0.7045 -0.2155 -0.3032
 8501TIP3    H246919   2.245   4.898  17.584  0.4256 -0.5302 -0.8468
 8502TIP3   OH246920   5.170   5.403   5.158  0.2968  0.6820 -0.3272
 8502TIP3    H146921   5.262   5.427   5.168  1.2899 -2.8592  0.7913
 8502TIP3    H246922   5.137   5.397   5.247 -0.6388  0.7121 -0.6629
 8503TIP3   OH246923   4.688   5.610  15.020  0.4956  0.6459 -0.4154
 8503TIP3    H146924   4.650   5.529  15.052  1.9364 -0.3442 -1.1351
 8503TIP3    H246925   4.684   5.670  15.095  1.5952 -0.8411  0.8953
 8504TIP3   OH246926   3.888   4.838  13.041  0.3451  0.2524  0.3219
 8504TIP3    H146927   3.866   4.744  13.042 -0.5983  0.3916 -1.7860
 8504TIP3    H246928   3.978   4.840  13.008  1.0930  0.0316  2.2380
 8505TIP3   OH246929   4.148   5.283  15.770  0.3455 -0.1555 -0.1158
 8505TIP3    H146930   4.213   5.217  15.794 -0.0972 -1.2924 -1.8163
 8505TIP3    H246931   4.110   5.250  15.688 -2.6086  0.2771  0.9454
 8506TIP3   OH246932   2.668   4.219  16.525 -0.0824  0.1871 -0.3501
 8506TIP3    H146933   2.715   4.150  16.572  0.7104 -0.2670 -1.7659
 8506TIP3    H246934   2.605   4.253  16.589  0.8938 -0.4653  1.0039
 8507TIP3   OH246935   5.501   3.504   1.860 -0.3679 -0.0101 -0.5719
 8507TIP3    H146936   5.486   3.598   1.861 -2.4632 -0.2881  0.0752
 8507TIP3    H246937   5.451   3.472   1.785 -0.1054 -0.6570 -0.4838
 8508TIP3   OH246938   4.304   2.104   2.827 -0.7604 -0.0644 -0.4845
 8508TIP3    H146939   4.285   2.194   2.803 -0.2175  0.0036 -0.6555
 8508TIP3    H246940   4.289   2.054   2.747 -1.5561 -0.2025 -0.2614
 8509TIP3   OH246941   6.708   1.383   1.615 -0.1792 -0.2472  0.1208
 8509TIP3    H146942   6.705   1.384   1.520  1.9178  0.5873  0.0187
 8509TIP3    H246943   6.659   1.461   1.642 -0.4265 -0.2614 -0.2847
 8510TIP3   OH246944   5.851   5.077  15.694  0.1186 -0.1846 -0.9661
 8510TIP3    H146945   5.756   5.077  15.687 -0.1278  1.2465  1.4498
 8510TIP3    H246946   5.871   4.996  15.742 -0.0553  0.2490 -0.1348
 8511TIP3   OH246947   5.613   3.419  13.669  0.2091 -0.2507 -0.4145
 8511TIP3    H146948   5.523   3.402  13.698  0.4057  0.7413  0.8367
 8511TIP3    H246949   5.606   3.422  13.573 -1.5572  2.0478 -0.3028
 8512TIP3   OH246950   1.096   1.032   0.904 -0.1943 -0.0326 -0.2898
 8512TIP3    H146951   1.115   0.948   0.863  1.1602  0.1928 -0.1606
 8512TIP3    H246952   1.151   1.095   0.858  1.7029  0.1703  2.0669
 8513TIP3   OH246953   1.530   0.305   3.390  0.8772 -0.1287  0.0672
 8513TIP3    H146954   1.507   0.350   3.471  1.7403 -0.0558  0.2718
 8513TIP3    H246955   1.445   0.281   3.352  0.4573  0.1661  0.7967
 8514TIP3   OH246956   6.211   3.404   3.497  0.1798  0.0450  0.4599
 8514TIP3    H146957   6.131   3.355   3.514 -0.6031  1.3178  0.5959
 8514TIP3    H246958   6.273   3.373   3.563 -0.0976 -1.1504  0.1783
 8515TIP3   OH246959   6.129   5.396   1.146  0.3690  0.0561  0.1775
 8515TIP3    H146960   6.039   5.395   1.176  0.2368  0.2936 -0.1996
 8515TIP3    H246961   6.125   5.436   1.059  0.8096 -0.1203  0.0716
 8516TIP3   OH246962   2.618   0.171   2.109 -0.9058  0.0238  0.4579
 8516TIP3    H146963   2.690   0.171   2.046 -1.5354 -0.3404 -0.2820
 8516TIP3    H246964   2.628   0.253   2.157  0.2603 -0.2299  0.6748
 8517TIP3   OH246965   0.351   6.477   5.735  0.1048 -0.0282  0.2691
 8517TIP3    H146966   0.265   6.464   5.774 -0.3921 -0.5456 -0.9422
 8517TIP3    H246967   0.395   6.539   5.793 -0.7337 -0.4640  1.4149
 8518TIP3   OH246968   2.084   1.532   0.584  0.1098  0.6050 -0.1070
 8518TIP3    H146969   2.117   1.608   0.632  1.9051  0.0237 -0.3270
 8518TIP3    H246970   2.035   1.569   0.510  0.5574  1.5476  0.0564
 8519TIP3   OH246971   0.511   2.435  12.129  0.3141  0.2504  0.5312
 8519TIP3    H146972   0.593   2.416  12.174  0.3927 -0.6952  0.0225
 8519TIP3    H246973   0.443   2.421  12.195  0.5532  1.0527  0.9576
 8520TIP3   OH246974   3.032   0.876   3.880  0.7868 -0.0594  0.3406
 8520TIP3    H146975   3.014   0.958   3.927  0.7275  1.4378 -2.1377
 8520TIP3    H246976   3.127   0.870   3.879  0.8597  0.9218 -0.9108
 8521TIP3   OH246977   3.566   6.308  12.830  0.4107 -0.1115 -0.3900
 8521TIP3    H146978   3.590   6.298  12.738  3.5708  1.4706  0.1179
 8521TIP3    H246979   3.601   6.394  12.855 -1.0057 -0.1650  2.1230
 8522TIP3   OH246980   3.099   3.630  13.596 -0.4234 -0.0271  0.4206
 8522TIP3    H146981   3.042   3.690  13.643 -0.5508  1.1287 -1.1496
 8522TIP3    H246982   3.179   3.626  13.649 -0.1028  2.1686  0.1783
 8523TIP3   OH246983   4.681   1.596  15.009  0.0591  0.7917  0.1319
 8523TIP3    H146984   4.666   1.525  14.947 -0.2791  0.1403  0.9339
 8523TIP3    H246985   4.675   1.675  14.957 -1.4194  0.3191 -0.4536
 8524TIP3   OH246986   2.094   4.653   4.404  0.2661  0.3670  0.1053
 8524TIP3    H146987   2.037   4.725   4.378  0.0041 -0.7032 -2.6466
 8524TIP3    H246988   2.183   4.686   4.389  0.1719  0.3552 -0.4912
 8525TIP3   OH246989   3.239   6.503  12.925  0.1367  0.2058  0.0444
 8525TIP3    H146990   3.330   6.533  12.927  1.0242 -2.0163 -2.0811
 8525TIP3    H246991   3.243   6.418  12.881 -2.8246 -0.6396  1.1684
 8526TIP3   OH246992   4.352   5.024  11.282 -0.3394 -0.2165 -0.3850
 8526TIP3    H146993   4.319   4.968  11.352 -0.2626 -0.2516 -0.3754
 8526TIP3    H246994   4.371   4.965  11.210  2.1739 -0.6133  0.4807
 8527TIP3   OH246995   0.525   6.155   0.635 -0.4434 -0.2577  0.1343
 8527TIP3    H146996   0.554   6.244   0.618  1.2662 -0.6087  1.0268
 8527TIP3    H246997   0.593   6.100   0.595 -2.4120 -1.2447 -2.0979
 8528TIP3   OH246998   0.124   1.737   0.172 -0.3416  0.2166  0.4692
 8528TIP3    H146999   0.075   1.674   0.118 -0.2883 -0.0110  0.6836
 8528TIP3    H247000   0.201   1.687   0.202  0.0649  0.5909  0.0682
 8529TIP3   OH247001   1.010   6.273  14.225 -0.1368  0.8469 -0.0732
 8529TIP3    H147002   1.045   6.226  14.150 -1.1967 -0.9445  0.4751
 8529TIP3    H247003   0.921   6.297  14.199 -0.5462  0.1344  0.5877
 8530TIP3   OH247004   0.843   0.996   5.089  0.0576  0.0129 -0.1147
 8530TIP3    H147005   0.933   1.015   5.116  0.4750 -0.1766 -1.3248
 8530TIP3    H247006   0.795   1.078   5.108  0.2281 -0.2117  1.4667
 8531TIP3   OH247007   1.603   3.359  15.639 -0.5722 -0.1855 -0.0619
 8531TIP3    H147008   1.671   3.311  15.686 -0.5173  0.6760  0.7742
 8531TIP3    H247009   1.643   3.444  15.620 -0.5469 -0.5521 -1.8157
 8532TIP3   OH247010   1.611   0.610  15.613  0.3260  0.1847  0.4300
 8532TIP3    H147011   1.638   0.597  15.523 -1.3254 -0.0619 -0.0663
 8532TIP3    H247012   1.554   0.687  15.611 -0.0314 -0.0427  1.1878
 8533TIP3   OH247013   0.982   5.486  13.381  0.0799 -0.1194 -0.2558
 8533TIP3    H147014   0.969   5.538  13.460 -1.4782  0.4642 -0.8422
 8533TIP3    H247015   1.061   5.435  13.398  1.0691  1.6461  0.7653
 8534TIP3   OH247016   4.610   3.004   1.626 -0.1932  0.0612 -0.4657
 8534TIP3    H147017   4.531   3.023   1.575 -2.1839 -1.5092  1.7633
 8534TIP3    H247018   4.630   3.085   1.671  1.0264  1.1903 -2.8402
 8535TIP3   OH247019   5.840   0.530   2.975 -0.2272  0.1607 -0.3644
 8535TIP3    H147020   5.793   0.515   3.057  0.6168  0.6818  0.2388
 8535TIP3    H247021   5.781   0.498   2.907 -0.4242 -1.4786  0.5260
 8536TIP3   OH247022   6.612   3.814  12.893  0.2860  0.3650 -0.0420
 8536TIP3    H147023   6.655   3.884  12.844 -1.8354  2.6575  1.1290
 8536TIP3    H247024   6.677   3.745  12.899  2.4312  2.1267 -1.4743
 8537TIP3   OH247025   1.361   0.895  16.091  0.2223  0.5666 -0.8393
 8537TIP3    H147026   1.447   0.916  16.056  0.8950  0.6940  0.7905
 8537TIP3    H247027   1.326   0.978  16.122  0.5941  0.1687  0.7413
 8538TIP3   OH247028   1.331   5.589  12.658 -0.4403  0.0445  0.0078
 8538TIP3    H147029   1.425   5.580  12.640 -0.4004  1.0378 -0.3481
 8538TIP3    H247030   1.326   5.601  12.753 -0.4023 -2.1387  0.3380
 8539TIP3   OH247031   5.581   1.781  12.917  0.4669  0.0223  0.1016
 8539TIP3    H147032   5.518   1.808  12.983  0.4871 -0.3369  0.2696
 8539TIP3    H247033   5.666   1.805  12.953  0.5537 -1.1097  0.6679
 8540TIP3   OH247034   5.097   3.696   1.496  0.1574  0.2168  0.3918
 8540TIP3    H147035   5.109   3.762   1.565 -0.6002 -0.3321  1.0511
 8540TIP3    H247036   5.032   3.636   1.530  1.2176 -1.2024  0.0202
 8541TIP3   OH247037   2.892   5.155  12.289  0.5234  0.7105 -0.1257
 8541TIP3    H147038   2.986   5.168  12.280  0.7841 -1.0319 -0.2374
 8541TIP3    H247039   2.853   5.224  12.234  1.4848  4.4834  3.4199
 8542TIP3   OH247040   6.273   0.924   3.011  0.0527 -0.3957  0.1152
 8542TIP3    H147041   6.298   1.010   2.977  1.8983 -1.0057 -0.1618
 8542TIP3    H247042   6.216   0.944   3.085  0.1917  1.0636 -0.1428
 8543TIP3   OH247043   5.396   4.278   1.302  0.3625  0.1293  0.0847
 8543TIP3    H147044   5.491   4.280   1.294  1.1417 -2.6966  4.7535
 8543TIP3    H247045   5.374   4.352   1.359 -0.3325  0.9026 -1.1472
 8544TIP3   OH247046   0.442   6.544  12.510  0.3217  0.2108  0.0675
 8544TIP3    H147047   0.444   6.568  12.418 -0.4121 -0.1868 -0.0570
 8544TIP3    H247048   0.534   6.528  12.533  0.4216 -0.5607 -0.8247
 8545TIP3   OH247049   5.340   6.535   0.855  0.0990 -0.3650  0.7344
 8545TIP3    H147050   5.273   6.502   0.914  0.9324 -1.6200  0.9916
 8545TIP3    H247051   5.336   6.478   0.778 -1.4969  1.6878 -0.8469
 8546TIP3   OH247052   5.839   0.187   3.079  0.6203  0.6840 -0.1811
 8546TIP3    H147053   5.929   0.202   3.107  1.2890  0.1114 -1.8914
 8546TIP3    H247054   5.789   0.255   3.123  1.5103 -0.2439  2.4765
 8547TIP3   OH247055   1.691   4.052   2.356 -0.2061 -0.1889 -0.1327
 8547TIP3    H147056   1.661   4.124   2.301 -1.2516 -2.1384 -2.2511
 8547TIP3    H247057   1.775   4.082   2.391 -0.9630  2.3335 -0.2611
 8548TIP3   OH247058   0.944   3.649  10.539 -0.2522 -0.6717 -0.2079
 8548TIP3    H147059   0.988   3.634  10.623  0.9183 -0.0704 -0.6983
 8548TIP3    H247060   0.975   3.735  10.510 -2.7215  0.3683  0.0059
 8549TIP3   OH247061   2.428   5.965  16.597  0.6139  0.3512 -0.1496
 8549TIP3    H147062   2.509   5.962  16.545  1.3619 -0.9417  1.0299
 8549TIP3    H247063   2.365   6.009  16.540  1.8851  0.5383 -1.4722
 8550TIP3   OH247064   4.936   0.829  13.413 -0.2906 -0.3052  0.4956
 8550TIP3    H147065   4.951   0.788  13.498 -1.2601  0.3412  0.9880
 8550TIP3    H247066   4.852   0.873  13.421  0.2316  0.9214 -0.3482
 8551TIP3   OH247067   1.779   4.021  12.277  0.1863  0.8741 -0.4474
 8551TIP3    H147068   1.818   3.962  12.213  0.4666  1.8008 -1.1559
 8551TIP3    H247069   1.685   4.009  12.267  0.1980 -1.5531  1.4392
 8552TIP3   OH247070   5.626   4.460   4.575  0.2150  0.0791  0.1803
 8552TIP3    H147071   5.659   4.475   4.663 -0.6937  0.5574  0.4534
 8552TIP3    H247072   5.533   4.441   4.587  0.3159 -1.0131 -0.5797
 8553TIP3   OH247073   2.229   0.259   2.014 -0.1356  0.6054  0.1424
 8553TIP3    H147074   2.138   0.272   2.040 -0.0716  0.2807  0.5339
 8553TIP3    H247075   2.257   0.181   2.062  0.0346  0.0830 -0.7648
 8554TIP3   OH247076   4.928   0.789  13.752  0.0109 -1.2217 -0.6644
 8554TIP3    H147077   4.994   0.730  13.715  1.7900  0.1803  0.1223
 8554TIP3    H247078   4.902   0.747  13.834  2.8213 -0.0683  0.9818
 8555TIP3   OH247079   3.233   1.817   2.166  0.2228  0.5376 -0.1409
 8555TIP3    H147080   3.141   1.842   2.158 -0.3857 -1.3472  0.4040
 8555TIP3    H247081   3.231   1.735   2.216  2.1304  0.0402 -0.8008
 8556TIP3   OH247082   6.246   4.369  12.544  0.3645  0.0993 -0.1660
 8556TIP3    H147083   6.298   4.332  12.615 -0.9968 -0.5678  0.5323
 8556TIP3    H247084   6.287   4.335  12.464  1.4268  0.2026  0.3226
 8557TIP3   OH247085   6.307   5.583  15.110 -0.0689 -0.3212  0.5292
 8557TIP3    H147086   6.229   5.527  15.113 -0.8394  0.7739  2.5028
 8557TIP3    H247087   6.276   5.666  15.074  0.4488 -0.2224  0.2962
 8558TIP3   OH247088   2.698   3.389   5.368  0.4040  0.8073 -0.3539
 8558TIP3    H147089   2.628   3.356   5.425  1.0959 -1.8320 -0.8858
 8558TIP3    H247090   2.777   3.379   5.420  0.8196  0.1202 -1.1055
 8559TIP3   OH247091   4.458   2.628   0.199 -0.2188 -0.3150  0.1753
 8559TIP3    H147092   4.480   2.708   0.151  0.3401 -1.1456 -1.0063
 8559TIP3    H247093   4.410   2.575   0.136 -3.0275  0.1551  1.7516
 8560TIP3   OH247094   0.227   0.137  17.101  0.1365 -0.5260 -0.4903
 8560TIP3    H147095   0.134   0.132  17.123  0.6659 -0.2148  2.1626
 8560TIP3    H247096   0.251   0.228  17.117  1.1540 -0.8941  0.2627
 8561TIP3   OH247097   3.508   1.457  12.732  0.0171  0.1975  0.4560
 8561TIP3    H147098   3.571   1.468  12.661 -0.7532  2.3576  0.0226
 8561TIP3    H247099   3.427   1.429  12.688 -0.1032  0.2656  0.6329
 8562TIP3   OH247100   6.069   1.381   5.201 -0.0772  0.4236  0.2110
 8562TIP3    H147101   6.059   1.295   5.242 -0.0537  0.3603  0.0817
 8562TIP3    H247102   6.017   1.440   5.256  0.8111  0.5319  0.9752
 8563TIP3   OH247103   0.661   3.968  16.009  0.2705 -0.0302  0.1466
 8563TIP3    H147104   0.587   3.928  16.055 -0.5213  0.8342 -0.3427
 8563TIP3    H247105   0.725   3.986  16.078 -1.1368  1.7802  1.0593
 8564TIP3   OH247106   3.521   4.500  16.825  0.7513  0.1141 -0.1016
 8564TIP3    H147107   3.547   4.515  16.916  2.9657  0.8416 -0.7876
 8564TIP3    H247108   3.510   4.587  16.788  0.3620 -0.1697 -0.6737
 8565TIP3   OH247109   4.777   6.156  17.484 -0.3521  0.1362 -0.0118
 8565TIP3    H147110   4.750   6.111  17.404 -2.0031  0.0875  0.5453
 8565TIP3    H247111   4.873   6.153  17.482 -0.3886 -0.9044 -1.3853
 8566TIP3   OH247112   2.932   1.449  13.539 -0.2697  0.5675  0.6329
 8566TIP3    H147113   2.898   1.377  13.486 -0.1972 -0.0467  1.4012
 8566TIP3    H247114   2.893   1.528  13.501  0.3622  0.2275 -0.7916
 8567TIP3   OH247115   2.319   5.739   0.475 -0.1483 -0.0996 -0.1742
 8567TIP3    H147116   2.372   5.795   0.531 -0.3756  2.3222 -2.1814
 8567TIP3    H247117   2.252   5.703   0.533  2.0022 -1.0989  1.8615
 8568TIP3   OH247118   2.167   5.178   2.284  0.7346  0.0003 -0.8983
 8568TIP3    H147119   2.083   5.133   2.290  0.5655  0.5023  0.8305
 8568TIP3    H247120   2.231   5.108   2.273  0.6734 -1.0055  3.3978
 8569TIP3   OH247121   3.883   3.253  15.197  0.2171  0.0658  0.1372
 8569TIP3    H147122   3.855   3.334  15.156  1.9536  0.5182 -0.2422
 8569TIP3    H247123   3.817   3.236  15.264  0.6073  2.6472  1.3008
 8570TIP3   OH247124   4.832   3.864   0.362 -0.3327  0.1916 -0.5295
 8570TIP3    H147125   4.747   3.855   0.320 -1.0958  0.8072  0.7973
 8570TIP3    H247126   4.886   3.797   0.322 -1.6797 -0.7476 -0.8503
 8571TIP3   OH247127   1.277   1.198   5.600 -0.6563  0.1863  0.3484
 8571TIP3    H147128   1.267   1.127   5.537  1.7585  0.1839 -0.1260
 8571TIP3    H247129   1.357   1.176   5.648 -0.5234  1.9734  1.0058
 8572TIP3   OH247130   3.953   1.284   6.093 -0.4301  0.0734 -0.1443
 8572TIP3    H147131   3.925   1.371   6.066  0.9659 -0.1135 -2.4981
 8572TIP3    H247132   3.991   1.296   6.180 -1.0878  1.6137 -0.0419
 8573TIP3   OH247133   5.094   5.645   3.228 -0.5888  0.3405 -0.4325
 8573TIP3    H147134   5.057   5.585   3.163  1.5641 -2.5870  0.8296
 8573TIP3    H247135   5.106   5.728   3.180  0.7564 -1.5773 -3.7544
 8574TIP3   OH247136   4.859   0.216   5.016  0.3127 -0.2068  0.3901
 8574TIP3    H147137   4.935   0.202   4.960 -0.2446 -2.9145  0.2190
 8574TIP3    H247138   4.792   0.250   4.957  0.9837  1.0461  0.3111
 8575TIP3   OH247139   0.356   0.657   3.661  0.4797  0.0930 -0.5219
 8575TIP3    H147140   0.296   0.583   3.650  2.4398 -1.8867  1.1561
 8575TIP3    H247141   0.412   0.653   3.584  0.3777  0.0457 -0.5943
 8576TIP3   OH247142   2.829   6.135  16.377 -0.5156 -0.4121 -0.1297
 8576TIP3    H147143   2.813   6.228  16.393  0.1194 -0.0545 -1.4514
 8576TIP3    H247144   2.855   6.100  16.462  1.3155  1.0722 -0.0358
 8577TIP3   OH247145   5.884   6.177  15.867  1.0623 -0.6243  0.5750
 8577TIP3    H147146   5.887   6.257  15.920  2.6438 -0.2323 -0.0414
 8577TIP3    H247147   5.893   6.106  15.930 -1.4344 -0.4306  1.2486
 8578TIP3   OH247148   4.113   4.347  16.056  0.0743  0.3784  0.5188
 8578TIP3    H147149   4.035   4.367  16.108  0.2907  1.1024  0.5739
 8578TIP3    H247150   4.093   4.263  16.015  0.1901 -0.6368  2.3930
 8579TIP3   OH247151   0.204   3.898  13.420 -0.0558 -0.1768 -0.4320
 8579TIP3    H147152   0.196   3.881  13.326  0.2720 -0.9563 -0.3273
 8579TIP3    H247153   0.152   3.829  13.461 -0.1801  0.1488 -0.0386
 8580TIP3   OH247154   2.314   3.615   1.170 -0.3732 -0.7704  0.3205
 8580TIP3    H147155   2.250   3.616   1.099  0.7391  1.2954 -0.7281
 8580TIP3    H247156   2.355   3.702   1.167  2.1509 -1.8383  1.2401
 8581TIP3   OH247157   0.113   2.149  16.130  0.0678  0.2891 -0.1138
 8581TIP3    H147158   0.186   2.109  16.177 -0.0430 -1.2489 -1.1621
 8581TIP3    H247159   0.117   2.111  16.042 -0.4144  2.2140 -1.0110
 8582TIP3   OH247160   4.070   6.644  12.151  0.6959  0.0711 -0.2444
 8582TIP3    H147161   4.130   6.717  12.131 -1.1744  1.8350  0.2632
 8582TIP3    H247162   4.080   6.631  12.246  0.6353  0.0310 -0.2438
 8583TIP3   OH247163   0.671   2.525  13.524  0.4083  0.4370 -0.2514
 8583TIP3    H147164   0.646   2.489  13.439  1.5419 -0.7414 -0.1135
 8583TIP3    H247165   0.658   2.620  13.515  0.6394  0.3458 -1.7886
 8584TIP3   OH247166   0.982   1.669   3.346 -0.0922  0.6021 -0.4011
 8584TIP3    H147167   0.890   1.681   3.322 -0.9078 -0.3111  1.9400
 8584TIP3    H247168   1.003   1.580   3.320  0.1943  0.8673 -1.0898
 8585TIP3   OH247169   2.447   6.587   5.982 -0.1245  0.2138 -0.1763
 8585TIP3    H147170   2.471   6.659   5.924  0.2070 -0.4832 -0.9318
 8585TIP3    H247171   2.524   6.574   6.036 -0.1168  0.3109 -0.1639
 8586TIP3   OH247172   4.097   4.901  16.704 -0.3948 -0.1294 -0.6859
 8586TIP3    H147173   4.117   4.952  16.783 -1.9284 -1.3157  0.5475
 8586TIP3    H247174   4.147   4.820  16.715  1.1413  0.5881 -2.0764
 8587TIP3   OH247175   4.508   5.429  11.049  0.2913 -0.1679  0.0857
 8587TIP3    H147176   4.575   5.396  10.989 -0.4528 -0.1157 -0.7941
 8587TIP3    H247177   4.525   5.523  11.055  0.5133 -0.2119  0.1310
 8588TIP3   OH247178   4.723   3.022  14.821  0.5270  0.3162 -0.0473
 8588TIP3    H147179   4.716   3.009  14.726 -0.8935  1.0209 -0.0691
 8588TIP3    H247180   4.811   2.992  14.843  0.7048 -0.3190 -1.5097
 8589TIP3   OH247181   3.679   5.795  16.048  0.5045  0.2644  0.1761
 8589TIP3    H147182   3.726   5.785  15.966  0.1999  0.9126 -0.0872
 8589TIP3    H247183   3.730   5.745  16.112  1.5212  0.9016 -0.1163
 8590TIP3   OH247184   0.265   5.001  16.087 -0.9398 -0.1456 -0.5449
 8590TIP3    H147185   0.237   4.909  16.094  1.7818 -1.0264 -0.0487
 8590TIP3    H247186   0.358   4.996  16.067 -0.2751  2.4895  1.3812
 8591TIP3   OH247187   6.702   3.679  13.293  0.2245 -0.5261  0.1071
 8591TIP3    H147188   6.660   3.652  13.211 -0.4718 -0.8388  0.5627
 8591TIP3    H247189   6.633   3.722  13.343  1.2133  1.8593 -0.4478
 8592TIP3   OH247190   4.514   6.351   2.968  0.6115  0.2538  0.4699
 8592TIP3    H147191   4.441   6.359   3.030 -1.0433 -2.1714 -0.9851
 8592TIP3    H247192   4.591   6.341   3.024  0.0336  3.3143  2.0705
 8593TIP3   OH247193   5.423   0.183   3.450 -0.7165  0.0430 -0.3310
 8593TIP3    H147194   5.481   0.138   3.512 -1.0314 -1.5042 -1.1165
 8593TIP3    H247195   5.441   0.276   3.464  1.0705 -0.3588  0.3029
 8594TIP3   OH247196   2.445   6.049  12.355 -0.6090 -0.0615  0.2722
 8594TIP3    H147197   2.470   6.074  12.444  2.9561  0.2362 -0.6516
 8594TIP3    H247198   2.467   5.956  12.349  3.4563  0.7602 -1.3272
 8595TIP3   OH247199   3.027   0.463  16.798  0.7046  0.6124 -0.6426
 8595TIP3    H147200   3.022   0.550  16.758  0.8860  2.1968  2.5330
 8595TIP3    H247201   3.064   0.477  16.884  2.7113 -2.9481 -0.7253
 8596TIP3   OH247202   5.990   4.443   3.901  0.1488 -0.6235  0.4476
 8596TIP3    H147203   5.939   4.373   3.942 -1.3643  0.8150  1.1124
 8596TIP3    H247204   5.943   4.463   3.821 -0.3260  0.6830  1.0375
 8597TIP3   OH247205   0.750   2.387   4.619  0.5948 -0.1597 -0.3693
 8597TIP3    H147206   0.671   2.334   4.612  0.6906 -0.4489  0.5265
 8597TIP3    H247207   0.734   2.444   4.694  1.5989 -0.9034  0.4523
 8598TIP3   OH247208   2.196   2.036  11.086  0.2375 -0.4721 -0.0062
 8598TIP3    H147209   2.211   1.946  11.115  0.4789 -0.1533  0.9026
 8598TIP3    H247210   2.109   2.035  11.047 -0.0461 -0.9555  0.6254
 8599TIP3   OH247211   4.780   3.041   5.229 -0.2303 -0.6481  0.2857
 8599TIP3    H147212   4.852   3.053   5.168  0.5876 -1.7818  0.9769
 8599TIP3    H247213   4.795   3.106   5.298 -0.7223  0.1154 -0.3186
 8600TIP3   OH247214   6.365   2.992  12.136 -0.4190 -0.0554  0.0717
 8600TIP3    H147215   6.337   2.929  12.202  2.8511 -0.5195  1.2227
 8600TIP3    H247216   6.337   3.077  12.169  0.0462 -0.4133  1.4183
 8601TIP3   OH247217   4.569   6.584  15.626 -0.0904  0.1460  0.0881
 8601TIP3    H147218   4.587   6.494  15.597 -0.2506  0.3564 -0.7139
 8601TIP3    H247219   4.529   6.625  15.549 -0.9399  0.6182  0.7660
 8602TIP3   OH247220   5.987   6.554   3.701 -0.3523 -0.0433  0.2817
 8602TIP3    H147221   5.930   6.572   3.775  0.5014 -1.3555  1.3147
 8602TIP3    H247222   6.061   6.614   3.711  0.0120 -0.5637  0.8197
 8603TIP3   OH247223   4.379   5.617  16.272  0.0782 -0.2618 -0.1733
 8603TIP3    H147224   4.405   5.533  16.234 -2.0373 -1.5715  1.0799
 8603TIP3    H247225   4.431   5.624  16.352 -0.2148 -0.7076  0.0603
 8604TIP3   OH247226   6.009   5.189  15.207 -0.2887 -0.0023  0.2894
 8604TIP3    H147227   5.914   5.183  15.221 -0.6140  2.3943 -0.5296
 8604TIP3    H247228   6.046   5.181  15.295 -1.3981  1.0117  0.8931
 8605TIP3   OH247229   2.236   0.407  16.995  0.5123  0.3969 -0.2417
 8605TIP3    H147230   2.294   0.358  17.054 -0.4779 -0.0378  0.4014
 8605TIP3    H247231   2.229   0.493  17.036 -0.0542  0.1429  0.2135
 8606TIP3   OH247232   6.636   5.129  13.293  0.1843  0.5919  0.5693
 8606TIP3    H147233   6.684   5.186  13.354 -0.8782 -0.8870  2.9065
 8606TIP3    H247234   6.700   5.064  13.266  0.1139 -0.1342  2.0348
 8607TIP3   OH247235   4.880   2.785   5.009  0.0488 -0.3298  0.2396
 8607TIP3    H147236   4.930   2.770   5.089 -1.0659 -2.5778  0.5629
 8607TIP3    H247237   4.904   2.713   4.951 -0.9710 -0.0778 -0.5376
 8608TIP3   OH247238   1.549   5.581   3.555 -0.4476  0.0869 -0.9005
 8608TIP3    H147239   1.551   5.567   3.460 -0.2371  0.5530 -0.9666
 8608TIP3    H247240   1.456   5.591   3.575 -0.4484  0.6446 -1.1585
 8609TIP3   OH247241   5.471   5.264  17.336  0.0130 -0.2300  0.3360
 8609TIP3    H147242   5.391   5.317  17.341  0.2732  0.2284 -0.3031
 8609TIP3    H247243   5.530   5.304  17.401  1.5449  2.5847 -2.5097
 8610TIP3   OH247244   0.046   6.551  16.729 -0.3839 -0.6891  0.0274
 8610TIP3    H147245  -0.017   6.503  16.783 -0.3749 -0.8641 -0.1149
 8610TIP3    H247246   0.092   6.482  16.680  0.0425 -0.5788  0.2661
 8611TIP3   OH247247   6.648   1.952  13.308 -0.0897  0.2377 -0.0321
 8611TIP3    H147248   6.682   1.928  13.221  0.3701  0.4030  0.0961
 8611TIP3    H247249   6.721   1.998  13.350 -0.4793  0.6090  0.2527
 8612TIP3   OH247250   6.022   6.647  11.298  0.4737  0.2687  0.1475
 8612TIP3    H147251   6.106   6.687  11.274  0.7113  0.3683  1.0991
 8612TIP3    H247252   5.970   6.720  11.332 -0.0283  0.2179 -0.5058
 8613TIP3   OH247253   2.243   2.156  15.752  0.3209 -0.1424 -0.0776
 8613TIP3    H147254   2.148   2.144  15.758  0.0799  1.6562  0.4599
 8613TIP3    H247255   2.263   2.144  15.659 -0.9677  2.3533 -0.7873
 8614TIP3   OH247256   4.906   5.623   1.716 -0.0091 -0.2089  0.2699
 8614TIP3    H147257   4.843   5.585   1.655  0.1867 -0.0356 -0.0454
 8614TIP3    H247258   4.881   5.589   1.802 -0.2093 -0.5567  0.0731
 8615TIP3   OH247259   3.610   6.347  13.482  0.5802  0.0162 -0.2356
 8615TIP3    H147260   3.594   6.337  13.388  2.7702  2.4612 -0.9898
 8615TIP3    H247261   3.637   6.439  13.493 -0.6600  0.1438  2.9796
 8616TIP3   OH247262   3.735   2.840  15.256 -0.0575  0.4213 -0.1322
 8616TIP3    H147263   3.675   2.768  15.236  0.9762 -0.2762 -0.8273
 8616TIP3    H247264   3.807   2.829  15.194  2.4145 -0.7039  2.7119
 8617TIP3   OH247265   5.047   3.958  11.163  0.6680 -0.0198 -0.4466
 8617TIP3    H147266   5.036   3.962  11.068 -4.1952 -0.2029 -0.1365
 8617TIP3    H247267   5.049   3.864  11.183  0.8759  0.0170 -0.2841
 8618TIP3   OH247268   2.238   5.202  14.559 -0.1356  0.0110  0.0332
 8618TIP3    H147269   2.309   5.157  14.514 -1.2127 -1.3836 -0.3483
 8618TIP3    H247270   2.248   5.177  14.651  2.1976  3.0355  0.7850
 8619TIP3   OH247271   0.585   6.458  15.567 -0.6851 -0.0630  0.1275
 8619TIP3    H147272   0.675   6.475  15.540 -0.4098  1.6121  1.8481
 8619TIP3    H247273   0.575   6.363  15.559  1.0044 -0.2129 -0.7130
 8620TIP3   OH247274   0.292   5.350  15.632 -0.0704 -0.1552  0.2098
 8620TIP3    H147275   0.305   5.256  15.621  0.6863  0.0070 -0.4031
 8620TIP3    H247276   0.290   5.384  15.543  2.8271  0.7952  0.4082
 8621TIP3   OH247277   0.198   4.286   5.538 -0.0553 -0.1377  0.1588
 8621TIP3    H147278   0.164   4.340   5.467 -2.1032 -0.9740  0.4010
 8621TIP3    H247279   0.270   4.237   5.499  1.1259  1.9054 -0.3486
 8622TIP3   OH247280   3.615   1.456  14.806  0.1090  0.1371  0.9320
 8622TIP3    H147281   3.670   1.517  14.856  0.2539  0.9494 -0.1621
 8622TIP3    H247282   3.585   1.508  14.731 -1.1769 -0.6526  0.8802
 8623TIP3   OH247283   2.598   4.052   2.601  0.2517 -0.3470  0.1378
 8623TIP3    H147284   2.592   3.961   2.571  0.5931 -0.3152 -0.0277
 8623TIP3    H247285   2.689   4.062   2.629  0.1308 -0.1529  0.4695
 8624TIP3   OH247286   3.454   4.570  11.731  0.4147 -0.3108 -0.0901
 8624TIP3    H147287   3.364   4.579  11.762  0.7816 -1.1487  1.3112
 8624TIP3    H247288   3.487   4.491  11.775  1.4927 -0.6469 -1.4316
 8625TIP3   OH247289   4.795   3.543  14.159 -0.0041  0.2377 -0.4745
 8625TIP3    H147290   4.862   3.477  14.172  0.1816  0.9305  2.8635
 8625TIP3    H247291   4.837   3.626  14.185 -1.7871  0.8241  0.7494
 8626TIP3   OH247292   0.585   1.978   3.758  0.1859 -0.0291 -0.2439
 8626TIP3    H147293   0.552   1.890   3.772  1.6971 -0.6306 -0.3400
 8626TIP3    H247294   0.511   2.035   3.782 -0.3060 -1.2485  1.3027
 8627TIP3   OH247295   1.114   6.129   3.450 -0.6087  0.1272  0.4678
 8627TIP3    H147296   1.108   6.182   3.370 -0.1587  1.6687  1.4266
 8627TIP3    H247297   1.049   6.060   3.436  0.3103 -0.4030 -1.7525
 8628TIP3   OH247298   3.646   3.102   2.712 -0.3918  0.3597  0.3177
 8628TIP3    H147299   3.625   3.031   2.651 -0.4810  1.0761 -0.5147
 8628TIP3    H247300   3.597   3.081   2.791  1.7189 -1.9770  1.1443
 8629TIP3   OH247301   0.557   6.584   5.283  0.8143  0.0897  0.2316
 8629TIP3    H147302   0.561   6.597   5.377 -1.6515  2.8316  0.1132
 8629TIP3    H247303   0.596   6.663   5.246 -0.0774 -0.0133 -1.0011
 8630TIP3   OH247304   6.427   3.958  16.260  0.0031 -0.6078 -0.1664
 8630TIP3    H147305   6.456   3.904  16.334 -0.6777  0.7327  1.1218
 8630TIP3    H247306   6.479   3.926  16.186  1.0855 -1.6403  0.9782
 8631TIP3   OH247307   3.611   3.640   1.067  0.5357  0.4422  0.3322
 8631TIP3    H147308   3.643   3.710   1.124  0.7001  0.0954  0.6695
 8631TIP3    H247309   3.515   3.644   1.076  0.5931 -0.6146  1.8813
 8632TIP3   OH247310   3.527   3.374   0.833 -0.3377  0.2700  0.0864
 8632TIP3    H147311   3.608   3.365   0.784 -0.1773  0.8987  0.2223
 8632TIP3    H247312   3.551   3.425   0.911 -1.2236  2.3544 -0.9085
 8633TIP3   OH247313   3.071   1.113   4.928  0.1345  0.1409  0.1568
 8633TIP3    H147314   2.994   1.074   4.886  0.9992 -0.1534 -1.2057
 8633TIP3    H247315   3.135   1.042   4.931  0.7625  0.7058  0.2211
 8634TIP3   OH247316   3.201   3.137   5.949 -0.1322  0.0304 -0.2215
 8634TIP3    H147317   3.118   3.126   5.903  0.3577 -2.0855 -0.7413
 8634TIP3    H247318   3.266   3.100   5.889  1.2026  1.6008  0.1959
 8635TIP3   OH247319   4.852   1.804  12.402 -0.1098  0.0704  0.2043
 8635TIP3    H147320   4.945   1.814  12.424  0.3321  1.0988 -1.8926
 8635TIP3    H247321   4.851   1.744  12.327 -0.9595  1.2544 -0.7830
 8636TIP3   OH247322   0.692   3.831  17.194  0.4748  0.0080  0.4326
 8636TIP3    H147323   0.699   3.737  17.206 -1.6607 -0.0956  1.2341
 8636TIP3    H247324   0.719   3.869  17.277 -0.4787 -0.0035  0.7546
 8637TIP3   OH247325   4.090   0.739   0.485 -0.0535 -0.2389 -0.1268
 8637TIP3    H147326   4.030   0.733   0.560  0.3111 -1.1147  0.1083
 8637TIP3    H247327   4.151   0.809   0.509 -0.4907  0.1037 -0.0067
 8638TIP3   OH247328   5.499   3.833   0.786 -0.3380 -0.0155 -0.3618
 8638TIP3    H147329   5.418   3.865   0.748  1.1214  1.8920 -2.0605
 8638TIP3    H247330   5.560   3.829   0.712  0.7319 -2.9328  0.5408
 8639TIP3   OH247331   1.623   3.301  11.792 -0.2758 -0.2168 -0.3775
 8639TIP3    H147332   1.620   3.229  11.728  0.1233  1.2477 -2.1345
 8639TIP3    H247333   1.536   3.302  11.831 -0.4723 -1.2709 -0.7464
 8640TIP3   OH247334   2.397   6.004   4.677 -0.3132  0.0738 -0.2577
 8640TIP3    H147335   2.402   5.970   4.766  0.6251  1.0300  0.0721
 8640TIP3    H247336   2.419   5.930   4.621 -0.1846 -0.3413  0.3371
 8641TIP3   OH247337   0.455   1.702   3.908 -0.2586 -0.0900 -0.0804
 8641TIP3    H147338   0.368   1.663   3.918 -0.3445  0.2219  0.3878
 8641TIP3    H247339   0.445   1.793   3.937 -0.1707  0.4332 -1.5686
 8642TIP3   OH247340   6.085   1.461   6.305 -0.0252 -0.1515  0.2895
 8642TIP3    H147341   5.997   1.455   6.267  0.2721  0.1344 -0.4655
 8642TIP3    H247342   6.093   1.384   6.361 -1.0554  0.2450  1.0122
 8643TIP3   OH247343   6.141   1.033   4.201 -0.2363 -0.1670  0.5679
 8643TIP3    H147344   6.180   1.076   4.277  1.1728 -1.4930  0.6537
 8643TIP3    H247345   6.209   0.972   4.171 -1.4225 -0.9175 -0.6967
 8644TIP3   OH247346   2.531   2.032   3.741  0.6842  0.0645 -0.6656
 8644TIP3    H147347   2.476   2.042   3.663 -0.1113 -1.1903 -0.2837
 8644TIP3    H247348   2.514   2.111   3.792 -0.5669 -0.1744 -0.6908
 8645TIP3   OH247349   2.071   0.912  13.645  0.3077 -0.4227 -0.4938
 8645TIP3    H147350   2.082   0.817  13.639 -1.2182 -0.5846 -0.9905
 8645TIP3    H247351   2.017   0.935  13.570  0.1497  0.7561 -0.0435
 8646TIP3   OH247352   3.658   3.829  15.110 -0.2235 -0.4050  0.3671
 8646TIP3    H147353   3.739   3.782  15.126  0.3456  0.5272  0.2705
 8646TIP3    H247354   3.653   3.896  15.179  0.1302  0.8644 -0.7916
 8647TIP3   OH247355   3.196   4.144   5.229  0.6641  0.2966  0.3981
 8647TIP3    H147356   3.247   4.137   5.310  0.0384  2.3622  1.0363
 8647TIP3    H247357   3.185   4.238   5.216  1.3470  0.0669 -2.5070
 8648TIP3   OH247358   1.059   2.854  17.005 -0.0866 -0.4194  0.1620
 8648TIP3    H147359   1.118   2.895  16.941  0.3990 -0.7043  0.4235
 8648TIP3    H247360   1.017   2.927  17.050  0.9807 -0.1915  0.8207
 8649TIP3   OH247361   6.177   3.176   1.175  0.3475 -0.3407  0.2380
 8649TIP3    H147362   6.241   3.219   1.117  1.1449 -0.5008  0.9760
 8649TIP3    H247363   6.127   3.248   1.213 -0.3144 -0.2465 -0.7924
 8650TIP3   OH247364   1.985   4.129   3.544 -0.0927  0.3123 -0.4102
 8650TIP3    H147365   2.012   4.165   3.629  2.1589 -2.2057  0.0864
 8650TIP3    H247366   2.054   4.156   3.484 -0.5245  0.2516 -0.9390
 8651TIP3   OH247367   1.972   5.812  12.682  0.4096  0.1150 -0.3245
 8651TIP3    H147368   2.056   5.767  12.674  1.3359  1.7610 -0.3088
 8651TIP3    H247369   1.975   5.852  12.769 -1.4499 -1.7768  0.6965
 8652TIP3   OH247370   3.834   4.561  13.083 -0.1579 -0.0463  0.0316
 8652TIP3    H147371   3.802   4.475  13.059  0.5986  0.1349 -1.7785
 8652TIP3    H247372   3.917   4.544  13.128  0.0122 -0.2765 -0.3611
 8653TIP3   OH247373   2.501   1.348  14.341 -0.2749  0.0643 -0.4583
 8653TIP3    H147374   2.553   1.330  14.263  0.3704  0.3926 -0.1103
 8653TIP3    H247375   2.542   1.296  14.410 -1.3250 -0.8529 -0.4927
 8654TIP3   OH247376   2.321   0.825  15.890  0.1063  0.9542 -0.0860
 8654TIP3    H147377   2.297   0.737  15.861 -1.7352  2.2681 -3.0227
 8654TIP3    H247378   2.241   0.861  15.927  0.8990  1.3532  1.2834
 8655TIP3   OH247379   6.098   5.189   6.378 -0.2945  0.0950 -0.3522
 8655TIP3    H147380   6.085   5.100   6.410 -0.9601  0.2763 -0.1078
 8655TIP3    H247381   6.192   5.194   6.358 -0.1482 -0.4747  0.1838
 8656TIP3   OH247382   1.770   5.969   4.724 -0.4127 -0.0836  0.2068
 8656TIP3    H147383   1.728   6.054   4.708  1.3159  0.5425 -1.4016
 8656TIP3    H247384   1.744   5.946   4.813 -2.0918  1.4318  0.1652
 8657TIP3   OH247385   1.575   6.603   1.273  0.1514  0.3636 -0.3086
 8657TIP3    H147386   1.542   6.546   1.343 -0.0131 -0.5794 -1.1226
 8657TIP3    H247387   1.594   6.543   1.201  0.2470  1.3209 -1.1020
 8658TIP3   OH247388   0.624   4.196  14.476  0.1994 -0.1242  0.0794
 8658TIP3    H147389   0.532   4.212  14.454 -0.3189 -2.7047  0.0342
 8658TIP3    H247390   0.650   4.272  14.528 -1.2746  1.7261 -1.7486
 8659TIP3   OH247391   2.440   0.438  16.330  0.4409 -0.3552 -0.0048
 8659TIP3    H147392   2.387   0.442  16.410  0.1050  0.4756 -0.2618
 8659TIP3    H247393   2.378   0.419  16.260  0.8185 -1.6704 -0.0047
 8660TIP3   OH247394   4.151   0.745  14.110  0.7710 -0.1487 -0.2966
 8660TIP3    H147395   4.120   0.724  14.022 -0.0249  1.1846 -0.3759
 8660TIP3    H247396   4.205   0.671  14.135 -1.7066 -2.1891 -0.5484
 8661TIP3   OH247397   0.625   3.597  16.652  0.3382 -0.3047  0.1367
 8661TIP3    H147398   0.611   3.521  16.595 -0.7076 -3.2720  3.9419
 8661TIP3    H247399   0.556   3.658  16.626  0.3266 -1.1726 -2.1476
 8662TIP3   OH247400   1.290   1.359  12.055  0.6246 -0.3189 -0.4140
 8662TIP3    H147401   1.372   1.336  12.098 -0.1182  0.2240  1.3925
 8662TIP3    H247402   1.290   1.455  12.053 -1.1196 -0.1504  2.1809
 8663TIP3   OH247403   5.272   0.652   5.050 -0.1532 -0.3184  0.2236
 8663TIP3    H147404   5.181   0.625   5.058  0.2409 -1.2452  2.2394
 8663TIP3    H247405   5.304   0.656   5.140  2.0170 -0.8143 -0.4580
 8664TIP3   OH247406   3.484   4.003   3.703  0.3783 -0.2930 -0.6306
 8664TIP3    H147407   3.558   4.031   3.649 -0.6399  0.8661 -1.4816
 8664TIP3    H247408   3.470   3.911   3.681  1.3779 -0.4382 -0.6718
 8665TIP3   OH247409   6.133   5.873   3.927  0.3708  0.1786  0.3688
 8665TIP3    H147410   6.042   5.862   3.898  0.9451 -1.4044 -0.9922
 8665TIP3    H247411   6.138   5.824   4.009 -0.3356  1.5462  1.2782
 8666TIP3   OH247412   3.161   3.693  12.251  0.0040 -0.0818 -0.4815
 8666TIP3    H147413   3.186   3.642  12.329 -1.9896  0.4384  0.5789
 8666TIP3    H247414   3.216   3.771  12.254  0.5846 -0.4995 -0.1076
 8667TIP3   OH247415   0.457   0.486   1.826  0.3603  1.0930  0.0796
 8667TIP3    H147416   0.538   0.486   1.878  1.0066 -0.0349 -0.8686
 8667TIP3    H247417   0.410   0.564   1.855  1.9376  1.9599  0.4321
 8668TIP3   OH247418   1.358   6.186  13.636  0.1042  0.0505 -0.2270
 8668TIP3    H147419   1.344   6.276  13.609 -2.4676 -0.6736 -1.6116
 8668TIP3    H247420   1.403   6.145  13.563  0.8824  0.0797  0.2227
 8669TIP3   OH247421   1.823   0.923  13.404 -0.3127  0.3056  0.0851
 8669TIP3    H147422   1.807   0.909  13.498 -1.2434  0.2504 -0.0699
 8669TIP3    H247423   1.888   0.994  13.402  1.0424 -0.8629  0.7858
 8670TIP3   OH247424   6.601   1.313  15.526  0.4178  0.3532 -0.0114
 8670TIP3    H147425   6.605   1.335  15.433 -1.6607 -0.6662 -0.4132
 8670TIP3    H247426   6.536   1.243  15.531 -0.0965  0.8987  2.2906
 8671TIP3   OH247427   3.706   3.182  12.575  0.2236 -0.3703 -0.0078
 8671TIP3    H147428   3.662   3.261  12.543  1.6941  0.8866  0.9453
 8671TIP3    H247429   3.673   3.112  12.518 -1.7608  0.7489 -0.3540
 8672TIP3   OH247430   6.300   2.202  14.788 -0.2118 -0.2466 -0.1485
 8672TIP3    H147431   6.269   2.119  14.752  1.4126 -0.0484 -2.2008
 8672TIP3    H247432   6.278   2.267  14.721 -0.8009  0.8818  1.0988
 8673TIP3   OH247433   3.382   4.984   4.642  0.3176  0.0996 -0.5662
 8673TIP3    H147434   3.389   4.952   4.552  4.1549 -0.2585 -0.3027
 8673TIP3    H247435   3.363   5.077   4.633  0.4477  0.0278 -1.7269
 8674TIP3   OH247436   5.509   3.572  10.959  0.3021  0.0922 -0.0717
 8674TIP3    H147437   5.478   3.662  10.968 -2.4027 -0.7867  0.2645
 8674TIP3    H247438   5.594   3.571  11.004 -0.6713  1.9290  1.9799
 8675TIP3   OH247439   0.992   4.554   2.268 -0.5757  0.1015  0.2136
 8675TIP3    H147440   0.936   4.561   2.190  0.7996  1.4343 -0.7127
 8675TIP3    H247441   1.059   4.490   2.244 -2.3296 -2.4868  1.7931
 8676TIP3   OH247442   2.295   2.890  12.599  0.1653 -0.3264  0.1090
 8676TIP3    H147443   2.257   2.806  12.573 -0.0573  0.0862 -0.9045
 8676TIP3    H247444   2.296   2.943  12.520  1.2941  0.2702  0.4917
 8677TIP3   OH247445   2.249   0.508   5.445 -0.1832  0.0316  0.2871
 8677TIP3    H147446   2.177   0.505   5.382  0.2920 -1.1620 -0.2341
 8677TIP3    H247447   2.310   0.572   5.407 -0.6708  0.5649  0.3998
 8678TIP3   OH247448   3.286   5.320  11.866  0.0245  0.2485 -0.2252
 8678TIP3    H147449   3.340   5.247  11.896 -1.5944 -0.4459  1.2130
 8678TIP3    H247450   3.306   5.392  11.926 -1.3349 -0.3468  1.0301
 8679TIP3   OH247451   4.988   1.185  16.423  0.2682 -0.1693 -0.2832
 8679TIP3    H147452   5.063   1.144  16.379  0.0301 -2.5170  1.2805
 8679TIP3    H247453   4.933   1.218  16.352  1.7972 -0.2171 -1.5462
 8680TIP3   OH247454   4.466   4.994  13.006 -0.3383  1.0030 -0.1911
 8680TIP3    H147455   4.545   4.939  13.010 -1.4267 -0.6851 -0.8444
 8680TIP3    H247456   4.456   5.027  13.095  2.0608  2.7314 -0.4628
 8681TIP3   OH247457   5.717   3.843   3.720  0.0788  0.1763 -0.1686
 8681TIP3    H147458   5.638   3.798   3.750 -1.2208  2.1825 -0.4208
 8681TIP3    H247459   5.710   3.842   3.624 -0.4020  1.5988 -0.1652
 8682TIP3   OH247460   5.984   5.231   1.530 -0.3316 -0.5805  0.1064
 8682TIP3    H147461   5.921   5.173   1.572 -1.3798  0.0158 -0.6052
 8682TIP3    H247462   5.945   5.318   1.536 -0.0279 -0.3327 -1.1592
 8683TIP3   OH247463   2.802   1.718   2.224 -0.3393 -0.5014 -0.6174
 8683TIP3    H147464   2.844   1.803   2.235 -2.2021  0.2191  2.0781
 8683TIP3    H247465   2.711   1.739   2.201 -1.0439 -1.6672  0.9028
 8684TIP3   OH247466   3.061   2.929   1.470 -0.0519 -0.1480  0.3370
 8684TIP3    H147467   3.024   2.996   1.412  1.0864  0.5195  0.3627
 8684TIP3    H247468   2.986   2.898   1.521 -1.0266 -0.5231 -1.2475
 8685TIP3   OH247469   6.266   2.307   2.394 -0.3569 -0.2695  0.9013
 8685TIP3    H147470   6.292   2.290   2.484 -0.7704 -1.9688  0.7482
 8685TIP3    H247471   6.282   2.400   2.381  0.4034 -0.1435  2.4902
 8686TIP3   OH247472   2.756   4.706  12.918 -0.2773 -0.1478 -0.0275
 8686TIP3    H147473   2.724   4.788  12.879  0.1286 -0.2860 -0.6637
 8686TIP3    H247474   2.726   4.710  13.009 -1.2437  0.1837 -0.3422
 8687TIP3   OH247475   4.517   5.669   3.278 -0.1252  0.0966  0.3175
 8687TIP3    H147476   4.501   5.689   3.371  0.7011  1.6362  0.1711
 8687TIP3    H247477   4.466   5.735   3.231  1.0145  0.5953 -0.2628
 8688TIP3   OH247478   1.050   6.555   5.120  0.2912 -0.2837  0.8807
 8688TIP3    H147479   1.062   6.607   5.199 -0.2097  1.0873  0.0916
 8688TIP3    H247480   1.078   6.467   5.144  1.2365  0.3574  2.2395
 8689TIP3   OH247481   3.445   5.630   1.862 -0.0221 -0.0744  0.1731
 8689TIP3    H147482   3.362   5.595   1.829  0.0807  0.5977 -0.8371
 8689TIP3    H247483   3.430   5.642   1.956 -1.0557  0.0081  0.0109
 8690TIP3   OH247484   4.275   5.778   0.312 -0.5940 -0.2938 -0.1676
 8690TIP3    H147485   4.241   5.834   0.242  1.6486  0.9849 -0.3544
 8690TIP3    H247486   4.319   5.839   0.372  0.7981 -1.7312  0.3432
 8691TIP3   OH247487   6.658   1.587   1.128  0.2427 -0.3347  0.3647
 8691TIP3    H147488   6.601   1.659   1.156 -0.3138 -0.4404 -0.4542
 8691TIP3    H247489   6.704   1.620   1.051 -0.8432 -1.1937 -0.6991
 8692TIP3   OH247490   5.330   0.427   4.855  0.0724  0.2675 -0.3484
 8692TIP3    H147491   5.317   0.520   4.872 -3.2040 -0.0737 -0.2546
 8692TIP3    H247492   5.324   0.386   4.942  0.9096 -0.0905 -0.4507
 8693TIP3   OH247493   2.395   4.035   5.269 -0.6512 -0.2116  0.1516
 8693TIP3    H147494   2.481   3.998   5.290 -0.2647  0.6627  0.1232
 8693TIP3    H247495   2.414   4.118   5.225 -1.4960 -0.4682 -0.7482
 8694TIP3   OH247496   0.679   2.380   1.217  0.2375  0.1682 -0.2358
 8694TIP3    H147497   0.753   2.358   1.273  0.0038 -0.3879 -0.1439
 8694TIP3    H247498   0.693   2.472   1.194  1.1622 -0.0371 -0.5361
 8695TIP3   OH247499   3.103   1.704  16.732 -0.2075  0.3691 -0.2380
 8695TIP3    H147500   3.158   1.764  16.782 -2.3060  2.5653 -0.3590
 8695TIP3    H247501   3.119   1.726  16.641  0.2193 -0.4513 -0.3749
 8696TIP3   OH247502   3.171   2.081  10.933  0.2260 -0.0311 -0.0623
 8696TIP3    H147503   3.182   1.994  10.970  0.1722  0.2347  0.5980
 8696TIP3    H247504   3.095   2.117  10.980  2.0066  1.4898  1.8872
 8697TIP3   OH247505   5.952   0.641   2.680 -0.1732 -0.2470  0.1648
 8697TIP3    H147506   5.932   0.692   2.758 -1.6768 -0.5104 -0.0148
 8697TIP3    H247507   5.953   0.550   2.709 -1.0278 -0.3702 -0.1539
 8698TIP3   OH247508   4.727   6.054   0.918  0.8309 -0.9526  0.2204
 8698TIP3    H147509   4.791   6.122   0.896 -0.0792  1.0542  3.0866
 8698TIP3    H247510   4.754   6.023   1.005 -0.7080 -1.7961  0.4356
 8699TIP3   OH247511   6.420   0.144   2.966  0.8453  0.3467 -0.3389
 8699TIP3    H147512   6.511   0.116   2.974  0.9597  0.1855 -1.8456
 8699TIP3    H247513   6.370   0.075   3.010  1.4461  0.6224  0.8245
 8700TIP3   OH247514   0.818   4.610   2.053  0.1808 -0.2229 -0.0136
 8700TIP3    H147515   0.804   4.543   1.986 -0.4797 -0.5493  0.4321
 8700TIP3    H247516   0.765   4.684   2.024 -1.8864 -1.1252  1.1957
 8701TIP3   OH247517   2.239   3.623   1.917 -0.2669  0.1722  0.0015
 8701TIP3    H147518   2.195   3.705   1.941 -0.2195 -0.0118  0.7258
 8701TIP3    H247519   2.208   3.559   1.981 -0.3036 -0.3880 -0.5586
 8702TIP3   OH247520   3.204   1.010   2.080  0.1755 -0.4218 -0.7279
 8702TIP3    H147521   3.176   1.069   2.150  1.1894 -0.1299 -0.5521
 8702TIP3    H247522   3.289   0.976   2.109  0.4841 -0.5145 -1.6775
 8703TIP3   OH247523   4.065   0.727  14.935  0.7018 -0.1103 -0.0392
 8703TIP3    H147524   4.082   0.713  14.841  0.0584 -0.9209 -0.0370
 8703TIP3    H247525   4.120   0.803  14.957  0.3251  0.5440 -1.2324
 8704TIP3   OH247526   0.516   5.033   3.408  0.7201  0.4788 -0.0940
 8704TIP3    H147527   0.548   5.022   3.319 -1.4830 -0.3235 -0.8559
 8704TIP3    H247528   0.573   4.978   3.462  0.1809 -1.5516 -1.4901
 8705TIP3   OH247529   6.155   5.420   0.648  0.1287  0.0599 -0.5254
 8705TIP3    H147530   6.196   5.355   0.591 -1.0531 -0.0814 -1.2539
 8705TIP3    H247531   6.086   5.459   0.594  1.1788  2.3712 -0.3033
 8706TIP3   OH247532   0.039   4.629  14.528 -0.0449  0.8141 -0.2677
 8706TIP3    H147533   0.002   4.711  14.562 -0.8250  0.9067 -1.2787
 8706TIP3    H247534   0.121   4.655  14.488  0.1110  0.9638  0.1453
 8707TIP3   OH247535   1.166   3.000  15.323  0.7100  0.0037 -0.0778
 8707TIP3    H147536   1.122   3.018  15.241  1.0422 -1.6895 -0.6651
 8707TIP3    H247537   1.097   2.967  15.381  0.3389  1.8711  0.5869
 8708TIP3   OH247538   0.523   0.727  11.683  0.6347 -0.0030 -0.1096
 8708TIP3    H147539   0.453   0.753  11.623 -0.5818 -2.0603  0.3320
 8708TIP3    H247540   0.495   0.643  11.719  1.5789  0.8211  2.9137
 8709TIP3   OH247541   3.804   6.051  14.009  0.4919  0.1544  0.0051
 8709TIP3    H147542   3.828   6.101  13.930 -0.8846 -0.7167 -1.0209
 8709TIP3    H247543   3.777   5.966  13.976  0.4406 -0.4365  1.5002
 8710TIP3   OH247544   0.835   2.129  13.179 -0.5032  0.0999  0.0709
 8710TIP3    H147545   0.889   2.120  13.100 -1.8173 -2.1234 -0.6692
 8710TIP3    H247546   0.894   2.169  13.243  1.7790 -1.3864 -0.9494
 8711TIP3   OH247547   0.943   1.663   0.533 -0.3326 -0.2215 -0.1744
 8711TIP3    H147548   0.917   1.659   0.625  0.2488 -0.2489 -0.0059
 8711TIP3    H247549   0.994   1.744   0.526  1.2858 -1.1795 -0.0173
 8712TIP3   OH247550   1.499   1.517   3.785  0.2792  0.1265  0.2470
 8712TIP3    H147551   1.443   1.441   3.772  0.4715  0.0519 -0.1378
 8712TIP3    H247552   1.456   1.566   3.855  0.0636 -0.2458  0.3782
 8713TIP3   OH247553   3.122   2.953   1.097  0.3371  0.3590  0.4587
 8713TIP3    H147554   3.055   2.904   1.144  1.5007 -1.2947  0.4763
 8713TIP3    H247555   3.073   3.020   1.049 -1.3197 -0.7362  0.5333
 8714TIP3   OH247556   2.879   0.617   2.117  0.6526 -0.0089  0.1369
 8714TIP3    H147557   2.902   0.699   2.074 -1.1332  0.1250 -0.6285
 8714TIP3    H247558   2.835   0.565   2.049 -1.4983 -0.1304  1.5287
 8715TIP3   OH247559   3.119   0.633  12.039 -0.3295  0.0939  0.3303
 8715TIP3    H147560   3.061   0.686  11.985 -0.9012 -0.7216  0.1399
 8715TIP3    H247561   3.164   0.697  12.095  0.3695  0.9614 -1.1756
 8716TIP3   OH247562   5.637   3.301  16.475 -0.6617  0.0692 -0.5978
 8716TIP3    H147563   5.677   3.386  16.459 -1.1930  0.3771 -0.3472
 8716TIP3    H247564   5.710   3.240  16.484 -0.3116  0.1598 -2.5722
 8717TIP3   OH247565   0.737   3.647   3.021 -0.5728  0.1248 -0.3048
 8717TIP3    H147566   0.720   3.724   3.076  4.5803 -0.5018  2.8444
 8717TIP3    H247567   0.707   3.573   3.074  0.8931 -0.3014 -0.0340
 8718TIP3   OH247568   2.502   3.693   5.518  0.5390  0.6240  0.2067
 8718TIP3    H147569   2.509   3.659   5.607  0.4507  1.5607  0.5824
 8718TIP3    H247570   2.547   3.628   5.464 -1.2657 -1.0667  0.6265
 8719TIP3   OH247571   3.640   6.094   0.805 -0.5237 -0.0295  1.0381
 8719TIP3    H147572   3.701   6.163   0.830 -1.3422  1.3029 -0.4622
 8719TIP3    H247573   3.680   6.053   0.729 -0.2474 -0.9684  1.6684
 8720TIP3   OH247574   6.544   1.341   4.919  0.2898  0.3077  0.0996
 8720TIP3    H147575   6.532   1.321   4.826  2.2615 -1.3737  0.1286
 8720TIP3    H247576   6.632   1.309   4.939 -0.0703  0.6608  2.5445
 8721TIP3   OH247577   0.773   5.467  13.614  0.1345  0.2132 -0.0225
 8721TIP3    H147578   0.686   5.444  13.583  0.7961 -0.5876 -1.3551
 8721TIP3    H247579   0.762   5.553  13.655 -1.1095  0.5029 -0.9133
 8722TIP3   OH247580   3.840   1.700   3.990  0.2065  0.4866  0.2320
 8722TIP3    H147581   3.904   1.762   4.026  0.2551  0.8914 -0.5314
 8722TIP3    H247582   3.756   1.731   4.023  0.3145  0.4521  0.5453
 8723TIP3   OH247583   4.992   5.790  14.477  0.5683  0.1551 -0.1769
 8723TIP3    H147584   4.962   5.738  14.551  2.4477 -0.9773 -0.1398
 8723TIP3    H247585   4.914   5.837  14.447 -0.1093  1.3297  3.0286
 8724TIP3   OH247586   6.595   0.376  14.646  0.0506  0.1026  0.0184
 8724TIP3    H147587   6.687   0.386  14.669  0.2581 -0.1956 -0.6681
 8724TIP3    H247588   6.591   0.392  14.552 -0.6000  0.0911  0.0354
 8725TIP3   OH247589   1.641   1.032   4.944 -0.5790  0.9677 -0.0999
 8725TIP3    H147590   1.561   1.041   4.893 -3.3647  0.1793  3.7044
 8725TIP3    H247591   1.634   0.946   4.986  2.3769  0.8029  0.2772
 8726TIP3   OH247592   6.598   6.178  12.145  0.1116 -0.1918 -0.9941
 8726TIP3    H147593   6.516   6.135  12.170 -1.4535  1.9375 -2.1196
 8726TIP3    H247594   6.618   6.234  12.219 -0.2739  0.3669 -1.3051
 8727TIP3   OH247595   2.523   2.738  12.123 -0.8981  0.8541  0.1302
 8727TIP3    H147596   2.519   2.733  12.027  0.4718  2.3754 -0.0380
 8727TIP3    H247597   2.608   2.701  12.145 -0.1876  2.6621  0.5441
 8728TIP3   OH247598   2.668   3.724   0.249 -0.8117 -0.1205  0.5415
 8728TIP3    H147599   2.664   3.751   0.158 -0.8888  0.0361  0.5919
 8728TIP3    H247600   2.760   3.735   0.273 -0.7833 -0.2013  0.4718
 8729TIP3   OH247601   5.383   5.022   1.222  0.7152 -0.2013 -0.8313
 8729TIP3    H147602   5.360   5.103   1.177 -0.3053  0.9836  1.6047
 8729TIP3    H247603   5.308   5.003   1.278  1.2852 -2.3842 -0.7093
 8730TIP3   OH247604   2.204   3.199   3.655 -0.0135  0.0603  0.0625
 8730TIP3    H147605   2.175   3.218   3.744 -3.4608  1.9491 -1.2779
 8730TIP3    H247606   2.294   3.233   3.651 -0.4723  1.7280  2.2638
 8731TIP3   OH247607   6.155   0.509  12.130 -0.1299 -0.2450 -0.5801
 8731TIP3    H147608   6.170   0.416  12.111  0.3057 -0.4919  0.8756
 8731TIP3    H247609   6.064   0.524  12.105 -1.4954 -2.0618  2.7205
 8732TIP3   OH247610   4.566   5.709   3.000 -0.5341 -0.5218  0.8388
 8732TIP3    H147611   4.517   5.772   3.053 -0.4140 -0.5357  0.9641
 8732TIP3    H247612   4.527   5.624   3.021 -0.8238 -0.4684  0.5276
 8733TIP3   OH247613   4.987   6.444   5.846 -0.4111  0.4139  0.1262
 8733TIP3    H147614   4.937   6.424   5.925 -0.8687  2.4461  0.4014
 8733TIP3    H247615   5.078   6.447   5.876 -0.2401 -1.5714 -0.0350
 8734TIP3   OH247616   0.313   1.349   6.704  0.1349  0.0337  0.4640
 8734TIP3    H147617   0.379   1.412   6.676 -1.2811  0.9827 -0.8943
 8734TIP3    H247618   0.237   1.367   6.649 -1.5192 -0.5535  2.4052
 8735TIP3   OH247619   2.959   1.075   5.492  0.2735 -0.5485  0.3850
 8735TIP3    H147620   2.912   0.992   5.489  1.3754 -1.1860 -0.7383
 8735TIP3    H247621   2.966   1.102   5.400 -1.5968  1.7406  0.8026
 8736TIP3   OH247622   3.643   5.278   5.224 -0.2495  0.1157  0.1164
 8736TIP3    H147623   3.634   5.184   5.208  0.8639 -0.0827  0.5760
 8736TIP3    H247624   3.644   5.318   5.137 -0.4672 -0.3187 -0.0881
 8737TIP3   OH247625   4.917   2.124   5.552 -0.1664  0.4214  0.4737
 8737TIP3    H147626   4.945   2.215   5.543 -0.9040  0.8010  1.7209
 8737TIP3    H247627   4.994   2.079   5.586  0.2658  0.5230 -0.3469
 8738TIP3   OH247628   3.002   1.320   2.449  0.0784  0.7680  0.1176
 8738TIP3    H147629   2.949   1.243   2.469  0.1091  0.6398 -0.2781
 8738TIP3    H247630   3.091   1.285   2.441  0.2730  1.0242  1.0592
 8739TIP3   OH247631   3.523   5.086   4.199  0.1996  0.4124 -0.0334
 8739TIP3    H147632   3.519   5.005   4.147  2.2872  0.8251 -0.9279
 8739TIP3    H247633   3.477   5.151   4.146 -0.0676  0.1855 -0.0806
 8740TIP3   OH247634   1.604   6.021   3.485  0.0804  0.3439 -0.0818
 8740TIP3    H147635   1.663   6.095   3.489 -0.0638  0.4704 -0.2880
 8740TIP3    H247636   1.635   5.962   3.554  1.1943 -0.1538 -0.9815
 8741TIP3   OH247637   3.640   3.308   6.096 -0.7090 -0.0712  0.1477
 8741TIP3    H147638   3.600   3.232   6.137  0.5209  0.4351  2.4640
 8741TIP3    H247639   3.568   3.369   6.081 -1.1881 -0.1419  1.9504
 8742TIP3   OH247640   0.796   2.959   1.799  0.4101  0.0460 -0.5463
 8742TIP3    H147641   0.837   2.910   1.870  1.2929 -0.2719 -1.2583
 8742TIP3    H247642   0.862   2.961   1.730 -0.1429  1.0244 -1.0682
 8743TIP3   OH247643   3.529   6.566  15.959 -0.0719  0.1831  0.5126
 8743TIP3    H147644   3.604   6.545  15.904 -0.2605 -1.1484  0.7379
 8743TIP3    H247645   3.541   6.658  15.983  1.0984  0.1804 -0.0437
 8744TIP3   OH247646   6.358   4.861   5.231 -0.2184  0.4324 -0.3119
 8744TIP3    H147647   6.381   4.788   5.174  0.2321  0.5059 -0.2271
 8744TIP3    H247648   6.440   4.885   5.275 -0.2384  1.3188 -0.7223
 8745TIP3   OH247649   5.826   6.010  15.441 -0.2006  0.0623  1.0852
 8745TIP3    H147650   5.921   6.012  15.450 -0.0280 -0.5915 -0.3497
 8745TIP3    H247651   5.793   6.027  15.530  1.2395  0.5321  1.5531
 8746TIP3   OH247652   4.158   4.196  12.541 -0.3523  0.3281  0.1517
 8746TIP3    H147653   4.246   4.197  12.577  0.5169 -1.3233 -1.7456
 8746TIP3    H247654   4.132   4.104  12.543 -1.9245  0.7371  0.3376
 8747TIP3   OH247655   4.782   5.311   2.849  0.2633  0.0269  0.3316
 8747TIP3    H147656   4.778   5.402   2.821  1.2068  0.7728  2.4237
 8747TIP3    H247657   4.876   5.290   2.846  0.2226 -0.3449  1.3824
 8748TIP3   OH247658   6.032   0.806   0.435  0.3679  0.1648 -0.6567
 8748TIP3    H147659   6.029   0.813   0.530 -0.1124 -1.2579 -0.5342
 8748TIP3    H247660   5.982   0.880   0.404 -0.8849 -0.2545  0.2704
 8749TIP3   OH247661   1.017   3.811   6.388  0.6770 -0.4147 -0.7718
 8749TIP3    H147662   1.096   3.813   6.442  0.5071 -0.7644 -0.5062
 8749TIP3    H247663   0.974   3.894   6.406 -0.8640 -1.6424  1.8991
 8750TIP3   OH247664   2.780   5.491   4.393  0.0616  0.0765  0.1617
 8750TIP3    H147665   2.841   5.427   4.429 -0.7060  0.1385  1.6591
 8750TIP3    H247666   2.781   5.563   4.455  0.3244  1.1965 -1.0989
 8751TIP3   OH247667   2.557   5.714  15.461 -0.3629 -0.3352 -0.5937
 8751TIP3    H147668   2.590   5.643  15.406  0.4058 -0.5668  0.1504
 8751TIP3    H247669   2.476   5.680  15.499  0.0608 -0.8665 -0.1524
 8752TIP3   OH247670   5.225   3.344   3.776  0.4302  0.0360 -0.2318
 8752TIP3    H147671   5.183   3.388   3.703  0.4426 -1.6912 -1.3144
 8752TIP3    H247672   5.249   3.415   3.836 -1.1058  1.3218 -1.0856
 8753TIP3   OH247673   6.086   4.621   1.818  0.1527  0.1427  0.6499
 8753TIP3    H147674   6.158   4.676   1.786 -0.2837  0.2423 -0.1903
 8753TIP3    H247675   6.115   4.532   1.804 -1.1092  0.0950 -2.8112
 8754TIP3   OH247676   3.736   4.618  11.954 -0.2018 -0.3195  0.5679
 8754TIP3    H147677   3.642   4.610  11.943 -0.4732  1.4273  1.3155
 8754TIP3    H247678   3.748   4.699  12.004  1.7302 -0.1655 -0.0631
 8755TIP3   OH247679   0.372   3.853   2.274  0.6238 -0.0038  0.0590
 8755TIP3    H147680   0.320   3.890   2.345  0.2449 -1.4171  0.5444
 8755TIP3    H247681   0.427   3.786   2.316  0.2009 -1.0524 -0.9947
 8756TIP3   OH247682   3.141   6.235   2.585  0.0165 -0.4812  0.2135
 8756TIP3    H147683   3.218   6.280   2.619 -1.7745  2.2344  1.0449
 8756TIP3    H247684   3.114   6.176   2.655 -0.1277  0.5108  1.0136
 8757TIP3   OH247685   2.917   3.867  17.543  0.1001 -0.2910 -0.0521
 8757TIP3    H147686   2.883   3.946  17.585  0.8316 -0.3627  0.6907
 8757TIP3    H247687   2.995   3.896  17.496  1.3571 -0.8392  1.5986
 8758TIP3   OH247688   1.640   2.753  15.547  0.4897 -0.1950  0.1232
 8758TIP3    H147689   1.694   2.765  15.469  0.7423 -0.2258  0.2933
 8758TIP3    H247690   1.600   2.667  15.535  0.4397 -0.1523 -0.0245
 8759TIP3   OH247691   3.579   0.904  14.896 -0.0198 -0.3203  0.0068
 8759TIP3    H147692   3.649   0.871  14.840 -0.5542  0.9673 -1.4843
 8759TIP3    H247693   3.586   1.000  14.891 -0.5878 -0.1554  1.5231
 8760TIP3   OH247694   4.638   5.885   4.815  0.2287 -0.3817 -0.5047
 8760TIP3    H147695   4.682   5.942   4.878 -0.6690 -0.4681  0.2137
 8760TIP3    H247696   4.708   5.829   4.781  0.6378 -0.6732  0.7782
 8761TIP3   OH247697   1.469   5.552   6.865  0.2846 -0.1342  0.2201
 8761TIP3    H147698   1.524   5.630   6.875 -0.9962  1.0521 -1.4239
 8761TIP3    H247699   1.461   5.540   6.770 -2.2013 -0.2740  0.3783
 8762TIP3   OH247700   3.557   2.787  13.357 -0.1310 -0.1527 -0.2560
 8762TIP3    H147701   3.621   2.720  13.336 -0.6242 -0.6111 -0.3171
 8762TIP3    H247702   3.609   2.864  13.380  0.5521 -1.3290  2.6119
 8763TIP3   OH247703   2.667   1.062  12.825  0.0729 -0.1212  0.1157
 8763TIP3    H147704   2.668   1.023  12.912  0.3971  1.8045  1.0336
 8763TIP3    H247705   2.735   1.129  12.828 -0.6150  0.6834 -1.2735
 8764TIP3   OH247706   0.122   4.006   4.607  0.4928 -0.3376  0.2014
 8764TIP3    H147707   0.119   3.941   4.677 -0.7559 -1.6682 -1.0350
 8764TIP3    H247708   0.043   3.990   4.555  1.5301  0.3852 -1.6975
 8765TIP3   OH247709   3.328   0.646   2.128  0.6460 -0.8917 -0.0808
 8765TIP3    H147710   3.281   0.641   2.044 -0.2019  0.5419  0.2798
 8765TIP3    H247711   3.351   0.738   2.138  0.7943 -1.0507  1.2471
 8766TIP3   OH247712   0.395   4.066   4.586 -0.0113  0.3546  0.1529
 8766TIP3    H147713   0.308   4.034   4.610  1.0702 -1.8614  1.4085
 8766TIP3    H247714   0.432   3.997   4.530  0.3938  1.9839 -1.7080
 8767TIP3   OH247715   5.946   1.542  13.812 -0.0999 -0.5200 -0.9877
 8767TIP3    H147716   5.975   1.508  13.897 -1.0566  0.0064 -0.4335
 8767TIP3    H247717   6.006   1.502  13.749  0.7725 -0.7488 -0.0539
 8768TIP3   OH247718   5.758   0.451  13.446 -0.1281  0.5640 -0.2511
 8768TIP3    H147719   5.834   0.401  13.477 -1.6465 -0.9891  1.1823
 8768TIP3    H247720   5.688   0.428  13.508 -1.7276  2.0630 -1.4321
 8769TIP3   OH247721   5.285   1.546  14.644 -0.4457  0.6861  0.6284
 8769TIP3    H147722   5.333   1.625  14.617  0.7535 -0.3645 -0.4696
 8769TIP3    H247723   5.334   1.513  14.719  0.8881 -0.6143 -0.7439
 8770TIP3   OH247724   2.003   6.156   4.804  0.0972  0.1240 -0.0226
 8770TIP3    H147725   1.908   6.171   4.812 -0.3740 -1.9562 -1.0593
 8770TIP3    H247726   2.017   6.144   4.710  1.0951 -1.2393  0.2770
 8771TIP3   OH247727   1.861   5.942  14.681  0.4185 -0.2872 -0.1004
 8771TIP3    H147728   1.818   5.932  14.766 -1.3519 -3.2757 -1.1926
 8771TIP3    H247729   1.924   5.870  14.677  1.8305  0.9191 -0.6502
 8772TIP3   OH247730   0.296   5.815  12.073  0.1931 -0.1440 -0.0572
 8772TIP3    H147731   0.225   5.863  12.118  0.6571  0.8762 -0.3715
 8772TIP3    H247732   0.282   5.835  11.980  1.0889  0.3571 -0.0921
 8773TIP3   OH247733   4.616   5.868   6.005  0.0220  0.1877  0.3231
 8773TIP3    H147734   4.644   5.826   5.924 -0.9379 -0.1730  0.1679
 8773TIP3    H247735   4.673   5.945   6.013  1.9206 -1.1819  0.6935
 8774TIP3   OH247736   0.436   0.177   4.287 -0.1233 -0.0638 -0.0135
 8774TIP3    H147737   0.427   0.144   4.198  1.6294  0.5525 -0.4507
 8774TIP3    H247738   0.363   0.239   4.297 -0.4727 -0.3115 -0.9333
 8775TIP3   OH247739   3.750   4.211  14.968  0.1383  0.0273  0.1728
 8775TIP3    H147740   3.814   4.175  15.029  0.6090  0.9370  0.2368
 8775TIP3    H247741   3.714   4.287  15.014 -0.7217 -0.2587 -0.0118
 8776TIP3   OH247742   0.387   5.354  10.985  0.4523  0.0980  0.1765
 8776TIP3    H147743   0.409   5.419  10.918 -1.4333 -0.2796 -0.8747
 8776TIP3    H247744   0.386   5.404  11.067  0.9508  0.9598 -0.3189
 8777TIP3   OH247745   2.927   4.097   2.842  0.1443 -0.3151  0.8766
 8777TIP3    H147746   2.967   4.065   2.761  1.7547  2.5540  0.3908
 8777TIP3    H247747   3.000   4.136   2.890 -1.0200 -0.7663  3.1164
 8778TIP3   OH247748   6.243   3.823  16.044  0.0913  0.0414  0.3410
 8778TIP3    H147749   6.192   3.895  16.081  1.1137  0.4353  1.0254
 8778TIP3    H247750   6.178   3.769  15.998 -1.7017 -1.5708  4.2751
 8779TIP3   OH247751   3.088   2.859   3.563  0.4416 -0.6417  0.1425
 8779TIP3    H147752   3.021   2.822   3.506  1.0833  0.4799 -1.4210
 8779TIP3    H247753   3.040   2.921   3.618 -0.0022 -0.8069 -0.0508
 8780TIP3   OH247754   2.947   0.119  16.614 -0.3470  0.1020  0.2069
 8780TIP3    H147755   2.941   0.057  16.686  1.3726 -1.4387 -0.9130
 8780TIP3    H247756   2.892   0.193  16.642 -1.7048 -1.4801  1.9786
 8781TIP3   OH247757   3.806   5.336  11.732  0.1486  0.4707 -0.0336
 8781TIP3    H147758   3.900   5.331  11.715  0.2091  0.4542  0.3052
 8781TIP3    H247759   3.775   5.246  11.729  0.0254  0.5256 -0.7852
 8782TIP3   OH247760   2.275   5.655   5.214 -0.0849 -0.2083  0.5513
 8782TIP3    H147761   2.226   5.697   5.286 -0.5137  0.2998 -0.0299
 8782TIP3    H247762   2.212   5.650   5.143  0.6301  0.2008 -0.1258
 8783TIP3   OH247763   0.079   1.315   5.953  0.5216  0.0956 -0.0972
 8783TIP3    H147764   0.171   1.322   5.926  1.3364  0.1992  2.4109
 8783TIP3    H247765   0.053   1.404   5.974  0.6735 -0.2117  1.5236
 8784TIP3   OH247766   3.766   2.756   4.709 -0.5378  0.6919  0.1949
 8784TIP3    H147767   3.781   2.757   4.614 -0.4971  2.2599  0.2002
 8784TIP3    H247768   3.700   2.688   4.721  0.6387 -0.6825 -0.7543
 8785TIP3   OH247769   0.023   0.761   5.134  0.4472  0.2064 -0.2731
 8785TIP3    H147770   0.097   0.795   5.186 -0.0337  1.0979 -0.1498
 8785TIP3    H247771  -0.055   0.797   5.178 -0.0285 -0.1980 -0.7827
 8786TIP3   OH247772   6.618   4.268   3.017  0.0530  0.2392 -0.2481
 8786TIP3    H147773   6.603   4.340   3.078 -2.3927  0.0964 -0.5818
 8786TIP3    H247774   6.531   4.246   2.984  0.8431 -2.2504 -0.8755
 8787TIP3   OH247775   2.332   5.240   1.513  0.0581  0.3899 -0.4536
 8787TIP3    H147776   2.352   5.308   1.449 -0.2896  0.8329 -0.1015
 8787TIP3    H247777   2.394   5.255   1.584  1.5942 -1.1530 -1.4009
 8788TIP3   OH247778   1.640   2.756   4.403 -0.4960  0.6598  0.2942
 8788TIP3    H147779   1.607   2.846   4.409 -1.0270  0.5177 -0.4152
 8788TIP3    H247780   1.578   2.704   4.455  0.6476  0.8904  1.9916
 8789TIP3   OH247781   4.607   5.244   2.043 -0.0910  0.8099 -0.0887
 8789TIP3    H147782   4.663   5.218   1.970  0.8981  0.0846  0.9016
 8789TIP3    H247783   4.667   5.274   2.110 -0.8644 -0.1266  1.0680
 8790TIP3   OH247784   5.722   6.139  13.596  0.2845 -0.1771  0.2526
 8790TIP3    H147785   5.632   6.107  13.595  0.5978 -1.3289  2.5962
 8790TIP3    H247786   5.749   6.136  13.504 -1.4588 -1.5349 -0.2883
 8791TIP3   OH247787   5.262   4.030  15.831 -0.3823 -0.1045 -0.1518
 8791TIP3    H147788   5.232   4.003  15.744  2.1566 -0.5999 -0.9651
 8791TIP3    H247789   5.238   3.957  15.888 -1.2629 -0.1774 -0.5883
 8792TIP3   OH247790   3.609   0.537  15.839 -0.1066 -0.1946  0.1307
 8792TIP3    H147791   3.554   0.606  15.875 -0.8657 -0.3681 -0.6586
 8792TIP3    H247792   3.696   0.576  15.834 -0.5165  0.7086 -0.2621
 8793TIP3   OH247793   5.258   3.634  13.556  0.6644 -0.5890  0.2841
 8793TIP3    H147794   5.333   3.689  13.581 -0.5325  1.4389 -0.4273
 8793TIP3    H247795   5.183   3.675  13.599 -0.6335 -0.1729 -2.2519
 8794TIP3   OH247796   5.002   3.377  14.088  0.0505  0.3405  0.0369
 8794TIP3    H147797   5.065   3.392  14.017 -0.2922  1.7519 -0.0106
 8794TIP3    H247798   4.967   3.289  14.071  0.3794  0.4284 -1.2281
 8795TIP3   OH247799   1.793   0.877   6.126  0.5078  0.0581 -0.4783
 8795TIP3    H147800   1.808   0.794   6.171 -3.3407  0.0933  1.2149
 8795TIP3    H247801   1.813   0.944   6.192 -2.1581  0.2008  0.2782
 8796TIP3   OH247802   3.616   5.105  15.384 -0.0049  0.4410  0.0938
 8796TIP3    H147803   3.600   5.157  15.305  1.9644  0.9097 -0.0309
 8796TIP3    H247804   3.671   5.032  15.354 -0.6023 -0.3015  0.7508
 8797TIP3   OH247805   2.433   6.645  11.341  0.1184  0.2817 -0.3808
 8797TIP3    H147806   2.392   6.662  11.255  0.9633  0.5867 -0.7370
 8797TIP3    H247807   2.383   6.573  11.378 -1.0361  0.9506 -0.6012
 8798TIP3   OH247808   2.826   0.720  15.495 -0.5050  0.8281 -0.2313
 8798TIP3    H147809   2.823   0.688  15.585  0.9139 -0.7733 -0.6988
 8798TIP3    H247810   2.734   0.730  15.470 -0.9180  1.4078  1.4124
 8799TIP3   OH247811   6.018   5.696   3.134  0.3419  0.4562 -0.5582
 8799TIP3    H147812   6.095   5.727   3.181  0.4475  2.0433 -1.7004
 8799TIP3    H247813   6.053   5.646   3.060  0.3559  2.1527 -1.7418
 8800TIP3   OH247814   1.390   2.167   0.117 -0.5138  0.6176  0.7414
 8800TIP3    H147815   1.397   2.174   0.022 -0.4297  0.4109  0.7338
 8800TIP3    H247816   1.439   2.088   0.140  0.3652  1.2412  1.0694
 8801TIP3   OH247817   3.784   1.090  15.828  0.7034  0.3795  0.5262
 8801TIP3    H147818   3.853   1.058  15.770  0.6750 -1.5225  1.4793
 8801TIP3    H247819   3.827   1.100  15.913  0.4423  1.9428  0.5188
 8802TIP3   OH247820   1.414   1.498   2.997  0.7154 -0.3168 -0.1770
 8802TIP3    H147821   1.437   1.405   3.000  0.6273 -0.3359 -0.0733
 8802TIP3    H247822   1.493   1.541   2.963  0.6267 -0.4694 -0.5798
 8803TIP3   OH247823   0.853   3.225  12.513 -0.4817 -0.2762  0.3949
 8803TIP3    H147824   0.811   3.309  12.495 -0.5910  0.0889  2.2114
 8803TIP3    H247825   0.790   3.160  12.482 -0.3048  0.2793 -1.2359
 8804TIP3   OH247826   6.696   0.048   4.585 -0.2976  0.4394 -0.5984
 8804TIP3    H147827   6.660  -0.038   4.562 -0.7407  0.1875  0.8952
 8804TIP3    H247828   6.670   0.105   4.513 -4.2711  0.3992  0.5519
 8805TIP3   OH247829   2.328   2.517   4.460 -0.5035 -0.2079  0.4343
 8805TIP3    H147830   2.389   2.578   4.417 -1.3846 -0.8144 -1.8278
 8805TIP3    H247831   2.241   2.547   4.432 -1.0348 -1.4824  0.6745
 8806TIP3   OH247832   6.641   4.472  14.947 -0.2233 -0.0740  0.1502
 8806TIP3    H147833   6.714   4.435  14.899 -0.2802 -0.5923  0.4535
 8806TIP3    H247834   6.624   4.409  15.018  0.0348  0.7934  1.0101
 8807TIP3   OH247835   5.564   5.219   0.252  0.4471  0.0592  0.2610
 8807TIP3    H147836   5.614   5.212   0.170  0.3637  0.3832  0.1786
 8807TIP3    H247837   5.606   5.292   0.299  0.9055 -0.5390  0.8035
 8808TIP3   OH247838   2.490   1.961   5.412  0.6434 -0.5026 -0.1491
 8808TIP3    H147839   2.501   1.869   5.437 -1.2830 -0.7431 -0.0295
 8808TIP3    H247840   2.485   1.958   5.316  1.1654 -0.4532 -0.1768
 8809TIP3   OH247841   2.506   6.219  11.478  0.1266 -0.4144  0.4607
 8809TIP3    H147842   2.427   6.272  11.484  2.4050  3.3258  1.0734
 8809TIP3    H247843   2.499   6.174  11.394 -1.5397  1.8756 -0.7563
 8810TIP3   OH247844   2.594   1.482  14.876  0.5039  0.8588 -0.3990
 8810TIP3    H147845   2.564   1.565  14.838 -0.3012  0.5060 -0.5467
 8810TIP3    H247846   2.644   1.508  14.953  2.9418  1.6513 -2.1282
 8811TIP3   OH247847   3.372   1.462   1.796 -0.4733  0.2032 -0.9652
 8811TIP3    H147848   3.347   1.528   1.731 -1.0821 -0.9056 -1.8828
 8811TIP3    H247849   3.434   1.406   1.751  0.3540  0.3550 -0.0575
 8812TIP3   OH247850   0.043   2.360   1.902 -0.2789  0.2024  0.3909
 8812TIP3    H147851   0.000   2.442   1.877  0.6574  1.1604  1.8247
 8812TIP3    H247852   0.037   2.357   1.998 -0.1792 -1.3563  0.3862
 8813TIP3   OH247853   4.163   5.457  16.058 -0.5459 -0.0188  0.0300
 8813TIP3    H147854   4.127   5.421  15.977  0.4831  0.1265 -0.5084
 8813TIP3    H247855   4.226   5.523  16.029 -1.5072  1.3773  0.9778
 8814TIP3   OH247856   6.509   2.098   2.287  0.5094  0.0071  0.2932
 8814TIP3    H147857   6.492   2.177   2.337  1.7060  1.2749 -1.1949
 8814TIP3    H247858   6.448   2.033   2.322 -0.5428  1.5893  1.5073
 8815TIP3   OH247859   2.524   1.411  16.965  0.1163  0.3714  0.5290
 8815TIP3    H147860   2.506   1.458  16.883  1.2248 -2.7421 -1.7117
 8815TIP3    H247861   2.606   1.449  16.997 -0.2249  1.4905  0.1448
 8816TIP3   OH247862   5.840   6.110   2.678 -0.2071  0.1536  0.8153
 8816TIP3    H147863   5.904   6.173   2.645 -1.7204  0.9614 -0.7675
 8816TIP3    H247864   5.782   6.093   2.604 -0.4968 -2.3259  1.5110
 8817TIP3   OH247865   5.696   4.084  11.691  0.2199  0.3519  0.3317
 8817TIP3    H147866   5.678   4.008  11.636  2.6618  0.0081 -0.0938
 8817TIP3    H247867   5.626   4.084  11.756  0.3878 -2.5432  0.6267
 8818TIP3   OH247868   4.861   3.137  15.923  0.1504 -0.6113 -0.0074
 8818TIP3    H147869   4.790   3.199  15.938  1.9710  1.2257  1.7750
 8818TIP3    H247870   4.844   3.064  15.983 -0.3151 -0.2550  0.2972
 8819TIP3   OH247871   6.344   6.682   1.612  0.8097  0.2228  0.1944
 8819TIP3    H147872   6.349   6.753   1.676 -0.6887  0.4696  0.0617
 8819TIP3    H247873   6.415   6.701   1.551  2.8779 -0.4978  2.1912
 8820TIP3   OH247874   3.399   2.175  16.077 -0.1090  0.1661 -0.1517
 8820TIP3    H147875   3.316   2.161  16.123 -0.6981  0.3961 -1.1132
 8820TIP3    H247876   3.454   2.221  16.140 -0.7650  0.1360  0.4513
 8821TIP3   OH247877   3.376   0.421  15.384 -0.5295  0.5234 -0.2071
 8821TIP3    H147878   3.377   0.326  15.373 -0.6239  0.6732 -1.6696
 8821TIP3    H247879   3.458   0.440  15.429  1.2306  0.0253 -2.9508
 8822TIP3   OH247880   2.278   0.710   2.306  0.0967  0.0407  0.1618
 8822TIP3    H147881   2.285   0.697   2.211  1.6789 -1.8594  0.4736
 8822TIP3    H247882   2.231   0.633   2.337  0.0478  0.3946  0.9718
 8823TIP3   OH247883   4.427   4.429  13.257  0.1894 -0.0301  0.0423
 8823TIP3    H147884   4.477   4.506  13.227  0.6271  0.0310  0.8902
 8823TIP3    H247885   4.361   4.415  13.189  1.4598 -0.2118 -1.1900
 8824TIP3   OH247886   0.006   1.595  11.429  0.2765  0.4915 -0.2963
 8824TIP3    H147887   0.054   1.547  11.362 -1.4355  0.9221 -1.9218
 8824TIP3    H247888  -0.052   1.653  11.379 -0.0062  1.9071  1.5830
 8825TIP3   OH247889   3.635   3.746   0.792 -0.5158  0.5431 -0.1472
 8825TIP3    H147890   3.608   3.832   0.823 -0.5128  0.6652 -0.4784
 8825TIP3    H247891   3.614   3.687   0.864  1.4420  1.1123  0.9757
 8826TIP3   OH247892   5.640   6.489  13.351 -0.2723 -0.9546  0.0080
 8826TIP3    H147893   5.606   6.570  13.388  0.1724 -0.7203 -0.0866
 8826TIP3    H247894   5.562   6.438  13.329 -0.5652 -0.3871 -0.3024
 8827TIP3   OH247895   5.970   0.235  11.834  0.1892  0.1399  0.4341
 8827TIP3    H147896   6.013   0.277  11.760  1.7341  2.5790  2.5164
 8827TIP3    H247897   5.878   0.260  11.825  0.2366 -0.0919 -0.9267
 8828TIP3   OH247898   2.977   1.717   5.026  0.1452  0.2238  0.3455
 8828TIP3    H147899   3.042   1.649   5.044  0.0645  0.7128  2.8644
 8828TIP3    H247900   2.921   1.679   4.958  1.4997 -1.2490 -0.0119
 8829TIP3   OH247901   0.096   4.884   4.200  0.8180  0.1072 -0.0019
 8829TIP3    H147902   0.175   4.869   4.251  2.1659 -0.1208 -2.0196
 8829TIP3    H247903   0.030   4.828   4.239  0.3899  3.0623  4.2040
 8830TIP3   OH247904   3.979   4.552  13.518  0.0048  0.1086  0.3251
 8830TIP3    H147905   4.026   4.625  13.558  1.1387 -1.1835  1.4455
 8830TIP3    H247906   3.919   4.594  13.456 -0.5316  2.0898  2.0617
 8831TIP3   OH247907   1.776   4.717  12.404  0.3977  0.2007 -0.0097
 8831TIP3    H147908   1.828   4.787  12.443  0.5849  0.0039  0.0949
 8831TIP3    H247909   1.707   4.699  12.469 -0.3082  1.0284 -0.5024
 8832TIP3   OH247910   4.696   0.074  15.773  0.2989  0.2550  0.1048
 8832TIP3    H147911   4.692   0.045  15.864  1.1976 -0.2595 -0.0148
 8832TIP3    H247912   4.667  -0.002  15.722  0.3332  0.3615 -0.0768
 8833TIP3   OH247913   1.091   1.362   1.028 -0.1198  0.6487  0.0626
 8833TIP3    H147914   1.036   1.287   1.050 -0.6596  0.4428 -1.8621
 8833TIP3    H247915   1.101   1.358   0.933  0.6974  2.4372  0.0341
 8834TIP3   OH247916   4.280   4.437   0.840 -0.0595 -0.1133 -0.2524
 8834TIP3    H147917   4.190   4.410   0.818 -1.4665  3.9143 -0.2243
 8834TIP3    H247918   4.285   4.428   0.935 -0.3855 -0.5042 -0.2708
 8835TIP3   OH247919   4.015   6.147  14.403  0.0372  0.2814  0.0728
 8835TIP3    H147920   4.050   6.074  14.352  0.4289 -0.7248  1.7288
 8835TIP3    H247921   3.933   6.114  14.440  0.1138  0.7566  0.6814
 8836TIP3   OH247922   2.795   5.656  17.620  0.2556 -0.0659  0.5304
 8836TIP3    H147923   2.755   5.670  17.535 -0.3702 -1.6275  0.5389
 8836TIP3    H247924   2.776   5.735  17.670 -1.7317 -0.2450  0.1121
 8837TIP3   OH247925   4.833   5.105   5.953 -0.1943  0.0384 -0.1347
 8837TIP3    H147926   4.906   5.159   5.982  0.0880 -0.8424  0.8653
 8837TIP3    H247927   4.808   5.142   5.869  0.5417  1.1759  0.1201
 8838TIP3   OH247928   2.150   6.431  13.418  0.8029  0.9313 -0.0965
 8838TIP3    H147929   2.070   6.400  13.377 -0.0194 -0.2817  2.2463
 8838TIP3    H247930   2.148   6.394  13.506  3.3562  1.8668  0.4484
 8839TIP3   OH247931   5.434   5.940  16.609  0.2895  0.7727  0.2702
 8839TIP3    H147932   5.487   6.013  16.642  0.9734  0.2482  0.3586
 8839TIP3    H247933   5.491   5.896  16.546 -0.4086  0.7843 -0.3808
 8840TIP3   OH247934   4.111   1.424   2.639  0.0135  0.2621  0.4043
 8840TIP3    H147935   4.096   1.446   2.547  0.8883  2.8540  0.7863
 8840TIP3    H247936   4.206   1.423   2.648 -0.0650  0.0727  1.2775
 8841TIP3   OH247937   3.726   0.611   1.839  0.3109 -0.0201  0.5135
 8841TIP3    H147938   3.644   0.595   1.792  0.7482  1.8793 -1.0218
 8841TIP3    H247939   3.790   0.557   1.794  0.1038 -0.7335  1.0669
 8842TIP3   OH247940   6.210   6.477   1.746  0.1576  0.7863  0.2136
 8842TIP3    H147941   6.261   6.532   1.686  0.5010  0.1402 -0.0870
 8842TIP3    H247942   6.145   6.537   1.782  0.4531  1.3716 -0.1990
 8843TIP3   OH247943   0.785   4.366  12.219 -0.3725 -0.3430 -0.1808
 8843TIP3    H147944   0.774   4.365  12.124  0.8843 -0.3294 -0.3348
 8843TIP3    H247945   0.781   4.458  12.243 -2.6582 -0.4425  0.0523
 8844TIP3   OH247946   1.165   1.484   5.740  0.1234 -0.0926  0.1665
 8844TIP3    H147947   1.216   1.516   5.815 -0.4375  1.4869 -0.0733
 8844TIP3    H247948   1.145   1.393   5.762  2.2603 -0.5036  0.6608
 8845TIP3   OH247949   1.596   4.239   4.016  0.4196  0.4459  0.0474
 8845TIP3    H147950   1.553   4.215   4.098  1.8024  1.8214  1.2468
 8845TIP3    H247951   1.690   4.237   4.037  0.7744  1.2608 -1.3528
 8846TIP3   OH247952   6.332   3.082  11.660 -0.4918  0.4241 -0.1372
 8846TIP3    H147953   6.262   3.026  11.694 -0.0119 -0.2485 -0.2403
 8846TIP3    H247954   6.285   3.152  11.615 -1.1111 -0.2257 -0.5372
 8847TIP3   OH247955   1.719   6.322   4.157 -0.1435  0.2731  0.1563
 8847TIP3    H147956   1.682   6.353   4.075  0.5339  0.7422  0.0208
 8847TIP3    H247957   1.813   6.311   4.139 -0.2516 -1.2619  0.3791
 8848TIP3   OH247958   5.019   5.898   5.894 -0.3605 -0.1097 -0.2064
 8848TIP3    H147959   5.045   5.853   5.974  0.4936  1.7323  0.6058
 8848TIP3    H247960   5.061   5.848   5.824  0.2017 -0.8274  0.6312
 8849TIP3   OH247961   0.893   3.946   0.291  0.1283 -0.4956  0.4537
 8849TIP3    H147962   0.806   3.930   0.255 -0.0161  0.4098  0.3823
 8849TIP3    H247963   0.877   3.990   0.374  0.4892 -1.7122  1.1984
 8850TIP3   OH247964   3.758   6.198   1.386  0.4165 -0.3451 -0.2174
 8850TIP3    H147965   3.750   6.274   1.330  0.9099 -0.7624 -0.8587
 8850TIP3    H247966   3.848   6.199   1.417  0.0359  0.1339  0.9471
 8851TIP3   OH247967   1.177   6.511   3.497 -0.5967 -0.3118  0.2089
 8851TIP3    H147968   1.186   6.606   3.500 -0.6619 -0.3161  2.2257
 8851TIP3    H247969   1.086   6.495   3.525 -0.3961 -0.9772  0.5108
 8852TIP3   OH247970   4.816   4.706   4.368  0.6803  0.3485 -0.2313
 8852TIP3    H147971   4.835   4.748   4.284  0.2775  1.7734  0.3589
 8852TIP3    H247972   4.762   4.630   4.345 -0.8852  1.6603 -1.1652
 8853TIP3   OH247973   0.751   1.422  16.887  0.0942  0.2462 -0.5623
 8853TIP3    H147974   0.680   1.358  16.888  0.2745 -0.0163  1.8016
 8853TIP3    H247975   0.803   1.401  16.965  3.1508  0.0322 -2.5140
 8854TIP3   OH247976   4.862   3.963   3.352 -0.2585 -0.2327  0.2204
 8854TIP3    H147977   4.945   3.915   3.349 -0.3490 -0.4101  0.5682
 8854TIP3    H247978   4.806   3.918   3.290  0.3044  0.6443 -0.9706
 8855TIP3   OH247979   3.244   6.220   5.508 -0.5105  0.0311 -0.0655
 8855TIP3    H147980   3.228   6.243   5.416 -0.6126 -1.8143 -0.5516
 8855TIP3    H247981   3.177   6.155   5.529 -0.4924  0.4368  1.3324
 8856TIP3   OH247982   2.190   5.253  13.458  0.1785 -0.3237 -0.0148
 8856TIP3    H147983   2.114   5.242  13.402  0.4451 -1.5091 -0.1807
 8856TIP3    H247984   2.181   5.184  13.525  0.8401 -0.1609  0.2571
 8857TIP3   OH247985   6.438   0.373  15.528 -0.2802  0.5792 -0.2501
 8857TIP3    H147986   6.350   0.366  15.493  0.0503  1.2236 -1.2522
 8857TIP3    H247987   6.494   0.330  15.463  0.2100  0.6705  0.0983
 8858TIP3   OH247988   5.732   6.225   5.271  0.1033  0.5067  0.0150
 8858TIP3    H147989   5.727   6.271   5.186 -0.3200 -0.7776 -0.6788
 8858TIP3    H247990   5.664   6.158   5.266 -0.9794  1.3659  2.0060
 8859TIP3   OH247991   4.570   6.142  15.952  0.1374  0.1812 -0.0382
 8859TIP3    H147992   4.607   6.185  16.029  0.2454  1.7816 -0.9367
 8859TIP3    H247993   4.497   6.091  15.986 -0.5768  1.8134  1.0054
 8860TIP3   OH247994   6.550   6.086   0.077 -0.3046  0.1506 -0.3007
 8860TIP3    H147995   6.481   6.034   0.119  0.0869 -0.0232  0.1415
 8860TIP3    H247996   6.627   6.074   0.134  0.0230  0.5337 -0.6554
 8861TIP3   OH247997   3.325   4.894   3.869 -0.4012 -0.2675 -0.1151
 8861TIP3    H147998   3.323   4.800   3.891 -0.6195 -0.4357 -0.8262
 8861TIP3    H247999   3.257   4.904   3.803  0.5369  0.1448 -1.0363
 8862TIP3   OH248000   3.531   1.190   2.607 -0.3188 -0.7411 -0.0019
 8862TIP3    H148001   3.517   1.117   2.667 -1.2668  1.4575  2.6639
 8862TIP3    H248002   3.624   1.212   2.616 -0.0218 -1.5886 -0.8438
 8863TIP3   OH248003   4.581   1.429   2.116 -0.0894 -1.0065  0.1271
 8863TIP3    H148004   4.648   1.476   2.067  1.3609 -1.9874  1.1093
 8863TIP3    H248005   4.622   1.407   2.200 -1.6918 -1.4860  0.8273
 8864TIP3   OH248006   1.442   3.321   0.139  0.8248 -0.5123  0.1956
 8864TIP3    H148007   1.416   3.307   0.048 -0.8934 -0.9471  0.7150
 8864TIP3    H248008   1.408   3.408   0.161  0.1696 -0.9018  0.7596
 8865TIP3   OH248009   6.349   1.786   3.685 -0.3153 -0.0981  0.0851
 8865TIP3    H148010   6.289   1.857   3.663 -1.4338 -0.6477  1.2558
 8865TIP3    H248011   6.391   1.815   3.767  1.7275  0.6815 -1.1558
 8866TIP3   OH248012   2.096   3.481   2.177  0.2068 -0.0907  0.2474
 8866TIP3    H148013   2.020   3.492   2.119  1.6680 -0.8474 -1.9431
 8866TIP3    H248014   2.087   3.391   2.210 -1.1917  0.6850  2.1601
 8867TIP3   OH248015   3.808   2.316   3.307  0.0632 -0.2373  0.2607
 8867TIP3    H148016   3.842   2.238   3.262  0.3843  0.3045 -0.4611
 8867TIP3    H248017   3.838   2.306   3.398  0.9235 -0.4855 -0.0410
 8868TIP3   OH248018   3.320   1.167  15.786  0.1044 -0.0316 -0.0992
 8868TIP3    H148019   3.401   1.218  15.799 -1.0870  1.7311  0.8134
 8868TIP3    H248020   3.278   1.208  15.711 -0.7885  0.2322  0.5336
 8869TIP3   OH248021   1.867   3.470  12.334 -0.9450 -0.5139 -0.1065
 8869TIP3    H148022   1.917   3.450  12.254  1.0856  0.1663  0.9108
 8869TIP3    H248023   1.826   3.555  12.316  1.0452  0.5706  0.1806
 8870TIP3   OH248024   4.776   4.395   1.119 -0.6515  0.0616 -0.1039
 8870TIP3    H148025   4.860   4.437   1.102 -0.1471 -0.9361 -0.1036
 8870TIP3    H248026   4.771   4.389   1.214 -1.1062  0.8633 -0.0661
 8871TIP3   OH248027   0.046   2.028   6.899 -0.3639 -0.0903  0.2437
 8871TIP3    H148028  -0.017   1.969   6.939  0.1653 -0.1907  0.9523
 8871TIP3    H248029   0.128   1.977   6.897 -0.3570 -0.0724 -0.9199
 8872TIP3   OH248030   0.266   1.166  14.103 -0.8369 -1.2134  0.0934
 8872TIP3    H148031   0.186   1.217  14.115 -0.9027 -1.3465  0.2229
 8872TIP3    H248032   0.304   1.160  14.191 -0.9000 -1.5029  0.1005
 8873TIP3   OH248033   4.988   6.276  11.103  0.1306 -0.6587 -0.2797
 8873TIP3    H148034   5.002   6.221  11.180 -0.7576  0.5361  0.7921
 8873TIP3    H248035   4.900   6.311  11.114  0.1538 -0.1057 -1.6246
 8874TIP3   OH248036   4.747   1.571  13.047  0.3304  0.4221 -0.3348
 8874TIP3    H148037   4.725   1.507  12.979 -0.9030  0.9075 -0.4215
 8874TIP3    H248038   4.789   1.519  13.115 -0.0303 -0.3739 -0.6969
 8875TIP3   OH248039   6.069   4.052   3.949  0.4035 -0.2155 -0.3110
 8875TIP3    H148040   6.115   4.081   4.028  0.5272 -0.9019 -0.1326
 8875TIP3    H248041   6.129   4.072   3.877  0.1754  0.6760 -0.2719
 8876TIP3   OH248042   2.404   1.082  15.224 -0.3104  0.0943 -0.1113
 8876TIP3    H148043   2.310   1.074  15.238 -0.5779  1.3416 -1.0841
 8876TIP3    H248044   2.424   1.174  15.240  0.7927 -0.1900  0.2934
 8877TIP3   OH248045   1.920   4.488   0.720  0.0638 -0.2595 -0.2314
 8877TIP3    H148046   1.866   4.444   0.786  0.7712 -0.6672  0.0903
 8877TIP3    H248047   1.860   4.506   0.648 -0.0661 -2.7054 -0.8274
 8878TIP3   OH248048   0.215   0.379  16.873  0.1915 -0.1164 -0.5315
 8878TIP3    H148049   0.267   0.460  16.882  0.0016  0.0839 -1.1500
 8878TIP3    H248050   0.159   0.378  16.950  1.4783 -0.6125  0.4309
 8879TIP3   OH248051   6.023   2.830  16.035 -0.8852  0.5605  0.1847
 8879TIP3    H148052   5.966   2.897  16.072 -1.3949  1.4674 -2.0531
 8879TIP3    H248053   5.964   2.759  16.011 -0.9660  1.0560 -1.1627
 8880TIP3   OH248054   2.074   2.291   3.525  0.0828  0.4068 -0.7895
 8880TIP3    H148055   2.052   2.384   3.522 -0.1748  0.4139  0.6399
 8880TIP3    H248056   1.993   2.248   3.552  1.2058  0.2577  2.9217
 8881TIP3   OH248057   5.647   0.690   0.132  0.6650 -0.2811 -0.2659
 8881TIP3    H148058   5.628   0.711   0.224 -1.5305  0.4620 -0.8345
 8881TIP3    H248059   5.704   0.762   0.103  1.0081 -0.2802  0.3739
 8882TIP3   OH248060   3.870   2.065   0.491 -0.2381 -0.1046 -0.2600
 8882TIP3    H148061   3.808   2.083   0.561  0.3599  1.3793 -0.0676
 8882TIP3    H248062   3.943   2.021   0.534 -0.8171 -1.1888 -0.3592
 8883TIP3   OH248063   1.685   5.720  15.957  0.0723  0.0491  0.4904
 8883TIP3    H148064   1.738   5.727  16.036  0.5575 -0.8496  0.2515
 8883TIP3    H248065   1.683   5.809  15.922  2.6531 -0.1070 -0.2665
 8884TIP3   OH248066   1.235   4.804   0.180  0.2745 -0.4059  0.0110
 8884TIP3    H148067   1.284   4.872   0.227 -0.5475 -0.1211  0.4845
 8884TIP3    H248068   1.237   4.832   0.088 -2.0739  1.6365  0.4491
 8885TIP3   OH248069   4.960   3.920  13.918 -0.3336 -0.7454 -0.3214
 8885TIP3    H148070   4.932   4.009  13.939 -2.1600 -1.1409 -0.8766
 8885TIP3    H248071   5.014   3.893  13.993 -1.9874 -0.1309  1.1503
 8886TIP3   OH248072   6.315   3.781  15.478 -0.3767 -0.4672  0.2723
 8886TIP3    H148073   6.304   3.697  15.521  3.2406 -1.4126 -0.2712
 8886TIP3    H248074   6.321   3.845  15.549 -1.0516 -0.9717  0.7900
 8887TIP3   OH248075   1.881   0.311   0.181  0.4501  0.3671  0.1695
 8887TIP3    H148076   1.884   0.292   0.275  0.0485 -0.7470 -0.0319
 8887TIP3    H248077   1.971   0.297   0.151  0.4150 -0.0091  0.2443
 8888TIP3   OH248078   5.017   4.975  14.989  0.4282  0.5631  0.0743
 8888TIP3    H148079   4.934   4.950  14.949 -0.5413 -0.0692  2.3487
 8888TIP3    H248080   5.082   4.960  14.920 -0.9174 -2.1353 -0.7593
 8889TIP3   OH248081   6.208   2.046  12.793 -0.6781  0.1125  0.2841
 8889TIP3    H148082   6.261   1.999  12.858 -1.3965 -0.4453  0.4940
 8889TIP3    H248083   6.261   2.120  12.767 -0.0968 -0.0309  1.0220
 8890TIP3   OH248084   4.192   2.354   5.423  0.3581  0.2348  0.5456
 8890TIP3    H148085   4.098   2.357   5.408  0.2668 -0.8309  0.7874
 8890TIP3    H248086   4.230   2.404   5.351 -0.4012  0.9803  0.6484
 8891TIP3   OH248087   1.274   5.672   1.626 -0.2020  0.1919  0.5832
 8891TIP3    H148088   1.361   5.685   1.589 -1.5661  1.2932 -2.5217
 8891TIP3    H248089   1.265   5.577   1.634  0.7635 -0.0027 -0.4331
 8892TIP3   OH248090   4.315   5.026   3.097  1.0040  0.1700  0.2494
 8892TIP3    H148091   4.273   5.045   3.013  0.1287  1.0966  0.8740
 8892TIP3    H248092   4.401   5.066   3.091  0.5344  1.2084  0.1773
 8893TIP3   OH248093   5.553   6.262   4.473 -0.7186 -0.3374 -0.4318
 8893TIP3    H148094   5.550   6.186   4.416 -1.8882 -1.1661  0.6818
 8893TIP3    H248095   5.509   6.331   4.423 -1.0124 -0.8178 -0.8488
 8894TIP3   OH248096   0.132   2.043   3.379  0.3275  0.7258  0.1383
 8894TIP3    H148097   0.115   2.135   3.359 -0.9630  0.6634  0.8048
 8894TIP3    H248098   0.222   2.041   3.411  0.9814  1.4687 -1.5392
 8895TIP3   OH248099   5.656   4.465   2.374  0.0705 -0.5176 -0.0410
 8895TIP3    H148100   5.719   4.528   2.338 -1.7152  1.3442 -0.0607
 8895TIP3    H248101   5.636   4.407   2.301  1.5983 -1.0539 -0.0753
 8896TIP3   OH248102   3.740   4.206  15.729 -0.1547  0.5768  0.0012
 8896TIP3    H148103   3.733   4.151  15.651  2.1056  0.1549  0.0358
 8896TIP3    H248104   3.810   4.268  15.710 -1.2510  2.1361  0.7761
 8897TIP3   OH248105   1.443   3.621  17.530 -0.5614  0.2849 -0.2290
 8897TIP3    H148106   1.505   3.634  17.602 -0.8714  0.9463 -0.0786
 8897TIP3    H248107   1.489   3.563  17.470  1.0461  2.3067 -1.0935
 8898TIP3   OH248108   6.641   0.149   5.405 -0.3161  0.2597 -0.1479
 8898TIP3    H148109   6.653   0.109   5.491 -0.3368 -0.2873 -0.3899
 8898TIP3    H248110   6.675   0.238   5.414 -0.6705  0.3287  0.5243
 8899TIP3   OH248111   5.785   1.957  15.826 -0.3663  0.3213 -0.0927
 8899TIP3    H148112   5.841   1.988  15.755  2.5683 -1.7995  1.0972
 8899TIP3    H248113   5.766   2.035  15.878 -1.8686  1.7665 -2.5964
 8900TIP3   OH248114   1.597   3.870  16.626  0.4292 -0.1514 -0.0319
 8900TIP3    H148115   1.685   3.862  16.661  0.2663 -1.0022  0.2058
 8900TIP3    H248116   1.552   3.790  16.654 -0.4282  0.2856 -0.1123
 8901TIP3   OH248117   5.929   3.234   2.379 -0.1366 -0.2930  0.0428
 8901TIP3    H148118   6.005   3.186   2.344 -0.2533  0.2427 -0.9908
 8901TIP3    H248119   5.868   3.165   2.407  0.2866 -0.7375 -0.1069
 8902TIP3   OH248120   3.664   2.157   5.565 -0.4638 -0.1981  0.6892
 8902TIP3    H148121   3.760   2.156   5.570 -0.3876 -1.2332 -0.3540
 8902TIP3    H248122   3.644   2.104   5.488 -1.8353  1.2884 -0.0381
 8903TIP3   OH248123   0.382   3.395   5.821  0.3132 -0.5844  0.4064
 8903TIP3    H148124   0.342   3.310   5.804 -0.1615 -0.5353  1.2334
 8903TIP3    H248125   0.344   3.453   5.755  1.3423 -1.1908 -0.7776
 8904TIP3   OH248126   2.428   3.622  16.062  0.4071 -0.2300  0.6546
 8904TIP3    H148127   2.449   3.671  16.142  1.4531 -0.8164  0.7556
 8904TIP3    H248128   2.464   3.676  15.991  1.7048 -0.8958  0.7784
 8905TIP3   OH248129   0.710   0.667  14.854 -0.7678 -0.0078 -1.2155
 8905TIP3    H148130   0.767   0.720  14.798  1.2952 -1.8749 -1.0025
 8905TIP3    H248131   0.730   0.577  14.829 -0.4369 -0.8850  1.9022
 8906TIP3   OH248132   3.611   1.181  14.907  0.0519 -0.3120 -0.5547
 8906TIP3    H148133   3.578   1.270  14.893 -1.7720 -0.7840  0.3962
 8906TIP3    H248134   3.609   1.169  15.002 -1.3280 -1.8763 -0.7257
 8907TIP3   OH248135   6.109   5.434   2.694 -0.0702 -0.6085 -0.4523
 8907TIP3    H148136   6.201   5.416   2.714  0.2959  2.6051  1.5394
 8907TIP3    H248137   6.110   5.468   2.604  0.6851 -0.7887 -0.5178
 8908TIP3   OH248138   1.787   2.433  12.754 -0.1699 -0.2356  0.0928
 8908TIP3    H148139   1.792   2.411  12.661  0.1490  0.6463 -0.1031
 8908TIP3    H248140   1.695   2.419  12.777  0.2212 -3.1296  0.3382
 8909TIP3   OH248141   4.968   2.034  16.073 -0.0367 -0.4139 -0.5243
 8909TIP3    H148142   4.977   1.943  16.045 -1.5206  0.1394 -3.0404
 8909TIP3    H248143   5.056   2.070  16.063  0.6395 -1.5873  0.7760
 8910TIP3   OH248144   4.254   5.402  12.927  0.4065 -0.4061  0.2933
 8910TIP3    H148145   4.221   5.396  13.016  0.4058  0.1500  0.3349
 8910TIP3    H248146   4.341   5.363  12.931  0.7940  0.4752  0.7536
 8911TIP3   OH248147   0.787   0.379   6.151  0.0643  0.6871  0.0745
 8911TIP3    H148148   0.732   0.420   6.217  0.4800 -0.0157  0.8658
 8911TIP3    H248149   0.877   0.402   6.177  0.2124  0.7869 -0.5060
 8912TIP3   OH248150   1.393   5.856  14.671 -0.3868  0.1464  0.3801
 8912TIP3    H148151   1.425   5.766  14.678  0.6262  0.4282 -0.4144
 8912TIP3    H248152   1.379   5.869  14.578 -0.3452  0.8822  0.4735
 8913TIP3   OH248153   3.397   3.003   5.758 -0.1110  0.5456 -0.0300
 8913TIP3    H148154   3.441   3.081   5.724  0.7835  0.6159  1.2106
 8913TIP3    H248155   3.462   2.933   5.747 -0.4667  0.2237 -0.0780
 8914TIP3   OH248156   3.017   1.016   3.360  0.9491 -0.1003  0.3006
 8914TIP3    H148157   3.057   1.081   3.418  1.9048 -0.1744 -0.2458
 8914TIP3    H248158   2.944   1.061   3.319  1.7831  0.7519 -0.3000
 8915TIP3   OH248159   4.462   1.643  17.021  0.2561  0.3578  0.3979
 8915TIP3    H148160   4.504   1.578  17.076 -0.4124 -0.0953  0.3913
 8915TIP3    H248161   4.532   1.678  16.966  0.5929 -0.4917  0.2747
 8916TIP3   OH248162   2.758   1.710  16.291 -0.3018  0.2617 -0.0300
 8916TIP3    H148163   2.733   1.705  16.383  0.3608  1.8545  0.2742
 8916TIP3    H248164   2.754   1.804  16.271  0.2417  0.0033 -1.4327
 8917TIP3   OH248165   2.230   4.514   1.577  0.2929 -0.2551 -0.1665
 8917TIP3    H148166   2.282   4.503   1.657  0.4879 -2.6642 -0.5535
 8917TIP3    H248167   2.259   4.598   1.541  2.9471 -0.8698  0.3367
 8918TIP3   OH248168   1.633   3.186  17.217 -0.0002 -0.3325  0.3744
 8918TIP3    H148169   1.577   3.138  17.278  1.0610 -1.6800  0.3434
 8918TIP3    H248170   1.617   3.145  17.132 -1.2210  1.3152 -0.2321
 8919TIP3   OH248171   4.491   6.189   2.733 -0.4319 -0.1088  0.3134
 8919TIP3    H148172   4.539   6.262   2.772 -0.8049 -0.4930  1.5231
 8919TIP3    H248173   4.447   6.228   2.657  0.5018  0.5975  0.1090
 8920TIP3   OH248174   5.809   1.700   4.437 -0.6330  0.0710  0.9586
 8920TIP3    H148175   5.877   1.760   4.406  1.1017 -2.1811  0.2046
 8920TIP3    H248176   5.727   1.743   4.411  0.5337  1.7711 -0.1803
 8921TIP3   OH248177   0.659   0.872   0.995 -0.0864  0.1929 -0.2258
 8921TIP3    H148178   0.581   0.835   0.953  0.8235  0.7833 -2.5664
 8921TIP3    H248179   0.704   0.795   1.031 -1.7252 -0.1504  1.2148
 8922TIP3   OH248180   5.955   6.239  13.674 -0.1928  0.3151 -0.2652
 8922TIP3    H148181   5.995   6.266  13.591 -0.0593 -2.1591 -1.0885
 8922TIP3    H248182   5.880   6.185  13.647  0.3736 -1.2692  1.1789
 8923TIP3   OH248183   1.271   2.225  12.409 -0.2739 -0.0827 -0.0838
 8923TIP3    H148184   1.341   2.270  12.458 -0.4525 -0.9925  1.0520
 8923TIP3    H248185   1.198   2.222  12.471 -0.3458 -1.7016 -0.2225
 8924TIP3   OH248186   4.516   2.743  15.184  0.4718 -0.1168  0.0784
 8924TIP3    H148187   4.490   2.664  15.232  0.9148  0.1782  0.8156
 8924TIP3    H248188   4.555   2.710  15.103 -2.0485 -0.5989 -1.0456
 8925TIP3   OH248189   5.477   3.748   4.116  0.0994 -0.0942  0.4474
 8925TIP3    H148190   5.416   3.810   4.076 -0.1328  0.2003  1.2391
 8925TIP3    H248191   5.481   3.774   4.208 -0.7196 -1.8036  1.0081
 8926TIP3   OH248192   3.054   5.686   1.171 -0.4098  0.0862  0.6595
 8926TIP3    H148193   3.113   5.736   1.115 -1.6648  0.9930  0.0843
 8926TIP3    H248194   2.966   5.707   1.138 -1.0535 -1.5181  1.2198
 8927TIP3   OH248195   2.014   5.858   3.638  0.5837  0.8420  0.2244
 8927TIP3    H148196   1.929   5.814   3.637  1.0610 -0.2023  1.7225
 8927TIP3    H248197   2.014   5.910   3.719  2.0823 -0.7781  1.3583
 8928TIP3   OH248198   2.927   0.115   5.567  0.1043  0.0141 -0.7943
 8928TIP3    H148199   2.982   0.133   5.490  0.4676  2.5549 -0.0278
 8928TIP3    H248200   2.955   0.180   5.632 -1.7469 -0.5919  0.6938
 8929TIP3   OH248201   4.131   2.941  17.121  0.1488  0.7525 -0.2819
 8929TIP3    H148202   4.181   2.893  17.186  0.1513  2.2552  0.8721
 8929TIP3    H248203   4.193   2.953  17.048  0.9664  1.1659  0.4542
 8930TIP3   OH248204   6.317   6.664  12.061 -0.5038 -0.0047  0.0464
 8930TIP3    H148205   6.343   6.754  12.042 -0.6981  0.2225  0.8022
 8930TIP3    H248206   6.399   6.619  12.080 -0.4317  0.0774 -0.0662
 8931TIP3   OH248207   1.536   2.033   0.340  0.3038  1.0432  0.6884
 8931TIP3    H148208   1.592   1.966   0.378 -0.2295 -0.6979 -1.3893
 8931TIP3    H248209   1.499   2.079   0.415 -0.4930 -2.0175  2.3185
 8932TIP3   OH248210   2.526   3.810  16.238 -0.0299  0.1096  0.1790
 8932TIP3    H148211   2.523   3.762  16.320  0.1146  2.0186  1.3664
 8932TIP3    H248212   2.606   3.862  16.244  0.6429 -0.6144 -1.7383
 8933TIP3   OH248213   4.809   3.586   5.619  0.1417 -0.1867  0.8800
 8933TIP3    H148214   4.883   3.532   5.645  0.3919  0.5025  1.5944
 8933TIP3    H248215   4.741   3.567   5.684 -0.2014 -0.5628  0.4222
 8934TIP3   OH248216   2.193   1.790  16.669  0.5675  0.2690 -0.2726
 8934TIP3    H148217   2.121   1.740  16.630 -0.0966  1.2939 -0.4171
 8934TIP3    H248218   2.164   1.806  16.759  0.7842  0.3608 -0.2189
 8935TIP3   OH248219   4.539   1.603   4.983  0.1356  0.1529 -0.0309
 8935TIP3    H148220   4.475   1.637   5.045  0.3498  1.1252 -0.3325
 8935TIP3    H248221   4.494   1.530   4.941 -0.2867 -0.0322  0.7109
 8936TIP3   OH248222   5.106   2.126  17.607 -0.4574 -0.4116  0.0713
 8936TIP3    H148223   5.098   2.218  17.632 -1.0665 -0.9539  2.0489
 8936TIP3    H248224   5.048   2.117  17.531 -1.0176  0.6451  0.3540
 8937TIP3   OH248225   4.942   3.876   4.475  0.4639  0.0238  1.0224
 8937TIP3    H148226   4.988   3.813   4.532 -0.7873 -0.1792  1.8409
 8937TIP3    H248227   4.898   3.935   4.536 -0.7494 -0.0744  0.2596
 8938TIP3   OH248228   1.703   1.462   3.595  0.4664 -0.3195 -0.3384
 8938TIP3    H148229   1.766   1.531   3.574 -0.0632 -0.3671 -2.2383
 8938TIP3    H248230   1.639   1.505   3.652  0.2781  0.7071 -1.2947
 8939TIP3   OH248231   4.180   4.072   4.405  0.4349  0.0356  0.1030
 8939TIP3    H148232   4.196   4.019   4.327  0.0893  0.3824 -0.2073
 8939TIP3    H248233   4.268   4.092   4.438  0.6244  0.8127 -0.8270
 8940TIP3   OH248234   2.948   3.118   5.583  0.3314 -0.0420 -0.3285
 8940TIP3    H148235   2.892   3.195   5.587  1.0208  0.4996 -0.8980
 8940TIP3    H248236   2.963   3.094   5.674 -1.1071 -0.4111 -0.1725
 8941TIP3   OH248237   6.016   6.544   5.748 -0.5557 -0.2391  0.0444
 8941TIP3    H148238   6.046   6.480   5.812  0.3899 -1.5634 -1.6444
 8941TIP3    H248239   5.921   6.542   5.755 -0.5302 -1.6100  0.2411
 8942TIP3   OH248240   4.071   5.313  11.961 -0.0749  0.1336 -0.7999
 8942TIP3    H148241   4.162   5.328  11.984 -0.0218 -1.1604 -0.0196
 8942TIP3    H248242   4.021   5.341  12.038 -0.1288 -1.3720 -0.2502
 8943TIP3   OH248243   0.439   4.692  12.352 -0.2308 -0.1103  0.1492
 8943TIP3    H148244   0.378   4.749  12.305 -1.9181 -0.7073  1.4851
 8943TIP3    H248245   0.489   4.751  12.409 -0.6257  0.2405  0.1329
 8944TIP3   OH248246   0.434   1.762  10.848 -0.4288  0.8096 -0.1081
 8944TIP3    H148247   0.406   1.703  10.778  0.6786 -0.3420  0.3784
 8944TIP3    H248248   0.356   1.774  10.901 -0.5541 -0.7330  0.1132
 8945TIP3   OH248249   5.762   5.301  11.735  0.1547 -0.1777  0.1418
 8945TIP3    H148250   5.761   5.240  11.809 -1.6252 -0.4728 -0.0760
 8945TIP3    H248251   5.673   5.297  11.700  0.3382  1.6355 -0.6451
 8946TIP3   OH248252   3.528   1.719   4.666 -0.0723 -0.5408 -0.0271
 8946TIP3    H148253   3.468   1.783   4.627 -0.0075 -0.0576  0.6448
 8946TIP3    H248254   3.470   1.656   4.710 -0.1216  1.1582  2.5675
 8947TIP3   OH248255   2.655   4.148   5.712  0.6747  0.4242 -0.0104
 8947TIP3    H148256   2.671   4.239   5.737  0.3837  0.2086  1.0307
 8947TIP3    H248257   2.727   4.126   5.653 -1.6246  2.6814 -4.0600
 8948TIP3   OH248258   2.493   6.569  14.775 -0.1008 -0.2690  0.3019
 8948TIP3    H148259   2.552   6.517  14.831 -0.3562  1.2735  2.0924
 8948TIP3    H248260   2.406   6.553  14.811 -0.4462 -0.2783 -0.5240
 8949TIP3   OH248261   0.599   1.226   0.888 -0.1974 -0.0133  0.0149
 8949TIP3    H148262   0.555   1.221   0.973  1.9864 -0.7265  1.1889
 8949TIP3    H248263   0.677   1.171   0.898  1.1370  1.3977 -1.8118
 8950TIP3   OH248264   3.981   1.843   1.978 -0.2799  0.6045  0.3278
 8950TIP3    H148265   3.989   1.932   2.013 -1.9215  1.6948 -1.8319
 8950TIP3    H248266   4.062   1.828   1.930 -0.6322  1.5800 -0.5946
 8951TIP3   OH248267   6.388   2.542   3.836  0.6119 -0.2110  0.0386
 8951TIP3    H148268   6.460   2.481   3.819 -0.4917 -1.3634 -0.7177
 8951TIP3    H248269   6.336   2.541   3.756 -1.8548 -1.7270  1.5114
 8952TIP3   OH248270   5.905   2.634  15.010  0.0091  0.5469  0.1080
 8952TIP3    H148271   5.912   2.726  15.032 -0.8335  0.1869  2.1290
 8952TIP3    H248272   5.981   2.616  14.955  0.0928  2.4610 -0.4544
 8953TIP3   OH248273   6.228   1.186  17.579  0.3091 -0.1124  0.4655
 8953TIP3    H148274   6.239   1.096  17.548  2.8064  0.3742 -0.3344
 8953TIP3    H248275   6.285   1.238  17.521 -2.6131  2.3258 -0.4802
 8954TIP3   OH248276   1.334   6.203  16.625 -0.4777  0.5327 -0.4381
 8954TIP3    H148277   1.324   6.107  16.631 -1.9171  0.7141  0.8555
 8954TIP3    H248278   1.416   6.222  16.671 -1.4925  0.0885  1.7174
 8955TIP3   OH248279   0.067   2.219   6.330  0.0008  0.1331  0.1781
 8955TIP3    H148280   0.084   2.312   6.344 -0.8980  1.0001 -3.4992
 8955TIP3    H248281   0.152   2.177   6.344  0.4142  1.4223  1.9266
 8956TIP3   OH248282   3.174   4.548   1.632 -0.4240  0.7842  0.1595
 8956TIP3    H148283   3.260   4.555   1.673  0.4949  0.9703 -1.7010
 8956TIP3    H248284   3.124   4.492   1.691  0.9943  0.5982  1.2390
 8957TIP3   OH248285   0.127   0.291   2.062  0.2531  0.1005  0.9265
 8957TIP3    H148286   0.177   0.370   2.084  1.6605 -1.0490  2.0695
 8957TIP3    H248287   0.188   0.236   2.014 -0.7064 -0.3331  0.1655
 8958TIP3   OH248288   4.444   4.050   2.835  0.3214  0.1804  0.4707
 8958TIP3    H148289   4.359   4.068   2.795  0.4520  0.4069  0.2937
 8958TIP3    H248290   4.424   4.030   2.926  0.1036  0.4771  0.4881
 8959TIP3   OH248291   5.396   6.445   4.363  0.2469  0.2483  0.4817
 8959TIP3    H148292   5.442   6.529   4.363  0.2479  0.2520 -0.3444
 8959TIP3    H248293   5.318   6.461   4.416  0.5221  0.6176  0.7792
 8960TIP3   OH248294   1.727   5.655  13.399  0.3977  0.3196 -0.0882
 8960TIP3    H148295   1.646   5.697  13.429  0.0492 -0.7323  0.5207
 8960TIP3    H248296   1.796   5.696  13.450  0.3351  1.6450 -1.0287
 8961TIP3   OH248297   0.737   3.331  15.533  0.0826 -0.2209  0.5512
 8961TIP3    H148298   0.718   3.293  15.447  0.2126 -0.6890  0.7238
 8961TIP3    H248299   0.651   3.345  15.573  0.0399 -0.6077  0.5988
 8962TIP3   OH248300   5.316   2.900  15.311  0.2792  0.4785  0.1227
 8962TIP3    H148301   5.303   2.813  15.272 -0.5011  1.3944 -1.7918
 8962TIP3    H248302   5.247   2.907  15.377 -0.4234  0.0797 -0.5484
 8963TIP3   OH248303   6.130   6.654  13.079  0.4183 -0.1768 -0.1802
 8963TIP3    H148304   6.187   6.654  13.156 -0.5237 -0.0227  0.5338
 8963TIP3    H248305   6.184   6.617  13.009  1.6602  0.7295  0.2707
 8964TIP3   OH248306   2.155   1.954   1.788  0.0491  0.5409 -0.4436
 8964TIP3    H148307   2.175   1.894   1.859  1.1857  1.0080 -0.3451
 8964TIP3    H248308   2.220   2.024   1.796 -2.1989  2.6660  0.4275
 8965TIP3   OH248309   3.787   5.489  13.193 -0.2122  0.2906 -0.1088
 8965TIP3    H148310   3.768   5.578  13.223 -0.3142  0.0122  0.6650
 8965TIP3    H248311   3.860   5.460  13.248 -0.4719 -0.2691 -0.0536
 8966TIP3   OH248312   4.749   4.310  14.754 -0.2217 -0.4222  0.4642
 8966TIP3    H148313   4.673   4.288  14.702 -0.4152  2.2443 -0.5389
 8966TIP3    H248314   4.817   4.249  14.726 -1.8037 -2.5993  1.1154
 8967TIP3   OH248315   0.991   2.198   2.579 -0.1109 -0.3477  0.0433
 8967TIP3    H148316   1.068   2.211   2.634  0.0568 -0.8823 -0.0558
 8967TIP3    H248317   0.923   2.169   2.640 -0.4990  0.9943  0.2711
 8968TIP3   OH248318   5.082   1.995  13.488  0.3161  0.0834 -0.0461
 8968TIP3    H148319   5.087   2.018  13.396 -1.5985  0.1122 -0.1723
 8968TIP3    H248320   5.133   2.063  13.533  0.5389  0.5524 -0.9950
 8969TIP3   OH248321   3.464   2.516  12.033 -1.0275 -0.2293  0.3203
 8969TIP3    H148322   3.426   2.516  11.946  0.7835  1.4091 -0.5405
 8969TIP3    H248323   3.514   2.434  12.037 -0.2856  0.1699 -0.5786
 8970TIP3   OH248324   1.997   1.471  13.114  0.3781 -0.4992 -0.3225
 8970TIP3    H148325   1.937   1.420  13.059 -1.2725 -0.9797  1.7760
 8970TIP3    H248326   2.064   1.408  13.140 -0.5317 -1.0967  0.6323
 8971TIP3   OH248327   2.523   0.485   2.926  0.1788 -0.3382  0.1726
 8971TIP3    H148328   2.508   0.496   3.020  1.1100 -1.4425  0.4785
 8971TIP3    H248329   2.436   0.483   2.888 -0.2605 -0.8806  1.1570
 8972TIP3   OH248330   6.289   3.184  15.832 -0.1279  0.2554 -0.2569
 8972TIP3    H148331   6.261   3.093  15.845 -1.2674  0.6097 -0.1433
 8972TIP3    H248332   6.264   3.204  15.741 -0.6757  0.7246 -0.0076
 8973TIP3   OH248333   1.937   5.485   2.191  0.1150 -0.7850  0.2608
 8973TIP3    H148334   1.947   5.558   2.130  1.2866 -0.8652  0.3404
 8973TIP3    H248335   1.902   5.414   2.137  1.1270 -0.8485 -0.3329
 8974TIP3   OH248336   2.801   3.361  11.972  0.3374  0.7436 -0.3610
 8974TIP3    H148337   2.790   3.284  11.916  0.9434 -1.1737  2.0092
 8974TIP3    H248338   2.895   3.376  11.975  0.3083  0.8409  0.1448
 8975TIP3   OH248339   2.461   5.427   2.339  0.4134  0.1982 -0.2241
 8975TIP3    H148340   2.543   5.383   2.361  1.3436  1.7061 -0.5718
 8975TIP3    H248341   2.399   5.396   2.405  1.3370 -0.7048  0.2478
 8976TIP3   OH248342   5.758   4.875  11.731 -0.3300  0.3476 -0.0390
 8976TIP3    H148343   5.790   4.926  11.656  1.2368 -1.5861 -0.7729
 8976TIP3    H248344   5.830   4.878  11.794 -0.5299 -0.3354  0.2250
 8977TIP3   OH248345   3.877   1.976  12.653  0.3831 -0.1875 -0.5984
 8977TIP3    H148346   3.918   1.894  12.682  0.9148  0.5343  0.8099
 8977TIP3    H248347   3.945   2.043  12.667 -0.5618  0.7220 -0.2253
 8978TIP3   OH248348   0.935   3.771   3.375  0.6664  0.0102 -0.1459
 8978TIP3    H148349   0.998   3.761   3.447 -0.4818 -1.7047  0.6679
 8978TIP3    H248350   0.906   3.682   3.355  1.1030  0.3830 -2.9332
 8979TIP3   OH248351   0.146   6.675   3.720 -0.0575 -0.3389 -0.2914
 8979TIP3    H148352   0.194   6.645   3.797  2.6827  2.0650 -0.9284
 8979TIP3    H248353   0.113   6.594   3.679  0.9695 -1.8645  1.7476
 8980TIP3   OH248354   3.707   2.683  11.959 -0.0077 -0.2587 -0.1561
 8980TIP3    H148355   3.689   2.713  11.870 -1.8373  1.2941  0.6436
 8980TIP3    H248356   3.626   2.640  11.987  0.1417  0.2231  1.1069
 8981TIP3   OH248357   5.260   4.120  14.604 -0.6260  0.1859  0.0184
 8981TIP3    H148358   5.247   4.213  14.620 -0.8007 -0.1613  2.2263
 8981TIP3    H248359   5.324   4.093  14.669 -2.1483 -1.6419  0.8587
 8982TIP3   OH248360   0.423   1.223  16.326  0.0148 -0.0590 -0.5580
 8982TIP3    H148361   0.510   1.260  16.318 -0.5316  2.0290  1.8410
 8982TIP3    H248362   0.395   1.206  16.236  2.2079  0.8433 -1.4619
 8983TIP3   OH248363   2.009   5.709   5.127 -0.1193 -0.6384  0.3871
 8983TIP3    H148364   1.982   5.702   5.218 -3.2623 -1.9066 -0.4956
 8983TIP3    H248365   1.931   5.687   5.077  1.8745 -1.5950 -2.6231
 8984TIP3   OH248366   1.217   0.339  16.633  0.7765 -0.3927 -0.3945
 8984TIP3    H148367   1.279   0.282  16.587  0.2156 -0.8317 -0.6218
 8984TIP3    H248368   1.193   0.290  16.711  0.8556 -0.1450 -0.2158
 8985TIP3   OH248369   0.514   2.303   3.189  0.3825  0.3358 -0.4914
 8985TIP3    H148370   0.470   2.351   3.118  0.1272  1.0008  0.1036
 8985TIP3    H248371   0.448   2.298   3.258  0.0271 -1.8333 -0.9153
 8986TIP3   OH248372   1.098   2.389  15.058 -0.3214 -0.3382 -0.2634
 8986TIP3    H148373   1.023   2.440  15.029 -1.4294 -1.5789  0.3066
 8986TIP3    H248374   1.060   2.317  15.108  1.2241 -1.3238 -0.4419
 8987TIP3   OH248375   4.148   1.076  12.287  0.2040 -0.6610 -0.5446
 8987TIP3    H148376   4.101   1.030  12.356  3.3200 -1.5707  1.1501
 8987TIP3    H248377   4.090   1.148  12.263 -1.4677 -0.9291  2.2511
 8988TIP3   OH248378   3.859   1.790   6.560 -0.7756  0.0800 -0.3933
 8988TIP3    H148379   3.920   1.736   6.510 -0.9428 -0.7353  0.2597
 8988TIP3    H248380   3.800   1.727   6.602 -1.9673  0.8354 -0.8780
 8989TIP3   OH248381   1.785   1.644  11.928  0.0908  0.3591  0.3598
 8989TIP3    H148382   1.721   1.632  11.999 -0.5473  0.9084 -0.1129
 8989TIP3    H248383   1.866   1.605  11.962  0.1481  1.7128  1.8887
 8990TIP3   OH248384   2.801   2.832   3.794 -1.4195 -0.1369  0.6835
 8990TIP3    H148385   2.873   2.769   3.803 -0.5035  0.4630 -1.6845
 8990TIP3    H248386   2.792   2.871   3.880 -0.4155 -1.8010  1.6040
 8991TIP3   OH248387   6.476   3.015   0.727 -0.0730  0.2385 -0.1858
 8991TIP3    H148388   6.455   3.106   0.747 -1.9045 -0.5862  2.0086
 8991TIP3    H248389   6.540   2.989   0.793 -2.1104 -0.9608  1.4437
 8992TIP3   OH248390   2.500   4.124   6.382 -0.5180  0.0961  0.2490
 8992TIP3    H148391   2.560   4.185   6.424 -1.2716 -0.3371  2.0489
 8992TIP3    H248392   2.414   4.167   6.388 -1.1050 -1.1666  1.7781
 8993TIP3   OH248393   0.084   6.683  13.293  0.2203  0.1098  0.1623
 8993TIP3    H148394   0.177   6.683  13.318  0.6425  0.2614 -1.3129
 8993TIP3    H248395   0.046   6.756  13.342  0.7841 -0.2035  1.0897
 8994TIP3   OH248396   6.281   2.651   1.741  0.3584  0.1530  0.0711
 8994TIP3    H148397   6.263   2.572   1.691 -0.4771  0.7658 -0.6195
 8994TIP3    H248398   6.307   2.619   1.827  0.5811 -0.8826 -0.3679
 8995TIP3   OH248399   6.149   1.873  15.953  0.3843 -0.1685  0.2070
 8995TIP3    H148400   6.238   1.876  15.919  0.4155 -0.8844  0.2096
 8995TIP3    H248401   6.107   1.952  15.919  0.2302 -1.1316 -2.0294
 8996TIP3   OH248402   5.402   2.811  15.673 -0.1636 -0.1605  0.5407
 8996TIP3    H148403   5.330   2.748  15.685  0.2307 -0.2543  2.9136
 8996TIP3    H248404   5.433   2.829  15.762  3.4265 -0.9000 -0.3937
 8997TIP3   OH248405   3.960   1.450   3.997  0.1010 -0.2126 -0.1711
 8997TIP3    H148406   3.915   1.411   4.072  1.4914  0.8216  1.2669
 8997TIP3    H248407   3.918   1.535   3.984 -1.6220 -1.2647 -2.0582
 8998TIP3   OH248408   0.619   2.319   5.274 -0.1444 -0.8159  0.6927
 8998TIP3    H148409   0.559   2.247   5.256 -1.2305  0.4490 -1.0005
 8998TIP3    H248410   0.704   2.277   5.289 -1.1604 -2.5466  1.8482
 8999TIP3   OH248411   0.856   2.848  12.697  0.1457  0.5161  0.0167
 8999TIP3    H148412   0.901   2.932  12.701 -3.0096  2.3323  1.2345
 8999TIP3    H248413   0.778   2.864  12.644 -1.2491 -1.2148  1.3652
 9000TIP3   OH248414   1.274   6.375   2.428 -0.1392 -0.1800  0.1761
 9000TIP3    H148415   1.294   6.455   2.476 -1.1529 -0.2891  0.7961
 9000TIP3    H248416   1.281   6.400   2.336 -1.6051  0.9633  0.3350
 9001TIP3   OH248417   3.951   4.926  12.261  0.3544  0.3512  0.4667
 9001TIP3    H148418   4.025   4.867  12.274 -0.0548 -0.0677  0.9294
 9001TIP3    H248419   3.918   4.906  12.174  0.5488  0.2772  0.4109
 9002TIP3   OH248420   0.596   4.978  15.745  0.4891 -0.0841 -0.0289
 9002TIP3    H148421   0.645   4.900  15.719  1.8414  0.9424 -0.6936
 9002TIP3    H248422   0.526   4.985  15.680 -0.2142 -1.2312  0.5768
 9003TIP3   OH248423   6.244   6.253  12.354  0.4245 -0.0213 -0.2268
 9003TIP3    H148424   6.317   6.195  12.373  0.0414 -0.8575 -1.2342
 9003TIP3    H248425   6.229   6.300  12.436  0.9796 -1.0777  0.5015
 9004TIP3   OH248426   2.205   0.952   4.557 -0.4185  0.4314  0.1055
 9004TIP3    H148427   2.125   0.980   4.600  0.7711  0.0596  2.7378
 9004TIP3    H248428   2.239   1.031   4.514 -0.7631  1.2908  1.3639
 9005TIP3   OH248429   0.976   6.250   4.823 -0.2401  0.4809  0.0228
 9005TIP3    H148430   0.932   6.188   4.764 -0.0907  0.1010  0.3107
 9005TIP3    H248431   0.920   6.328   4.821 -0.7541  0.1242  0.1282
 9006TIP3   OH248432   5.045   5.293   1.633 -0.2802 -0.1126 -0.0730
 9006TIP3    H148433   5.027   5.260   1.722 -0.6845  1.5612  0.5075
 9006TIP3    H248434   4.959   5.298   1.592 -0.2519  0.4295 -0.0685
 9007TIP3   OH248435   2.207   1.064   2.299  0.0809  0.0587  0.2315
 9007TIP3    H148436   2.203   1.010   2.220 -1.5232  1.1880 -0.5228
 9007TIP3    H248437   2.258   1.141   2.274  0.0972  0.1328  0.4819
 9008TIP3   OH248438   5.894   4.342  16.804 -0.3535  0.0151  0.4471
 9008TIP3    H148439   5.901   4.249  16.785  4.5516  0.1203  0.4628
 9008TIP3    H248440   5.950   4.356  16.881  1.4477  3.2500 -1.2230
 9009TIP3   OH248441   0.402   3.358   3.324  0.7804 -0.0759 -0.2841
 9009TIP3    H148442   0.403   3.264   3.308 -3.6284 -0.2013 -1.3027
 9009TIP3    H248443   0.372   3.366   3.415 -0.7566  0.2103 -0.7787
 9010TIP3   OH248444   6.514   5.909  16.491 -0.3764 -0.2775 -0.0184
 9010TIP3    H148445   6.521   5.988  16.545 -0.6550  0.3410 -0.8565
 9010TIP3    H248446   6.420   5.902  16.472 -0.3559 -0.8313  0.0823
 9011TIP3   OH248447   1.715   5.017  13.871 -0.2410  0.3569 -0.4768
 9011TIP3    H148448   1.645   5.082  13.881  0.0003  0.3981  1.1384
 9011TIP3    H248449   1.672   4.933  13.884 -0.2600  0.2730 -1.0363
 9012TIP3   OH248450   6.286   6.705   0.687  0.3607 -0.7066  0.5075
 9012TIP3    H148451   6.276   6.610   0.698  0.0608 -0.6538  0.7206
 9012TIP3    H248452   6.203   6.741   0.718 -0.4756 -0.5198 -1.8249
 9013TIP3   OH248453   4.077   3.481   2.139  0.1257  0.6439  0.5366
 9013TIP3    H148454   4.030   3.411   2.184  0.1258  0.2960  0.0128
 9013TIP3    H248455   4.029   3.561   2.160  0.0611  0.4705  1.0532
 9014TIP3   OH248456   2.906   5.409  14.833 -0.5890  0.6148 -0.5281
 9014TIP3    H148457   2.882   5.351  14.760 -1.0947  2.8073 -2.2231
 9014TIP3    H248458   2.994   5.380  14.859  0.0946  0.4602 -2.8035
 9015TIP3   OH248459   4.482   3.021   0.604 -0.5003 -0.0177  0.1566
 9015TIP3    H148460   4.474   2.937   0.560 -0.5537  0.1254 -0.1128
 9015TIP3    H248461   4.458   3.004   0.694  1.9670 -0.8468  0.7502
 9016TIP3   OH248462   2.819   3.482  13.375 -0.2231  0.6129  0.1611
 9016TIP3    H148463   2.791   3.492  13.466 -0.9491  0.8496 -0.0765
 9016TIP3    H248464   2.740   3.503  13.324  0.4404  1.4863 -0.5427
 9017TIP3   OH248465   4.582   3.752  16.057  0.2939 -0.4954  0.2376
 9017TIP3    H148466   4.642   3.809  16.010  1.3436 -0.9134  1.0134
 9017TIP3    H248467   4.500   3.801  16.062  0.4757 -0.0288 -1.1003
 9018TIP3   OH248468   6.709   1.841  17.046  0.0914  0.1625 -0.0776
 9018TIP3    H148469   6.716   1.880  16.959  0.5757 -0.3970 -0.2915
 9018TIP3    H248470   6.778   1.884  17.097  1.3054 -1.1054 -0.5879
 9019TIP3   OH248471   2.758   3.487  16.077 -0.2040  0.4852  0.5014
 9019TIP3    H148472   2.764   3.436  15.996  0.8912  0.4580  0.5851
 9019TIP3    H248473   2.727   3.573  16.049  1.0612  0.7678 -0.0887
 9020TIP3   OH248474   2.385   2.491   6.159  0.0309 -0.3447  0.4618
 9020TIP3    H148475   2.353   2.581   6.152 -2.2601 -1.1925 -0.6901
 9020TIP3    H248476   2.316   2.444   6.205  1.4060 -1.4624  1.4705
 9021TIP3   OH248477   0.748   4.319  17.268 -0.5360  0.0224 -0.1839
 9021TIP3    H148478   0.817   4.384  17.259 -2.5090  2.1645 -0.6146
 9021TIP3    H248479   0.742   4.278  17.182 -0.8272  0.9432 -0.6137
 9022TIP3   OH248480   2.524   5.082  14.239 -0.3142  0.2864  0.1431
 9022TIP3    H148481   2.495   4.996  14.270  0.4001 -0.2124 -0.5206
 9022TIP3    H248482   2.585   5.062  14.167  1.1764  1.2841  1.0717
 9023TIP3   OH248483   4.004   5.543   1.313  0.4667 -0.1792  0.3324
 9023TIP3    H148484   4.013   5.539   1.218 -1.4945 -1.4652  0.1402
 9023TIP3    H248485   3.972   5.632   1.330 -1.7738 -0.7493 -0.5455
 9024TIP3   OH248486   1.236   4.364  11.412  0.3750 -0.1502 -0.3056
 9024TIP3    H148487   1.171   4.310  11.457 -0.1722  1.6638  1.2190
 9024TIP3    H248488   1.317   4.350  11.461 -0.0232  1.1823  0.7842
 9025TIP3   OH248489   3.704   5.624   1.458 -0.1683  0.3260 -0.3190
 9025TIP3    H148490   3.676   5.607   1.368  0.9884  0.5969 -0.7499
 9025TIP3    H248491   3.774   5.561   1.474 -0.6399  0.0056  0.5502
 9026TIP3   OH248492   4.479   3.399   2.093 -0.3351  0.6103  0.1284
 9026TIP3    H148493   4.417   3.363   2.030  1.0375  0.0604 -0.9640
 9026TIP3    H248494   4.498   3.487   2.059 -0.3827  0.7194  0.3796
 9027TIP3   OH248495   4.241   1.921  17.250 -0.0774  0.2322 -0.2796
 9027TIP3    H148496   4.267   2.000  17.298  2.5028 -1.1142  0.7608
 9027TIP3    H248497   4.181   1.876  17.309 -1.3239  1.2122 -0.7515
 9028TIP3   OH248498   5.507   6.488   0.167 -0.3018 -0.0621 -0.0699
 9028TIP3    H148499   5.482   6.403   0.204 -1.1121  0.2354  0.0904
 9028TIP3    H248500   5.600   6.494   0.185 -0.4415 -0.4478  0.9032
 9029TIP3   OH248501   3.082   1.796  13.448  0.0734  0.3952  0.3617
 9029TIP3    H148502   2.992   1.765  13.438  0.8571 -1.2228 -2.9504
 9029TIP3    H248503   3.079   1.887  13.418 -0.6299  0.7740  1.5060
 9030TIP3   OH248504   3.466   6.611  12.727 -0.4857  0.1562 -0.4365
 9030TIP3    H148505   3.558   6.589  12.713 -0.2545  1.3627 -1.0035
 9030TIP3    H248506   3.467   6.669  12.803 -0.9495 -0.8879  0.3852
 9031TIP3   OH248507   6.607   4.277  14.590 -0.3276  0.3828  0.2102
 9031TIP3    H148508   6.533   4.294  14.532 -0.2938 -0.5356 -0.1265
 9031TIP3    H248509   6.569   4.271  14.677 -0.3242  2.1847  0.3652
 9032TIP3   OH248510   1.813   4.498   5.682  0.2144 -0.4376 -0.4286
 9032TIP3    H148511   1.822   4.405   5.704 -0.0350 -0.1075  1.1513
 9032TIP3    H248512   1.838   4.544   5.762  0.3267  0.8710 -1.1909
 9033TIP3   OH248513   0.618   6.687  14.018 -0.8185 -0.0729  0.2614
 9033TIP3    H148514   0.712   6.701  14.008 -0.0709 -2.1526  3.1777
 9033TIP3    H248515   0.581   6.716  13.934  2.5061 -0.3990 -1.4999
 9034TIP3   OH248516   6.259   1.853   1.361  0.2119  0.4062 -0.4800
 9034TIP3    H148517   6.288   1.834   1.450 -1.0388  0.0011 -0.1367
 9034TIP3    H248518   6.201   1.780   1.339 -2.2533  2.2059 -0.3177
 9035TIP3   OH248519   3.440   4.391   3.367  0.5664 -0.9962 -0.0280
 9035TIP3    H148520   3.526   4.424   3.392  0.5611 -1.6666  0.8847
 9035TIP3    H248521   3.441   4.391   3.271  1.0538  0.3647 -0.0420
 9036TIP3   OH248522   0.786   5.569  11.201 -0.6155  0.2952  0.4839
 9036TIP3    H148523   0.826   5.554  11.115  0.1668 -0.7646  1.0014
 9036TIP3    H248524   0.833   5.644  11.237 -1.8635  1.6186 -0.5335
 9037TIP3   OH248525   3.000   5.830   0.516 -0.2829 -0.4147 -0.1132
 9037TIP3    H148526   2.919   5.866   0.481 -0.4266 -0.3005  0.3257
 9037TIP3    H248527   3.070   5.879   0.472 -0.4352 -0.8822 -0.8882
 9038TIP3   OH248528   6.130   2.849   3.398  0.0489  0.1641 -0.4811
 9038TIP3    H148529   6.215   2.889   3.414 -0.3808  0.8704  0.0959
 9038TIP3    H248530   6.068   2.904   3.446 -1.3036  2.2294 -4.1779
 9039TIP3   OH248531   2.504   6.200   5.122  0.4243  0.0633 -0.2076
 9039TIP3    H148532   2.572   6.266   5.132  0.6571 -0.2479  0.3486
 9039TIP3    H248533   2.531   6.148   5.047 -0.3043  1.2296 -1.3120
 9040TIP3   OH248534   5.102   0.269  13.414  0.3116  0.4544 -0.2059
 9040TIP3    H148535   5.033   0.210  13.444  0.8223 -0.4980 -0.8600
 9040TIP3    H248536   5.057   0.330  13.356 -0.1185  0.3449  0.0077
 9041TIP3   OH248537   3.366   0.791  12.051  0.0026 -0.4917  0.6903
 9041TIP3    H148538   3.374   0.745  11.968  1.2569  0.2793  0.3656
 9041TIP3    H248539   3.392   0.881  12.032 -1.5853  0.1907  1.4984
 9042TIP3   OH248540   3.708   2.947  14.602  0.1134  0.0756 -0.4132
 9042TIP3    H148541   3.680   2.954  14.693  0.1693  0.6238 -0.4388
 9042TIP3    H248542   3.671   2.863  14.572  0.9618 -0.6128  0.4136
 9043TIP3   OH248543   5.670   4.994   1.073 -0.0333 -0.1267 -1.0284
 9043TIP3    H148544   5.582   5.007   1.109  0.7587  1.7402  0.4530
 9043TIP3    H248545   5.682   5.069   1.015  0.7911 -0.0365 -0.7462
 9044TIP3   OH248546   4.478   4.014   4.118 -0.8706 -0.3032  0.1085
 9044TIP3    H148547   4.393   3.983   4.152 -1.3148 -0.0724 -0.7715
 9044TIP3    H248548   4.540   3.946   4.146 -1.5829 -1.2260 -0.4785
 9045TIP3   OH248549   0.653   1.083  13.144  0.0935  0.4145 -0.1939
 9045TIP3    H148550   0.603   1.165  13.136 -3.5276 -1.5545  0.3874
 9045TIP3    H248551   0.692   1.088  13.231 -3.5397 -0.0376  1.6551
 9046TIP3   OH248552   6.321   6.322  16.384  0.2060 -0.3765 -0.2206
 9046TIP3    H148553   6.349   6.389  16.322 -0.1747 -0.8709 -0.9459
 9046TIP3    H248554   6.384   6.251  16.373  0.5031 -0.2222  0.4198
 9047TIP3   OH248555   3.868   6.467   3.696  0.4828  0.1448  0.3581
 9047TIP3    H148556   3.927   6.484   3.622  0.3270 -1.1974 -0.0992
 9047TIP3    H248557   3.839   6.554   3.724  0.9173  0.7063 -0.8594
 9048TIP3   OH248558   2.881   3.574  13.865 -0.0698  0.0102  0.1238
 9048TIP3    H148559   2.807   3.636  13.871  0.2350  0.4078 -0.1708
 9048TIP3    H248560   2.917   3.572  13.954 -0.0610  0.2803  0.1278
 9049TIP3   OH248561   0.248   1.955   1.702  0.3977 -0.0381 -0.6130
 9049TIP3    H148562   0.172   1.974   1.756  0.8749  0.9525 -0.2750
 9049TIP3    H248563   0.323   1.970   1.759  0.9202  1.3914 -1.6381
 9050TIP3   OH248564   4.065   4.663  10.772 -0.1938 -0.3004  0.0214
 9050TIP3    H148565   4.121   4.694  10.701 -0.6135  1.0165  0.2395
 9050TIP3    H248566   4.059   4.568  10.758  0.0063 -0.1167 -1.4973
 9051TIP3   OH248567   2.663   0.102  11.372 -0.1638 -0.2515 -0.3303
 9051TIP3    H148568   2.706   0.096  11.287  0.9624 -2.6193  0.3202
 9051TIP3    H248569   2.588   0.044  11.366 -0.3818 -0.0258  0.1361
 9052TIP3   OH248570   2.652   3.713   1.946  0.2170 -0.0383 -0.1508
 9052TIP3    H148571   2.737   3.754   1.961  0.1835 -0.2572  0.7182
 9052TIP3    H248572   2.654   3.686   1.854  0.9376  0.2971 -0.2426
 9053TIP3   OH248573   3.192   2.055  14.287  0.3253  0.2195  0.3262
 9053TIP3    H148574   3.227   2.143  14.298 -1.7978  1.0334  0.8692
 9053TIP3    H248575   3.176   2.047  14.193 -0.5306  0.8374  0.4177
 9054TIP3   OH248576   5.870   3.169  15.936 -0.6616  0.0892  0.0017
 9054TIP3    H148577   5.804   3.111  15.973  0.1748 -1.3057 -0.6508
 9054TIP3    H248578   5.946   3.159  15.994  0.1608 -1.0128 -1.2182
 9055TIP3   OH248579   4.658   4.536  14.882  0.0509  0.4021  0.0018
 9055TIP3    H148580   4.588   4.579  14.832  0.2597  0.7080 -0.0269
 9055TIP3    H248581   4.682   4.460  14.828 -0.0589  0.4575 -0.1263
 9056TIP3   OH248582   0.475   0.227   1.372 -0.2705  0.8402 -0.6074
 9056TIP3    H148583   0.430   0.297   1.418 -2.4025 -0.6815 -0.2223
 9056TIP3    H248584   0.520   0.178   1.440 -1.7426 -0.2082 -0.3353
 9057TIP3   OH248585   2.578   0.916  11.583 -0.2056 -0.1477 -0.2403
 9057TIP3    H148586   2.561   0.946  11.494  0.8113  0.3449 -0.2780
 9057TIP3    H248587   2.493   0.919  11.626 -0.3565  1.5745 -0.6107
 9058TIP3   OH248588   5.786   2.278   4.185  0.0752 -0.5564 -0.3661
 9058TIP3    H148589   5.875   2.313   4.178  0.3936 -1.1667  0.3886
 9058TIP3    H248590   5.758   2.302   4.273 -0.9712  0.6343 -0.9974
 9059TIP3   OH248591   3.674   2.063  15.490  0.1179  0.0030 -0.0241
 9059TIP3    H148592   3.664   2.094  15.399 -0.0664  1.0171  0.3331
 9059TIP3    H248593   3.641   2.135  15.543  0.8596 -0.3220  0.8847
 9060TIP3   OH248594   5.155   4.931   5.103 -0.8354 -0.5623 -0.1551
 9060TIP3    H148595   5.132   4.860   5.043 -2.0485 -0.0665 -0.3105
 9060TIP3    H248596   5.074   4.949   5.150  0.2252 -1.3167  2.0853
 9061TIP3   OH248597   0.427   2.487   2.996  0.2248 -0.2876  0.0520
 9061TIP3    H148598   0.499   2.507   2.936 -1.0161 -0.7710 -1.6992
 9061TIP3    H248599   0.397   2.572   3.026  0.4624  0.0158 -0.5411
 9062TIP3   OH248600   0.079   4.391  16.210 -0.2912  0.2785 -0.2777
 9062TIP3    H148601   0.110   4.331  16.278 -0.1529 -0.6955 -1.1731
 9062TIP3    H248602   0.152   4.399  16.149 -0.0884  1.8679  0.1362
 9063TIP3   OH248603   4.860   0.283  15.952 -0.2382 -0.3315 -0.5581
 9063TIP3    H148604   4.932   0.336  15.985  0.2540 -0.7111 -1.0097
 9063TIP3    H248605   4.819   0.246  16.031 -0.2843  0.3158 -0.2717
 9064TIP3   OH248606   5.667   0.893  13.976  0.0735  0.2358 -0.2508
 9064TIP3    H148607   5.603   0.948  13.931  0.7916  0.4471 -1.0279
 9064TIP3    H248608   5.726   0.862  13.907  0.1930 -0.8182  0.2991
 9065TIP3   OH248609   0.366   3.422  15.038  0.5400 -0.3419 -0.2653
 9065TIP3    H148610   0.411   3.504  15.019  1.0496 -0.4291  0.5397
 9065TIP3    H248611   0.384   3.405  15.130 -0.9548 -0.5005  0.0263
 9066TIP3   OH248612   5.980   3.172  12.301  0.2282 -0.5949 -0.2905
 9066TIP3    H148613   5.945   3.083  12.301  0.1394 -0.5607 -0.6901
 9066TIP3    H248614   5.980   3.198  12.209  0.0288 -0.0909 -0.1521
 9067TIP3   OH248615   5.051   0.669  14.792 -0.1743 -0.6778 -0.4117
 9067TIP3    H148616   4.961   0.669  14.825 -0.0429 -1.3144 -0.0312
 9067TIP3    H248617   5.062   0.756  14.753  0.0733  0.6572  2.3480
 9068TIP3   OH248618   0.771   3.613  12.682 -0.9641  0.6340 -0.1488
 9068TIP3    H148619   0.757   3.708  12.682  3.0390  1.4031  0.5950
 9068TIP3    H248620   0.837   3.599  12.749 -0.9711 -2.6436 -0.6789
 9069TIP3   OH248621   0.688   3.202   5.256  0.6383 -0.2006  0.4908
 9069TIP3    H148622   0.683   3.286   5.302  0.4051 -0.3116  0.6697
 9069TIP3    H248623   0.764   3.159   5.295  0.0768 -0.5545  1.2203
 9070TIP3   OH248624   6.033   3.840  12.783  0.0543 -0.1118 -0.2687
 9070TIP3    H148625   6.087   3.832  12.861 -1.3014 -1.3211  0.6053
 9070TIP3    H248626   6.009   3.932  12.779 -1.2448 -0.3119  1.7642
 9071TIP3   OH248627   1.713   5.779  16.548  0.3501 -0.0708 -0.2850
 9071TIP3    H148628   1.767   5.761  16.471  1.3534 -0.9254  0.5906
 9071TIP3    H248629   1.773   5.772  16.622 -0.9735 -1.2530  0.7319
 9072TIP3   OH248630   3.500   1.520   2.027 -0.9230  0.2428 -0.1410
 9072TIP3    H148631   3.511   1.614   2.036 -3.1292  0.6531 -1.0358
 9072TIP3    H248632   3.440   1.510   1.953 -2.0457 -1.7779  0.9509
 9073TIP3   OH248633   1.416   2.963  13.183 -0.4553 -0.3659  0.7683
 9073TIP3    H148634   1.440   3.049  13.147  1.2314 -0.9311  0.4547
 9073TIP3    H248635   1.321   2.968  13.195 -0.7868  0.6568 -1.6561
 9074TIP3   OH248636   6.207   3.410  12.846  0.1542 -0.0639  0.0252
 9074TIP3    H148637   6.269   3.371  12.907 -2.2693 -1.2510  1.9202
 9074TIP3    H248638   6.188   3.340  12.783 -0.3684 -0.2244  0.3551
 9075TIP3   OH248639   4.937   4.680  13.538 -0.0856 -0.3542  0.4049
 9075TIP3    H148640   4.946   4.615  13.608  0.7484 -1.4809 -0.6995
 9075TIP3    H248641   4.906   4.630  13.463  0.1735  0.6067 -0.3586
 9076TIP3   OH248642   2.547   2.690   3.810  0.3516  0.5543  0.5510
 9076TIP3    H148643   2.553   2.618   3.747  1.0979 -0.5116  1.8076
 9076TIP3    H248644   2.623   2.744   3.792  1.6601 -0.7994  1.7549
 9077TIP3   OH248645   0.547   3.625  16.308 -0.1718 -0.0511  0.2185
 9077TIP3    H148646   0.613   3.572  16.262 -0.2575  0.3661 -0.3933
 9077TIP3    H248647   0.465   3.576  16.296 -0.1668 -0.0203  0.0528
 9078TIP3   OH248648   5.634   6.501   4.724  0.1656 -0.1367 -0.8469
 9078TIP3    H148649   5.694   6.576   4.729  0.2797  0.0060 -3.3019
 9078TIP3    H248650   5.550   6.540   4.700 -0.7664 -0.4541  1.5770
 9079TIP3   OH248651   5.135   5.044  13.277  0.3104  0.3619 -0.7125
 9079TIP3    H148652   5.212   4.987  13.283 -0.0173  0.0363  0.9400
 9079TIP3    H248653   5.126   5.062  13.184  1.7257 -0.5029 -1.0531
 9080TIP3   OH248654   5.972   2.817  17.529 -0.5984  0.5920  0.0341
 9080TIP3    H148655   6.030   2.888  17.502  0.0997  1.8541  4.1795
 9080TIP3    H248656   5.907   2.859  17.585 -1.9968 -1.6577  0.2273
 9081TIP3   OH248657   4.896   4.769  11.396 -0.2956 -0.9535  0.3740
 9081TIP3    H148658   4.844   4.707  11.448 -1.3101  0.3224  0.9173
 9081TIP3    H248659   4.887   4.737  11.306 -1.4622 -1.1617  0.5434
 9082TIP3   OH248660   5.211   2.209  15.515  0.0342 -0.2416  0.4245
 9082TIP3    H148661   5.229   2.303  15.515  0.2879 -0.2844  1.0905
 9082TIP3    H248662   5.296   2.168  15.528  0.1097 -0.6207 -1.1052
 9083TIP3   OH248663   1.177   3.906  15.573 -0.0118 -0.3418  0.3245
 9083TIP3    H148664   1.088   3.907  15.608 -0.3748  0.2509 -0.5714
 9083TIP3    H248665   1.216   3.987  15.606  0.2882 -0.7378  0.9433
 9084TIP3   OH248666   5.833   6.387   6.786 -0.4833  0.0348  0.7950
 9084TIP3    H148667   5.779   6.308   6.796  0.0092 -0.2206  1.5963
 9084TIP3    H248668   5.785   6.442   6.725 -1.3361 -0.4612  1.0002
 9085TIP3   OH248669   1.497   5.476  15.547 -0.5538 -0.1790 -0.0218
 9085TIP3    H148670   1.546   5.411  15.497 -0.4565 -0.4097  0.3782
 9085TIP3    H248671   1.563   5.540  15.573 -0.4117 -0.6441  0.7714
 9086TIP3   OH248672   2.184   1.139   6.017  0.0833  0.1753 -0.1054
 9086TIP3    H148673   2.092   1.116   6.004 -0.1639  0.9249  0.2634
 9086TIP3    H248674   2.229   1.099   5.943 -0.5546 -0.1043 -0.3518
 9087TIP3   OH248675   5.293   1.204   2.989 -0.3203 -0.3238 -0.7621
 9087TIP3    H148676   5.383   1.199   2.955  0.4252  0.5291  0.9613
 9087TIP3    H248677   5.245   1.251   2.921  1.1834  1.6017 -0.5908
 9088TIP3   OH248678   5.396   1.531  16.195  0.6106  0.6092  0.5221
 9088TIP3    H148679   5.438   1.519  16.109  1.4341  0.5655  0.9232
 9088TIP3    H248680   5.415   1.621  16.219  0.2478  0.6687  0.5926
 9089TIP3   OH248681   0.427   0.505  16.362 -0.1483 -0.3044  0.2833
 9089TIP3    H148682   0.490   0.451  16.315 -0.4801 -1.0273  0.6296
 9089TIP3    H248683   0.353   0.446  16.377 -0.5678  0.2888  0.5854
 9090TIP3   OH248684   4.558   0.663  13.848 -0.0149  0.0469 -0.3220
 9090TIP3    H148685   4.636   0.609  13.839 -0.4081 -0.5539 -0.1743
 9090TIP3    H248686   4.592   0.751  13.865  0.6367 -0.4156  0.9285
 9091TIP3   OH248687   0.939   4.672  17.205 -0.2503 -0.6143 -0.3932
 9091TIP3    H148688   0.973   4.586  17.229  0.0674 -0.6519 -0.9616
 9091TIP3    H248689   1.016   4.729  17.206 -0.8525  0.3242  2.7535
 9092TIP3   OH248690   0.349   4.010  14.321 -0.0747 -0.1602 -0.6550
 9092TIP3    H148691   0.368   4.084  14.379 -2.8335 -0.2146  0.4553
 9092TIP3    H248692   0.306   4.050  14.245 -1.6564 -0.5811 -0.0097
 9093TIP3   OH248693   3.807   6.221  11.542 -0.5518 -0.2402  0.5255
 9093TIP3    H148694   3.729   6.173  11.514 -1.7780  2.0498 -0.2650
 9093TIP3    H248695   3.855   6.238  11.461 -0.2911  0.1273  0.7523
 9094TIP3   OH248696   0.172   2.437   4.967  0.0013  0.0658  0.0500
 9094TIP3    H148697   0.191   2.523   5.006 -0.6434 -0.3133  1.2433
 9094TIP3    H248698   0.135   2.386   5.039  1.2798 -1.5421 -0.3979
 9095TIP3   OH248699   6.595   3.075  13.882  0.5828  0.1200 -0.1032
 9095TIP3    H148700   6.611   3.169  13.892  0.6432  0.3198 -1.8379
 9095TIP3    H248701   6.673   3.041  13.839  0.7207 -0.8171  0.8471
 9096TIP3   OH248702   2.557   4.308   2.971  0.3477 -0.3167  0.3660
 9096TIP3    H148703   2.590   4.316   2.882  0.4155  0.9317  0.4807
 9096TIP3    H248704   2.547   4.214   2.986  0.4155 -0.5365 -0.9253
 9097TIP3   OH248705   4.316   0.628   2.087 -0.2054  0.3043 -0.5153
 9097TIP3    H148706   4.236   0.681   2.092 -0.6377 -0.3013 -0.8747
 9097TIP3    H248707   4.285   0.538   2.084  0.5492 -0.1245  1.8613
 9098TIP3   OH248708   4.136   0.585  11.904 -0.4881 -0.4250 -0.0321
 9098TIP3    H148709   4.165   0.518  11.842 -0.0014 -0.1723 -0.0741
 9098TIP3    H248710   4.070   0.540  11.958  0.6034 -1.2606  0.6499
 9099TIP3   OH248711   2.400   6.171  17.129  0.4076 -0.3975  0.8333
 9099TIP3    H148712   2.417   6.261  17.157  1.1847 -0.0404 -0.6913
 9099TIP3    H248713   2.445   6.117  17.194  0.6001  0.3264  1.3145
 9100TIP3   OH248714   2.128   4.634   1.212  0.6778 -0.6342 -0.1528
 9100TIP3    H148715   2.197   4.569   1.196  0.6861 -0.8113  0.5704
 9100TIP3    H248716   2.161   4.687   1.285 -0.1580 -1.0267  0.5265
 9101TIP3   OH248717   5.735   3.910   0.487  0.3363 -0.8285 -0.8255
 9101TIP3    H148718   5.722   3.946   0.574  0.5883 -2.5478 -0.0433
 9101TIP3    H248719   5.690   3.971   0.429 -0.0322  0.2234  0.5171
 9102TIP3   OH248720   3.419   4.910  14.052  0.1752 -0.0766 -0.5908
 9102TIP3    H148721   3.435   4.822  14.085 -0.3182  0.0668  0.0532
 9102TIP3    H248722   3.506   4.946  14.037  0.4414 -0.1037  0.7081
 9103TIP3   OH248723   4.083   4.553  13.245  0.3952  0.0807  0.1922
 9103TIP3    H148724   4.113   4.641  13.267  2.2426 -0.6711  0.9287
 9103TIP3    H248725   4.107   4.500  13.322 -1.6211 -0.8970  0.2237
 9104TIP3   OH248726   2.891   3.529   5.848 -0.0807  0.4817  0.0213
 9104TIP3    H148727   2.903   3.470   5.923  1.6949  0.8139  0.0519
 9104TIP3    H248728   2.797   3.529   5.832 -0.3780 -0.4587  1.5556
 9105TIP3   OH248729   1.537   0.168  17.177 -0.3675 -0.4185 -0.6149
 9105TIP3    H148730   1.449   0.139  17.200 -0.3178  0.4431  0.7207
 9105TIP3    H248731   1.595   0.105  17.219 -0.3304 -1.1980 -1.7953
 9106TIP3   OH248732   2.628   5.115  15.815  0.1025 -0.1607  0.1656
 9106TIP3    H148733   2.640   5.201  15.855 -1.1119 -0.5570  1.4795
 9106TIP3    H248734   2.649   5.053  15.885 -1.4508 -0.8873  0.0306
 9107TIP3   OH248735   3.412   1.401   3.978 -0.0174 -0.2970 -0.0143
 9107TIP3    H148736   3.392   1.493   3.999  0.8707 -0.5902  2.5179
 9107TIP3    H248737   3.506   1.399   3.964 -0.0184 -0.8363  0.0362
 9108TIP3   OH248738   1.141   1.507  12.309  0.5483 -0.0371  0.1513
 9108TIP3    H148739   1.060   1.473  12.272  0.5643 -0.5022  0.5278
 9108TIP3    H248740   1.180   1.560  12.239  0.0370 -0.0043 -0.1077
 9109TIP3   OH248741   4.541   2.632  11.820 -0.4472 -0.2553  0.2807
 9109TIP3    H148742   4.494   2.552  11.795 -1.9512  0.9452 -0.9518
 9109TIP3    H248743   4.535   2.634  11.915  1.4083 -2.6089  0.5597
 9110TIP3   OH248744   3.676   5.526  14.912 -0.8275 -0.0734 -0.3666
 9110TIP3    H148745   3.694   5.594  14.977  1.4541  0.4384 -1.4028
 9110TIP3    H248746   3.696   5.568  14.828 -0.0444 -1.7728 -1.0799
 9111TIP3   OH248747   0.756   3.979   2.517 -0.3207  0.3628 -0.1702
 9111TIP3    H148748   0.754   3.886   2.540 -0.5447  0.7323  1.4167
 9111TIP3    H248749   0.693   3.988   2.446 -0.3090 -0.6939 -0.3269
 9112TIP3   OH248750   2.109   4.709   3.852 -0.0742 -0.1586 -0.0219
 9112TIP3    H148751   2.158   4.779   3.895 -1.0550  1.4263 -1.3511
 9112TIP3    H248752   2.172   4.671   3.790 -0.3211  1.5967 -1.4369
 9113TIP3   OH248753   5.420   5.881   2.397 -0.2887  0.8391  0.1348
 9113TIP3    H148754   5.440   5.888   2.490 -1.6710  2.0789  0.3805
 9113TIP3    H248755   5.351   5.815   2.392  0.8155 -0.3273 -0.2130
 9114TIP3   OH248756   5.775   2.907   1.834 -0.7806 -0.6966 -0.6837
 9114TIP3    H148757   5.850   2.851   1.813 -0.2364  0.0306 -0.7037
 9114TIP3    H248758   5.813   2.980   1.882 -1.7086 -1.2005  0.8896
 9115TIP3   OH248759   0.027   5.253   4.722  0.1037  0.2001 -0.5349
 9115TIP3    H148760   0.101   5.306   4.691 -0.4904  1.2258 -0.2479
 9115TIP3    H248761   0.015   5.280   4.813 -1.5543  1.1603 -0.9996
 9116TIP3   OH248762   2.905   4.192   1.656 -0.1184 -0.1212 -0.3307
 9116TIP3    H148763   2.852   4.128   1.607 -0.9531  1.5712 -1.7299
 9116TIP3    H248764   2.841   4.257   1.685  1.1842  2.5183 -2.8936
 9117TIP3   OH248765   3.681   1.274  11.396  0.1826 -0.2656  0.2962
 9117TIP3    H148766   3.684   1.241  11.306 -1.3499 -1.7484  0.7322
 9117TIP3    H248767   3.679   1.369  11.386  1.3343 -0.3425 -1.1583
 9118TIP3   OH248768   1.850   5.096  10.948 -0.1157 -0.1823 -0.6106
 9118TIP3    H148769   1.782   5.041  10.909  1.4395 -1.4140 -1.7118
 9118TIP3    H248770   1.815   5.121  11.034 -0.6361 -3.4722  0.2522
 9119TIP3   OH248771   5.649   3.762  16.961 -0.2076 -0.1331  0.3733
 9119TIP3    H148772   5.648   3.804  17.046  1.5171 -0.3695  0.5465
 9119TIP3    H248773   5.613   3.827  16.901  2.2354  1.6102  0.6525
 9120TIP3   OH248774   0.196   0.616   5.552  0.2641 -0.0760 -0.4814
 9120TIP3    H148775   0.142   0.695   5.550 -0.2491 -0.3871  0.5844
 9120TIP3    H248776   0.286   0.649   5.549  0.0937  0.6371  1.0323
 9121TIP3   OH248777   0.682   2.181  15.138  0.3293 -0.0803 -0.0819
 9121TIP3    H148778   0.628   2.223  15.071 -0.0873  0.0728  0.3488
 9121TIP3    H248779   0.670   2.087  15.123  2.6185 -0.1442 -2.1693
 9122TIP3   OH248780   3.762   0.358  14.357  0.0502  0.3590  0.3330
 9122TIP3    H148781   3.741   0.346  14.265 -0.4681  0.8120  0.3913
 9122TIP3    H248782   3.821   0.433  14.359 -0.2458  0.5914  0.4063
 9123TIP3   OH248783   0.888   0.424  14.884 -0.4662 -1.1256 -0.4726
 9123TIP3    H148784   0.911   0.332  14.898  1.3396 -0.7500 -0.6996
 9123TIP3    H248785   0.940   0.472  14.948 -2.7049 -0.3346  0.8529
 9124TIP3   OH248786   5.746   0.183  12.974  0.7467 -0.4287 -0.0523
 9124TIP3    H148787   5.666   0.146  12.936  0.8690 -0.1964 -0.5471
 9124TIP3    H248788   5.773   0.251  12.912  0.5842  0.4259  0.7818
 9125TIP3   OH248789   3.111   3.451  14.309  0.6387  0.0466  0.1948
 9125TIP3    H148790   3.179   3.400  14.266  1.0332  0.0911  0.7487
 9125TIP3    H248791   3.090   3.400  14.387  0.9386  0.6526  0.6835
 9126TIP3   OH248792   1.244   0.531   5.663  0.5230  0.0275 -0.7930
 9126TIP3    H148793   1.328   0.504   5.626 -0.1809 -3.1046 -0.4340
 9126TIP3    H248794   1.180   0.510   5.595 -0.3479 -1.9604  0.5088
 9127TIP3   OH248795   2.507   1.483  12.490  0.1234  0.8044  0.5086
 9127TIP3    H148796   2.556   1.554  12.533  0.1564  0.7181  0.6127
 9127TIP3    H248797   2.543   1.403  12.527  0.6996  0.6971 -0.2577
 9128TIP3   OH248798   1.057   5.814  13.924  0.6381 -0.2138  0.6601
 9128TIP3    H148799   1.092   5.865  13.851  1.0861 -0.4006  0.7398
 9128TIP3    H248800   1.091   5.726  13.911  1.0059 -0.1733  1.2738
 9129TIP3   OH248801   5.008   1.402  14.978  0.7925  0.0071  0.0156
 9129TIP3    H148802   5.103   1.402  14.991  0.6612  1.1265  1.2329
 9129TIP3    H248803   4.977   1.327  15.029  0.9120  0.4790  0.8073
 9130TIP3   OH248804   5.072   2.543   5.339 -0.6552 -0.1389  0.1411
 9130TIP3    H148805   5.048   2.470   5.282 -0.6940 -1.4123  1.7317
 9130TIP3    H248806   5.124   2.601   5.283 -0.4270 -1.4914 -1.0910
 9131TIP3   OH248807   4.949   4.081   1.440 -0.0774  0.4367  0.2430
 9131TIP3    H148808   5.007   4.133   1.385 -0.1910  0.4512  0.1361
 9131TIP3    H248809   4.950   3.994   1.402  0.4290  0.2584  0.6627
 9132TIP3   OH248810   2.087   5.284  12.487  0.6561 -0.0136  0.3648
 9132TIP3    H148811   2.145   5.210  12.507  1.5165  0.9972  1.8520
 9132TIP3    H248812   2.064   5.320  12.573 -3.1207 -0.9772 -0.0796
 9133TIP3   OH248813   6.681   2.915  11.842  0.0316 -0.4571  0.1559
 9133TIP3    H148814   6.725   2.962  11.912  0.2432  0.6844 -0.7273
 9133TIP3    H248815   6.747   2.853  11.809  0.2613 -0.2723  0.2706
 9134TIP3   OH248816   5.749   2.820   3.415 -0.7842  0.4742  0.1464
 9134TIP3    H148817   5.671   2.839   3.467  0.4675  2.3580  1.4874
 9134TIP3    H248818   5.746   2.884   3.343 -0.7596  0.1379 -0.1609
 9135TIP3   OH248819   6.619   4.380   5.604  0.1241 -0.1104 -0.1686
 9135TIP3    H148820   6.569   4.313   5.652  0.7357 -0.1586  0.4264
 9135TIP3    H248821   6.554   4.446   5.581 -0.3635 -0.5660 -0.1402
 9136TIP3   OH248822   2.814   6.530  13.218 -0.0571 -0.0203  0.7387
 9136TIP3    H148823   2.828   6.439  13.242  0.1820 -0.0790  0.3877
 9136TIP3    H248824   2.901   6.562  13.194 -0.4619 -0.3405 -1.3186
 9137TIP3   OH248825   2.809   3.340   0.173 -0.6148 -0.0926  0.0404
 9137TIP3    H148826   2.774   3.291   0.099  0.6111  0.6519 -1.0639
 9137TIP3    H248827   2.781   3.431   0.157  0.0596  0.1531  0.2326
 9138TIP3   OH248828   0.333   4.637  11.500  0.3484 -0.0433  0.1795
 9138TIP3    H148829   0.258   4.628  11.440 -0.8971 -1.2158  1.8308
 9138TIP3    H248830   0.386   4.706  11.460 -0.2925 -0.9052 -2.3747
 9139TIP3   OH248831   6.679   1.874   2.783 -0.0578  0.3413 -0.3308
 9139TIP3    H148832   6.662   1.883   2.877 -0.9771  0.6679 -0.5199
 9139TIP3    H248833   6.603   1.914   2.741  0.6241  0.7375 -1.2197
 9140TIP3   OH248834   2.727   3.896  12.337  0.0118 -0.8784  0.3270
 9140TIP3    H148835   2.673   3.957  12.389  0.8870 -0.4508  0.7685
 9140TIP3    H248836   2.784   3.854  12.402  2.4970  1.0702 -0.3955
 9141TIP3   OH248837   2.899   1.984  15.366  0.2796  0.0962  0.5856
 9141TIP3    H148838   2.821   2.003  15.418 -0.2700  1.5654 -0.6919
 9141TIP3    H248839   2.950   1.923  15.420 -1.1406  0.0898  1.9901
 9142TIP3   OH248840   1.866   4.634  17.052  0.4130  0.1843 -0.5937
 9142TIP3    H148841   1.780   4.645  17.013  1.4541  2.9723 -2.4273
 9142TIP3    H248842   1.904   4.560  17.005  0.3758  1.3559 -2.5497
 9143TIP3   OH248843   6.558   4.303  13.212  0.3877  0.4645 -0.8670
 9143TIP3    H148844   6.523   4.291  13.301  0.9969  1.2231 -0.5090
 9143TIP3    H248845   6.483   4.329  13.160 -0.4194 -2.0157 -1.0644
 9144TIP3   OH248846   1.280   5.142  17.348 -0.4259 -0.0531 -0.0504
 9144TIP3    H148847   1.238   5.060  17.323  2.1892 -0.5857 -3.3206
 9144TIP3    H248848   1.258   5.202  17.277  0.2388  1.1766  0.7492
 9145TIP3   OH248849   0.896   4.413  15.713  0.3025 -0.3769  0.8045
 9145TIP3    H148850   0.890   4.402  15.808  0.9316  0.1919  0.9156
 9145TIP3    H248851   0.894   4.324  15.678  3.1873 -0.8195  1.5427
 9146TIP3   OH248852   3.765   3.707  16.533  0.2644  0.4098 -0.8869
 9146TIP3    H148853   3.854   3.685  16.562  0.1914  0.5450 -0.5562
 9146TIP3    H248854   3.714   3.628  16.552 -0.0832  0.9749  0.6710
 9147TIP3   OH248855   5.220   0.469   5.263  0.4191 -0.6562 -0.1252
 9147TIP3    H148856   5.294   0.448   5.207  1.2138  0.6495  0.3868
 9147TIP3    H248857   5.229   0.410   5.338  2.3234  1.0110  1.0570
 9148TIP3   OH248858   6.197   4.041   2.785 -0.3868  0.2718 -0.2401
 9148TIP3    H148859   6.139   3.969   2.810  0.8797 -0.2582  1.3750
 9148TIP3    H248860   6.241   4.011   2.706 -1.3462  0.1447 -0.7434
 9149TIP3   OH248861   4.054   4.206  16.919 -0.5190  0.5137 -0.1554
 9149TIP3    H148862   4.130   4.246  16.962  0.3443  0.4944 -1.5969
 9149TIP3    H248863   3.993   4.278  16.904 -0.1021  0.8248 -0.3847
 9150TIP3   OH248864   6.376   4.038   5.212 -0.2453  0.1522  0.3170
 9150TIP3    H148865   6.324   4.076   5.282 -1.1301 -0.2768 -0.0984
 9150TIP3    H248866   6.359   3.944   5.218 -0.2115  0.0988 -0.3808
 9151TIP3   OH248867   5.561   5.707  14.774 -0.1418 -1.0694  0.7409
 9151TIP3    H148868   5.594   5.752  14.696  2.4849  0.0779  2.3745
 9151TIP3    H248869   5.466   5.713  14.767  0.0522  1.1714 -1.1575
 9152TIP3   OH248870   3.613   1.990   4.626 -0.0600  0.1220 -0.4146
 9152TIP3    H148871   3.616   2.053   4.699  0.4791  0.9444 -1.1354
 9152TIP3    H248872   3.611   1.905   4.669 -0.8919  0.6218  0.5907
 9153TIP3   OH248873   3.115   4.374  14.824 -0.3394  0.1286 -0.0512
 9153TIP3    H148874   3.205   4.396  14.849 -0.3422 -1.5063  1.5812
 9153TIP3    H248875   3.122   4.287  14.784 -1.3491 -0.7096  1.5098
 9154TIP3   OH248876   3.744   4.375   2.557 -0.1850 -0.1859  0.4369
 9154TIP3    H148877   3.690   4.404   2.630 -1.0922 -0.0589 -0.2687
 9154TIP3    H248878   3.723   4.435   2.485 -0.4645 -1.2218 -0.3897
 9155TIP3   OH248879   4.655   4.337  14.003 -0.5716  0.2284  0.0961
 9155TIP3    H148880   4.733   4.390  13.987 -0.0851 -0.6480 -0.5337
 9155TIP3    H248881   4.588   4.375  13.947 -1.4773  2.7546  2.6485
 9156TIP3   OH248882   0.697   3.105   2.279  0.5415  0.7438  0.3026
 9156TIP3    H148883   0.707   3.011   2.298 -2.2895  0.4693  0.9002
 9156TIP3    H248884   0.679   3.108   2.185 -0.6173  0.5216  0.5018
 9157TIP3   OH248885   3.307   4.128   0.392  0.7219  1.0023  0.8540
 9157TIP3    H148886   3.233   4.178   0.426 -0.6067 -0.6627  0.5994
 9157TIP3    H248887   3.308   4.149   0.298  0.3193  0.7516  0.7899
 9158TIP3   OH248888   6.190   0.161  16.848  0.4159  0.5681  0.5206
 9158TIP3    H148889   6.262   0.183  16.907  0.3476  2.4090 -0.0185
 9158TIP3    H248890   6.201   0.220  16.774 -0.2875 -0.7594 -0.6981
 9159TIP3   OH248891   1.285   5.018  12.072 -0.3917  0.1591  0.5720
 9159TIP3    H148892   1.364   5.018  12.018 -0.7489 -1.3313 -0.0095
 9159TIP3    H248893   1.272   5.110  12.096  0.3457  0.7268 -1.0600
 9160TIP3   OH248894   3.123   5.448  12.886  0.2098  0.7375 -0.0145
 9160TIP3    H148895   3.137   5.542  12.885  0.1402  0.7580  0.5827
 9160TIP3    H248896   3.161   5.419  12.969  0.6634  0.1708 -0.4123
 9161TIP3   OH248897   4.902   5.414  13.467 -0.6333  0.1444  0.2283
 9161TIP3    H148898   4.882   5.355  13.539 -0.6403  0.6755  0.6737
 9161TIP3    H248899   4.989   5.390  13.438 -0.8889 -0.4980 -0.0191
 9162TIP3   OH248900   2.130   6.571  16.189  0.7277  0.1462 -0.3808
 9162TIP3    H148901   2.075   6.492  16.180  0.6613  0.1512 -0.0212
 9162TIP3    H248902   2.193   6.564  16.117 -0.6751  0.9035 -1.7624
 9163TIP3   OH248903   5.656   5.426  14.678  0.2993 -0.3253  0.0776
 9163TIP3    H148904   5.613   5.503  14.714 -1.1521 -0.2373 -1.6788
 9163TIP3    H248905   5.720   5.401  14.744 -1.5246  0.3618  2.2412
 9164TIP3   OH248906   5.023   2.430  14.654  0.3011  0.2868  0.1426
 9164TIP3    H148907   4.951   2.391  14.606  1.0405  0.1037 -0.8499
 9164TIP3    H248908   4.985   2.508  14.696 -0.0172  1.4627 -2.1674
 9165TIP3   OH248909   3.960   2.756  11.234 -0.5228 -0.2432  0.0928
 9165TIP3    H148910   4.046   2.714  11.228 -0.5640 -0.3711  0.4057
 9165TIP3    H248911   3.937   2.751  11.327 -1.3406 -1.1491 -0.1437
 9166TIP3   OH248912   0.958   3.055   5.287  0.6889 -0.0109  0.5266
 9166TIP3    H148913   0.954   2.961   5.305  0.3557 -0.1845 -0.3905
 9166TIP3    H248914   1.051   3.072   5.270  0.4850 -0.6744 -1.6595
 9167TIP3   OH248915   3.099   4.841  15.759  0.1659 -0.2722  0.6419
 9167TIP3    H148916   3.058   4.874  15.839  1.6027  1.0647  0.8883
 9167TIP3    H248917   3.104   4.917  15.701 -0.1422 -1.0402 -0.4319
 9168TIP3   OH248918   0.700   3.731   2.626  0.3476  0.3412 -1.0975
 9168TIP3    H148919   0.754   3.664   2.668 -0.5896  0.5009  0.4368
 9168TIP3    H248920   0.622   3.684   2.598 -0.4801  0.8005  0.3140
 9169TIP3   OH248921   2.677   2.027  11.983  0.2834 -0.3264 -0.3227
 9169TIP3    H148922   2.750   2.082  12.012  0.1902 -0.7011  0.6640
 9169TIP3    H248923   2.629   2.081  11.922 -0.5188  1.1940  1.5568
 9170TIP3   OH248924   2.011   6.354   4.231  0.2127  0.0832 -0.0752
 9170TIP3    H148925   2.009   6.307   4.148 -0.1368 -1.8797  0.9680
 9170TIP3    H248926   2.045   6.290   4.293 -4.3156 -0.4170  2.3495
 9171TIP3   OH248927   2.093   4.677   2.746  0.4236  0.2960  0.1045
 9171TIP3    H148928   2.043   4.620   2.804 -2.4129  0.5267 -1.9135
 9171TIP3    H248929   2.185   4.656   2.765 -0.4393 -3.1737  1.1541
 9172TIP3   OH248930   4.480   2.462  14.214  0.3208 -0.1113 -0.5647
 9172TIP3    H148931   4.482   2.466  14.118  0.8948  0.5718 -0.5350
 9172TIP3    H248932   4.413   2.526  14.239 -0.2388 -0.7065 -0.5243
 9173TIP3   OH248933   1.852   1.176  14.879 -0.0768  0.2704 -0.0216
 9173TIP3    H148934   1.935   1.203  14.839 -0.3701 -0.1029 -0.8945
 9173TIP3    H248935   1.786   1.193  14.812 -1.0937  2.8400  1.4821
 9174TIP3   OH248936   3.339   2.905  11.408  0.5535 -0.0805  0.5849
 9174TIP3    H148937   3.249   2.891  11.438  0.7512 -0.1699  1.1569
 9174TIP3    H248938   3.372   2.816  11.389  1.2351 -0.2980  2.5262
 9175TIP3   OH248939   6.044   4.838   3.141  0.1860  0.1006 -0.0832
 9175TIP3    H148940   5.980   4.780   3.182  0.7536  0.3482  1.2147
 9175TIP3    H248941   5.993   4.894   3.083 -0.5467 -0.7559 -0.2864
 9176TIP3   OH248942   3.874   3.761   2.394 -0.1860 -0.3264  0.1245
 9176TIP3    H148943   3.927   3.751   2.473  0.0031  1.4239  0.2555
 9176TIP3    H248944   3.938   3.767   2.322 -0.3367 -1.2812 -0.1056
 9177TIP3   OH248945   2.932   4.579  12.384 -0.1232 -0.4766 -0.8992
 9177TIP3    H148946   2.878   4.509  12.421  2.0109 -2.0301 -0.5718
 9177TIP3    H248947   2.992   4.534  12.325  2.2597  0.8673  0.3770
 9178TIP3   OH248948   4.138   3.079   0.818  0.2007 -0.0787  0.6927
 9178TIP3    H148949   4.219   3.031   0.802  0.0439  0.1072 -0.8139
 9178TIP3    H248950   4.070   3.012   0.823  0.6212 -0.3826  3.6632
 9179TIP3   OH248951   2.863   2.257  14.188  0.2074  0.3062 -0.6237
 9179TIP3    H148952   2.935   2.210  14.231 -0.5980 -0.0571  0.3734
 9179TIP3    H248953   2.857   2.218  14.101  0.5335 -0.4023 -0.3369
 9180TIP3   OH248954   4.969   3.052  12.377  0.3329  0.0680 -0.2121
 9180TIP3    H148955   4.963   2.996  12.300 -0.9055  0.8153 -0.6918
 9180TIP3    H248956   4.878   3.071  12.400  0.6913  2.5420 -0.5736
 9181TIP3   OH248957   1.566   5.400  12.195 -0.0739  0.3117  0.2468
 9181TIP3    H148958   1.611   5.456  12.132 -0.0475  0.7957  0.6847
 9181TIP3    H248959   1.633   5.338  12.224 -0.6043 -1.2891 -1.7293
 9182TIP3   OH248960   0.312   4.699   5.122 -0.4482  0.1544  0.3221
 9182TIP3    H148961   0.257   4.750   5.062  0.9357 -1.1368 -2.2253
 9182TIP3    H248962   0.392   4.751   5.132 -0.8950  0.6371  1.6007
 9183TIP3   OH248963   3.181   2.908   0.002 -0.0728 -0.6833  0.0782
 9183TIP3    H148964   3.238   2.858   0.060  1.4409 -0.6440 -1.3134
 9183TIP3    H248965   3.226   2.991  -0.011 -0.4112 -0.6628 -1.0760
 9184TIP3   OH248966   1.219   3.818  12.011 -0.8792 -0.1666  0.5463
 9184TIP3    H148967   1.245   3.892  11.956  0.7712 -0.1042  1.3236
 9184TIP3    H248968   1.301   3.769  12.024 -1.6310 -1.2646  1.3181
 9185TIP3   OH248969   4.150   3.694   5.239  0.4440  0.1084 -0.5623
 9185TIP3    H148970   4.218   3.754   5.207  0.4653  0.2984 -0.1633
 9185TIP3    H248971   4.068   3.743   5.228  0.6030  0.8508  1.2306
 9186TIP3   OH248972   4.770   6.657  16.858 -0.6292 -0.2800  0.4371
 9186TIP3    H148973   4.729   6.743  16.856  2.1190  1.2762  2.8646
 9186TIP3    H248974   4.811   6.647  16.772 -2.8926 -0.3248 -0.7163
 9187TIP3   OH248975   1.028   5.874  11.951 -0.2623  0.1713  0.0824
 9187TIP3    H148976   0.948   5.863  12.001  0.9126 -1.1281  1.7891
 9187TIP3    H248977   1.017   5.818  11.874 -1.3968  0.8739 -0.2927
 9188TIP3   OH248978   3.760   5.076  14.966  0.3065 -0.6169  0.0777
 9188TIP3    H148979   3.726   5.135  14.899 -0.5184 -1.4025 -0.2238
 9188TIP3    H248980   3.832   5.030  14.924 -0.5110 -1.4517 -0.4622
 9189TIP3   OH248981   2.655   1.118  12.289  0.5758 -0.1261  0.0891
 9189TIP3    H148982   2.636   1.024  12.287 -0.6643  0.1100 -1.7017
 9189TIP3    H248983   2.640   1.143  12.380 -1.0925 -1.3153  0.1993
 9190TIP3   OH248984   6.544   2.610  12.778 -0.4687  1.2544  0.1202
 9190TIP3    H148985   6.523   2.523  12.811 -0.5344  1.1790 -0.1141
 9190TIP3    H248986   6.597   2.650  12.847 -0.3890  1.0066  0.2034
 9191TIP3   OH248987   0.440   3.423  12.547  0.1823 -0.1019 -0.7050
 9191TIP3    H148988   0.379   3.352  12.527  0.3727  0.0259 -1.7773
 9191TIP3    H248989   0.390   3.503  12.534  0.5387  0.0015 -1.4749
 9192TIP3   OH248990   3.369   4.498   4.360  0.2222 -0.0893  0.1978
 9192TIP3    H148991   3.443   4.497   4.300 -0.1026  0.0062 -0.2032
 9192TIP3    H248992   3.397   4.441   4.433  1.0346  0.6376  0.4730
 9193TIP3   OH248993   4.130   5.509   4.302  0.1313  0.0990 -0.6866
 9193TIP3    H148994   4.123   5.556   4.218 -2.0430  2.2940  0.6082
 9193TIP3    H248995   4.042   5.477   4.319  0.4969 -0.1211  0.8706
 9194TIP3   OH248996   4.741   0.059  16.080 -0.8230  0.3919  0.3767
 9194TIP3    H148997   4.726  -0.032  16.106  1.9551 -0.1596  0.2822
 9194TIP3    H248998   4.804   0.092  16.144 -0.9285  1.9170 -0.2724
 9195TIP3   OH248999   0.053   0.280   3.860 -0.1977  0.0421 -0.6714
 9195TIP3    H149000   0.131   0.326   3.826  0.2666 -0.8266 -0.8144
 9195TIP3    H249001  -0.013   0.293   3.793 -0.6789  2.0393  0.1016
 9196TIP3   OH249002   2.300   2.417   3.190 -0.1961 -0.2199  0.6993
 9196TIP3    H149003   2.360   2.428   3.117 -0.8343  0.2785  0.2346
 9196TIP3    H249004   2.280   2.507   3.218 -1.5209 -0.3367  0.1731
 9197TIP3   OH249005   0.740   3.883   5.275  0.4031  0.1350 -0.4957
 9197TIP3    H149006   0.806   3.834   5.324 -1.4670  0.1169  2.2029
 9197TIP3    H249007   0.741   3.970   5.313 -0.6275  0.3438 -0.9208
 9198TIP3   OH249008   5.259   0.867   0.438  0.4030  0.1057 -0.7551
 9198TIP3    H149009   5.222   0.924   0.506  2.8488  0.2333  0.5557
 9198TIP3    H249010   5.187   0.807   0.417 -1.0671  1.3154  0.4883
 9199TIP3   OH249011   4.347   5.467   4.523  0.5288  0.4840  0.4570
 9199TIP3    H149012   4.262   5.488   4.486 -0.2817  0.8124  2.3878
 9199TIP3    H249013   4.386   5.552   4.545  1.5271  0.3581 -0.7117
 9200TIP3   OH249014   2.805   3.184   3.922 -0.6212  0.1800 -0.5075
 9200TIP3    H149015   2.854   3.266   3.908 -0.8346  0.7329  1.6017
 9200TIP3    H249016   2.713   3.209   3.914 -0.6715 -0.4449 -2.4462
 9201TIP3   OH249017   0.440   6.185   1.682 -0.3323 -0.6801 -0.7116
 9201TIP3    H149018   0.428   6.099   1.723 -1.4061 -1.2062 -2.0386
 9201TIP3    H249019   0.429   6.248   1.753  0.7874 -1.6331  0.3549
 9202TIP3   OH249020   2.298   1.888   2.964 -0.3902 -0.6668  0.4220
 9202TIP3    H149021   2.217   1.841   2.984 -1.1979  1.1055  1.5330
 9202TIP3    H249022   2.328   1.923   3.048  1.1868 -0.7179 -0.0733
 9203TIP3   OH249023   2.318   1.973  15.430 -0.6087 -0.1344  0.4328
 9203TIP3    H149024   2.246   2.029  15.459 -0.8332 -1.1844  2.0879
 9203TIP3    H249025   2.330   1.911  15.502  0.1113 -1.7466 -1.0027
 9204TIP3   OH249026   6.338   1.007  14.653 -0.5578  0.1382 -0.6476
 9204TIP3    H149027   6.327   1.039  14.564 -1.2181  2.1498  0.0939
 9204TIP3    H249028   6.251   1.013  14.692 -0.8313 -2.9903 -0.4925
 9205TIP3   OH249029   4.332   6.063  13.235 -0.1276  0.0834 -0.0295
 9205TIP3    H149030   4.378   6.146  13.218  0.1860 -0.1984 -0.5827
 9205TIP3    H249031   4.318   6.025  13.148 -2.9608  0.9646 -0.0838
 9206TIP3   OH249032   2.630   4.847  17.552 -0.5232  1.3869  0.7346
 9206TIP3    H149033   2.658   4.759  17.528  0.4272  1.4102  1.6599
 9206TIP3    H249034   2.711   4.898  17.556 -1.0401  2.2510  0.4101
 9207TIP3   OH249035   6.552   4.612   2.376  0.0185 -0.1678 -0.3839
 9207TIP3    H149036   6.459   4.629   2.358 -0.5442 -1.6471  0.9079
 9207TIP3    H249037   6.584   4.693   2.417 -0.5088  0.5852 -1.4103
 9208TIP3   OH249038   3.148   1.754   6.979 -0.6042 -0.2149 -0.0683
 9208TIP3    H149039   3.130   1.848   6.991 -0.8028 -0.1519 -0.8200
 9208TIP3    H249040   3.164   1.744   6.885  1.6942 -0.5558  0.3042
 9209TIP3   OH249041   1.008   2.463   3.441 -0.3197  0.0975 -0.0203
 9209TIP3    H149042   1.009   2.509   3.526  0.0542 -2.1445  1.2593
 9209TIP3    H249043   1.026   2.532   3.377  0.2423  1.7292  1.7782
 9210TIP3   OH249044   0.323   6.539  17.469 -0.0378  0.2434  0.3386
 9210TIP3    H149045   0.284   6.456  17.496 -1.0652  0.5152 -0.2641
 9210TIP3    H249046   0.408   6.541  17.512  0.7006 -1.8578 -0.8996
 9211TIP3   OH249047   0.619   0.594   3.539  0.6442  0.5353 -0.0057
 9211TIP3    H149048   0.634   0.625   3.628  0.1526 -0.2884  0.3694
 9211TIP3    H249049   0.702   0.552   3.514  0.5479  0.1316  0.3366
 9212TIP3   OH249050   2.299   3.230   4.532 -0.4003  0.1182  0.6429
 9212TIP3    H149051   2.322   3.140   4.554 -0.7115  0.1554  1.1183
 9212TIP3    H249052   2.287   3.273   4.616  0.1591  0.7166  0.4196
 9213TIP3   OH249053   0.832   6.400  15.784 -0.3463  0.4569 -0.1185
 9213TIP3    H149054   0.801   6.410  15.693 -0.2008 -0.7791 -0.3193
 9213TIP3    H249055   0.818   6.486  15.823  0.5167  1.3168 -1.5929
 9214TIP3   OH249056   3.233   4.040  16.269 -0.1648 -0.1063  0.6597
 9214TIP3    H149057   3.186   3.958  16.281 -0.3295  0.1492  1.8720
 9214TIP3    H249058   3.275   4.057  16.354  1.8448 -0.1506 -0.2742
 9215TIP3   OH249059   4.736   6.576   4.041 -0.3016 -0.6968  0.2443
 9215TIP3    H149060   4.830   6.563   4.029 -0.2914 -0.3504 -0.0802
 9215TIP3    H249061   4.698   6.489   4.029 -0.1118 -0.6794 -0.5498
 9216TIP3   OH249062   1.070   0.026  17.372 -0.0004  0.6079  0.2361
 9216TIP3    H149063   1.120   0.103  17.399 -0.0283  0.3156  1.1574
 9216TIP3    H249064   0.995   0.062  17.324  0.3618  1.1173  0.0451
 9217TIP3   OH249065   2.385   4.438  11.256  0.2001  0.1160  0.0313
 9217TIP3    H149066   2.449   4.484  11.203  0.5055  1.6217  1.6070
 9217TIP3    H249067   2.301   4.458  11.216  0.3008  2.3837  0.8440
 9218TIP3   OH249068   4.185   1.813  16.945  0.2971  0.1150 -0.4479
 9218TIP3    H149069   4.210   1.865  17.022 -0.2453 -0.8994  0.4405
 9218TIP3    H249070   4.197   1.873  16.871 -0.1515  1.4639  0.5162
 9219TIP3   OH249071   1.628   2.675   5.564 -0.2542  0.0957  0.0469
 9219TIP3    H149072   1.573   2.610   5.607 -0.3560 -1.4500 -2.2811
 9219TIP3    H249073   1.689   2.704   5.633 -1.8052 -0.5714  1.7909
 9220TIP3   OH249074   6.552   4.211   6.448 -0.2048  0.1856  0.2371
 9220TIP3    H149075   6.647   4.224   6.450 -0.2132  0.4504 -0.5727
 9220TIP3    H249076   6.521   4.279   6.388 -0.8686 -0.1127  0.2392
 9221TIP3   OH249077   1.307   6.105   0.273  0.6460  0.1532  0.3264
 9221TIP3    H149078   1.234   6.162   0.297  0.9026  0.0752  1.3709
 9221TIP3    H249079   1.369   6.115   0.345  0.3880 -1.9479  0.9263
 9222TIP3   OH249080   3.948   6.041  11.694 -0.3195  0.5759  0.2214
 9222TIP3    H149081   3.925   6.103  11.625 -2.4826  0.6049  0.9069
 9222TIP3    H249082   3.914   5.957  11.664  0.2169  0.2421  0.5177
 9223TIP3   OH249083   3.421   6.055  13.604 -0.0334  0.0919 -0.5648
 9223TIP3    H149084   3.400   6.023  13.692 -0.4719  0.2773 -0.6024
 9223TIP3    H249085   3.517   6.058  13.603 -0.0278  1.0818  0.2732
 9224TIP3   OH249086   2.457   1.058   2.073 -0.0397 -0.1253 -0.6190
 9224TIP3    H149087   2.399   1.132   2.091 -0.5605 -1.2052  2.7827
 9224TIP3    H249088   2.536   1.098   2.037  0.2649  2.3628  2.4089
 9225TIP3   OH249089   5.262   6.618   6.081 -0.2654  0.4224 -0.7935
 9225TIP3    H149090   5.217   6.570   6.150 -0.8176  0.2628 -1.2560
 9225TIP3    H249091   5.354   6.593   6.090  0.1507  2.4161  1.5564
 9226TIP3   OH249092   3.138   5.068  13.099  0.1801 -0.5945  0.0149
 9226TIP3    H149093   3.112   5.075  13.007  0.7071 -1.3211 -0.1985
 9226TIP3    H249094   3.143   4.973  13.115  1.1607 -0.4685  0.4823
 9227TIP3   OH249095   0.908   5.833  15.715  0.1294  0.7268 -0.6188
 9227TIP3    H149096   0.939   5.908  15.767 -3.5632  3.4457 -1.9568
 9227TIP3    H249097   0.903   5.867  15.625 -3.0025 -0.5530 -1.0466
 9228TIP3   OH249098   2.551   0.482  11.948 -0.3621 -0.1708 -0.2041
 9228TIP3    H149099   2.522   0.527  12.027  0.1900 -0.1990  0.0206
 9228TIP3    H249100   2.474   0.481  11.891 -2.1135 -3.7655  1.8712
 9229TIP3   OH249101   2.939   2.775   5.570  0.3733  0.3177  0.2661
 9229TIP3    H149102   2.886   2.771   5.650 -0.6132  1.4075 -0.2936
 9229TIP3    H249103   3.029   2.762   5.599  0.0477  0.9182  1.5781
 9230TIP3   OH249104   6.447   5.978  17.453 -0.2507  0.4607  0.0160
 9230TIP3    H149105   6.364   6.021  17.474 -1.6008 -1.8197 -0.2701
 9230TIP3    H249106   6.488   5.961  17.538 -1.7224 -1.3355  0.4409
 9231TIP3   OH249107   6.555   1.877   6.234 -0.4101  0.1602  0.2863
 9231TIP3    H149108   6.546   1.801   6.176 -0.3502 -0.2934  0.8626
 9231TIP3    H249109   6.497   1.858   6.307  0.4955  0.1065  1.0154
 9232TIP3   OH249110   6.390   3.897   4.649  0.2228  0.2441  0.1765
 9232TIP3    H149111   6.400   3.803   4.668 -0.9366  0.0059 -0.3457
 9232TIP3    H249112   6.303   3.919   4.682  0.4043  1.0925  0.0951
 9233TIP3   OH249113   1.533   5.851  13.562  0.2347 -0.6381  0.4392
 9233TIP3    H149114   1.522   5.759  13.584  1.0777 -0.7201  0.5574
 9233TIP3    H249115   1.497   5.898  13.637 -3.4089 -0.7506 -1.0405
 9234TIP3   OH249116   0.532   1.407   0.683 -0.3026  0.2526 -0.4776
 9234TIP3    H149117   0.593   1.476   0.710 -0.3070  0.5868 -1.3029
 9234TIP3    H249118   0.542   1.339   0.750  0.7563  0.4333 -0.4362
 9235TIP3   OH249119   4.602   6.535  14.126  0.4060  0.3140 -0.0350
 9235TIP3    H149120   4.675   6.495  14.079 -0.2638  1.3621 -2.0682
 9235TIP3    H249121   4.542   6.462  14.144  0.5541 -0.0854 -1.0749
 9236TIP3   OH249122   5.249   3.337  11.708  0.9769 -0.5034  0.2903
 9236TIP3    H149123   5.324   3.377  11.752 -1.0847  1.0980  2.5980
 9236TIP3    H249124   5.229   3.397  11.636  1.4387 -0.5377  0.1277
 9237TIP3   OH249125   1.751   0.530  16.158 -0.0467  0.0309 -0.0064
 9237TIP3    H149126   1.729   0.567  16.244 -1.4238  0.0553 -0.3345
 9237TIP3    H249127   1.669   0.537  16.108  0.1226 -1.8727 -0.6436
 9238TIP3   OH249128   1.343   4.664   4.725  0.5620  0.0148 -0.2596
 9238TIP3    H149129   1.418   4.610   4.750 -1.1614 -2.1893  0.4367
 9238TIP3    H249130   1.267   4.614   4.755 -1.1998  2.1739 -0.9325
 9239TIP3   OH249131   4.726   1.367  13.489 -0.2069 -0.0816 -0.0746
 9239TIP3    H149132   4.675   1.299  13.534  0.8477  0.3453  1.8799
 9239TIP3    H249133   4.749   1.429  13.558  3.2301 -0.4256 -0.7399
 9240TIP3   OH249134   0.738   1.195   1.780  0.4173 -0.5038 -0.3113
 9240TIP3    H149135   0.739   1.186   1.875 -1.1707  0.4459 -0.1777
 9240TIP3    H249136   0.727   1.106   1.747  0.5097 -0.7816  0.3951
 9241TIP3   OH249137   1.115   4.493  11.786  0.3001  0.0565  0.5066
 9241TIP3    H149138   1.116   4.403  11.818  1.0981 -0.8557 -1.8543
 9241TIP3    H249139   1.030   4.503  11.744 -0.0638  0.6561  1.3677
 9242TIP3   OH249140   1.712   0.139   1.619 -0.0218 -0.3189  0.2814
 9242TIP3    H149141   1.645   0.178   1.674 -0.3096 -0.8609  0.3274
 9242TIP3    H249142   1.788   0.128   1.676 -0.0594 -0.1562  0.3608
 9243TIP3   OH249143   1.924   2.585   2.531 -0.0416  0.4787  0.2483
 9243TIP3    H149144   1.852   2.528   2.501 -1.5666  1.2945  2.1423
 9243TIP3    H249145   1.994   2.524   2.553 -2.0097 -0.9391  3.2786
 9244TIP3   OH249146   4.149   2.510   5.187  0.0253  0.3089 -0.3975
 9244TIP3    H149147   4.154   2.419   5.159  0.1538  0.1738  0.0553
 9244TIP3    H249148   4.215   2.556   5.135  0.2963  0.0525 -0.2821
 9245TIP3   OH249149   1.587   6.000  14.425 -0.0342  0.2077  0.2687
 9245TIP3    H149150   1.672   6.001  14.382 -0.3395 -1.0179 -0.4160
 9245TIP3    H249151   1.590   6.074  14.486  0.9521  1.0869 -0.8056
 9246TIP3   OH249152   6.069   0.365   1.009  0.4269  0.8400  0.0558
 9246TIP3    H149153   6.163   0.355   1.027  0.4918  0.6635 -0.3625
 9246TIP3    H249154   6.043   0.281   0.972  0.3747  1.2823 -0.9598
 9247TIP3   OH249155   6.517   4.505   1.577  0.0167 -0.3632  0.2610
 9247TIP3    H149156   6.523   4.531   1.485  0.4586 -2.6117 -0.3873
 9247TIP3    H249157   6.586   4.556   1.620  0.2509  0.2089 -0.7641
 9248TIP3   OH249158   3.028   6.692   6.199  0.3099  0.1972  0.2519
 9248TIP3    H149159   2.988   6.622   6.147  0.9890 -0.1040  0.1133
 9248TIP3    H249160   3.002   6.673   6.289  2.4893 -1.7214  0.5682
 9249TIP3   OH249161   4.678   0.928   5.324  0.0677  0.0780  0.2214
 9249TIP3    H149162   4.757   0.950   5.374  0.1674 -0.2573  0.2153
 9249TIP3    H249163   4.610   0.986   5.358 -0.0632 -0.6818  1.2830
 9250TIP3   OH249164   6.240   6.489  13.982  0.0295 -0.2297 -0.6253
 9250TIP3    H149165   6.207   6.579  13.989 -0.5367 -0.3828 -1.2604
 9250TIP3    H249166   6.308   6.484  14.050  0.2876  0.7685 -0.7811
 9251TIP3   OH249167   6.045   6.629   4.831  0.2811 -0.0378 -0.6515
 9251TIP3    H149168   5.968   6.643   4.776  1.0341 -0.4962 -1.8514
 9251TIP3    H249169   6.056   6.711   4.879 -0.2657  0.4417 -1.3390
 9252TIP3   OH249170   2.886   3.831   0.894 -0.5234  0.4483 -0.4976
 9252TIP3    H149171   2.825   3.815   0.966 -1.0963  0.3336 -1.0002
 9252TIP3    H249172   2.836   3.884   0.831  0.6795  2.5367  0.2024
 9253TIP3   OH249173   5.242   1.104  16.326  0.6499 -0.2814  0.4592
 9253TIP3    H149174   5.307   1.169  16.352  0.1608 -0.1290  1.3481
 9253TIP3    H249175   5.248   1.100  16.231 -0.3550  2.2043  0.2159
 9254TIP3   OH249176   6.082   6.023   1.026 -0.6338 -0.3369  0.5317
 9254TIP3    H149177   6.054   6.085   1.094  0.9364  1.4771 -0.3816
 9254TIP3    H249178   6.064   6.068   0.944 -0.5473 -1.6049 -0.1972
 9255TIP3   OH249179   2.438   4.330   3.220 -0.3988  0.3276 -0.0660
 9255TIP3    H149180   2.383   4.252   3.216  1.2065 -0.9584  1.2777
 9255TIP3    H249181   2.493   4.324   3.142 -2.0706  1.6162 -1.4121
 9256TIP3   OH249182   0.394   1.830   6.702  0.5941 -0.2343 -0.0671
 9256TIP3    H149183   0.301   1.814   6.686  0.4557  0.6401 -0.1718
 9256TIP3    H249184   0.430   1.846   6.615  0.0674  3.3483  0.2314
 9257TIP3   OH249185   6.164   5.078  10.956 -1.0179  0.3321  0.4407
 9257TIP3    H149186   6.076   5.079  10.992 -1.9308  1.0171 -1.6731
 9257TIP3    H249187   6.169   4.996  10.907 -1.4387  1.4314 -1.5457
 9258TIP3   OH249188   5.304   3.263  16.588  0.0910  0.3648  0.4576
 9258TIP3    H149189   5.387   3.233  16.550 -0.3221  1.5425 -1.5520
 9258TIP3    H249190   5.252   3.183  16.598  0.8854 -0.2014  0.1701
 9259TIP3   OH249191   2.420   5.017  17.562 -0.2299  0.1086  0.6288
 9259TIP3    H149192   2.432   5.080  17.633 -1.1368  1.3519 -0.2917
 9259TIP3    H249193   2.480   4.945  17.584 -0.0608  0.7176  2.3351
 9260TIP3   OH249194   6.264   2.276  12.929  0.3471 -0.2802 -0.0253
 9260TIP3    H149195   6.231   2.361  12.899  1.9173  0.4894  0.3189
 9260TIP3    H249196   6.199   2.213  12.898 -0.3345  0.9324 -1.1860
 9261TIP3   OH249197   3.493   2.644  16.154  0.4167  0.1164 -0.7029
 9261TIP3    H149198   3.412   2.673  16.112  0.9672  0.5873 -1.4702
 9261TIP3    H249199   3.472   2.640  16.247 -0.6608 -0.3708 -0.9587
 9262TIP3   OH249200   4.952   1.803  16.739  0.0580  0.5642  0.0302
 9262TIP3    H149201   4.940   1.868  16.670 -2.0057 -1.1271 -1.3283
 9262TIP3    H249202   4.868   1.801  16.784 -0.6194 -2.3314 -1.1347
 9263TIP3   OH249203   2.487   1.463   5.658 -0.4021 -0.0489 -0.1497
 9263TIP3    H149204   2.570   1.441   5.699 -1.3399 -0.5512  1.5730
 9263TIP3    H249205   2.438   1.381   5.657 -0.1727 -0.2612 -3.0669
 9264TIP3   OH249206   6.146   6.404   5.999 -0.1033  0.3320 -0.3392
 9264TIP3    H149207   6.188   6.326   5.963  0.7570  0.2005  0.8938
 9264TIP3    H249208   6.218   6.456   6.033 -0.7900  1.0145  0.0913
 9265TIP3   OH249209   5.283   3.040   0.011  0.3415  0.4246 -0.2422
 9265TIP3    H149210   5.254   3.122  -0.028  0.2834  0.5955  0.1511
 9265TIP3    H249211   5.312   3.064   0.099  0.8808  0.1175 -0.3291
 9266TIP3   OH249212   2.905   2.942  14.623 -0.2771 -0.0176  0.1561
 9266TIP3    H149213   2.992   2.911  14.650  0.3141  0.8455 -0.6987
 9266TIP3    H249214   2.923   3.011  14.560 -1.5847  0.8945  0.7460
 9267TIP3   OH249215   0.907   3.374   0.599  0.1828 -0.7027 -1.0309
 9267TIP3    H149216   0.853   3.398   0.523 -0.0311  2.1356 -0.1008
 9267TIP3    H249217   0.988   3.341   0.560 -0.3023 -0.2519 -2.4984
 9268TIP3   OH249218   1.674   2.561  14.229 -0.3513  0.2536  0.0327
 9268TIP3    H149219   1.616   2.573  14.304  0.7486  2.1484  0.6305
 9268TIP3    H249220   1.698   2.649  14.203  1.3561 -0.4554 -0.9263
 9269TIP3   OH249221   4.556   1.975   1.454  0.2861  0.0628 -0.2481
 9269TIP3    H149222   4.462   1.958   1.463  0.3373 -0.3316 -0.4657
 9269TIP3    H249223   4.560   2.059   1.408  0.0335 -0.7365 -1.8080
 9270TIP3   OH249224   0.166   5.545  15.475  0.0932 -0.2201  0.5164
 9270TIP3    H149225   0.216   5.618  15.437  2.0631 -1.8943 -0.3177
 9270TIP3    H249226   0.117   5.509  15.401 -0.5453  0.0135  0.8293
 9271TIP3   OH249227   1.208   1.837  13.391 -0.2185  0.0641 -0.2912
 9271TIP3    H149228   1.208   1.744  13.370 -0.7437 -0.0200  0.0788
 9271TIP3    H249229   1.120   1.855  13.422 -0.5440  0.9943 -1.6744
 9272TIP3   OH249230   4.065   0.411  12.809  0.1603  0.0551 -0.4710
 9272TIP3    H149231   4.103   0.348  12.747  0.9065 -0.2462  0.2766
 9272TIP3    H249232   4.112   0.396  12.891  0.6504  1.8795 -0.3728
 9273TIP3   OH249233   5.864   6.690   2.878 -0.0093  0.0400  0.5423
 9273TIP3    H149234   5.938   6.736   2.918  1.2243 -1.8225  0.5770
 9273TIP3    H249235   5.797   6.688   2.946  0.3515  0.7962  0.9240
 9274TIP3   OH249236   2.101   3.464  14.924  0.0047 -0.3641  0.0014
 9274TIP3    H149237   2.084   3.498  15.011  2.7092  0.0143  0.4656
 9274TIP3    H249238   2.030   3.499  14.870 -0.7910  0.7700  1.7079
 9275TIP3   OH249239   2.292   1.500   3.260 -0.4369 -0.2797 -0.0073
 9275TIP3    H149240   2.259   1.507   3.171  2.0885 -1.1923 -1.0842
 9275TIP3    H249241   2.372   1.551   3.261  0.4664 -1.6364  1.2590
 9276TIP3   OH249242   1.323   3.809   0.518 -0.1010  0.0581 -0.2363
 9276TIP3    H149243   1.284   3.848   0.440 -0.9592 -0.6879 -0.2007
 9276TIP3    H249244   1.276   3.726   0.529 -1.4847  1.0532  2.2263
 9277TIP3   OH249245   2.534   6.636  16.116  0.2419 -0.0441  0.0370
 9277TIP3    H149246   2.567   6.715  16.158 -0.1473 -0.2885  0.8368
 9277TIP3    H249247   2.547   6.567  16.181 -0.8247 -0.3416 -0.0390
 9278TIP3   OH249248   2.259   4.673   0.145 -0.4675 -0.4348 -0.5489
 9278TIP3    H149249   2.346   4.671   0.105  0.7381 -0.4867  1.8814
 9278TIP3    H249250   2.271   4.631   0.231 -2.6171  0.6644  0.3708
 9279TIP3   OH249251   5.043   5.117   0.510  0.0999  0.0013  0.1112
 9279TIP3    H149252   5.105   5.186   0.535  0.9156 -0.3128 -0.9824
 9279TIP3    H249253   4.999   5.094   0.592  0.4003  1.2337  0.6481
 9280TIP3   OH249254   4.130   5.880  16.966 -0.4541 -0.0737 -0.1133
 9280TIP3    H149255   4.063   5.818  16.994 -0.6157 -0.5233 -1.4730
 9280TIP3    H249256   4.183   5.832  16.903 -0.7197  1.2042 -1.3680
 9281TIP3   OH249257   5.432   6.006   4.832  0.2927  0.1473  0.1542
 9281TIP3    H149258   5.464   6.037   4.917  0.1109 -0.8085  0.5918
 9281TIP3    H249259   5.389   5.923   4.852  0.9494 -0.4909 -0.9963
 9282TIP3   OH249260   1.876   2.115  14.348  0.1428 -0.3481  0.2608
 9282TIP3    H149261   1.875   2.020  14.362  0.2135 -0.6552 -1.4855
 9282TIP3    H249262   1.954   2.146  14.394  1.0290 -1.4108 -0.4649
 9283TIP3   OH249263   3.944   0.701  15.337 -0.0872 -0.0370  0.6425
 9283TIP3    H149264   3.870   0.749  15.298 -0.2690  0.1544  1.2118
 9283TIP3    H249265   4.020   0.755  15.319 -0.3427  0.6760  1.6078
 9284TIP3   OH249266   5.421   3.126  15.435  0.0293  0.6252  0.0689
 9284TIP3    H149267   5.386   3.060  15.374 -0.2422  0.3819  0.4795
 9284TIP3    H249268   5.352   3.193  15.440 -0.6791 -0.1455  1.3381
 9285TIP3   OH249269   5.397   2.638   4.714  0.0242 -0.3226 -0.6479
 9285TIP3    H149270   5.475   2.626   4.769  0.2685 -3.4952 -1.4969
 9285TIP3    H249271   5.331   2.674   4.774  1.6045  0.8164  0.5016
 9286TIP3   OH249272   4.850   5.092   3.996 -0.7753 -0.7673  0.2730
 9286TIP3    H149273   4.775   5.063   3.945 -0.7378  0.5754 -0.6049
 9286TIP3    H249274   4.868   5.181   3.963  1.4139 -1.1878  0.1744
 9287TIP3   OH249275   0.202   4.260   0.802 -0.0696  0.9241 -0.4588
 9287TIP3    H149276   0.126   4.258   0.861 -0.4275  1.1615 -0.9023
 9287TIP3    H249277   0.277   4.249   0.860 -0.5406 -1.5871 -0.2417
 9288TIP3   OH249278   1.271   3.806   4.645 -0.4988  0.3524 -0.3271
 9288TIP3    H149279   1.301   3.718   4.624  1.5597  0.7165  0.8102
 9288TIP3    H249280   1.312   3.861   4.578  1.6236  0.8628  1.2703
 9289TIP3   OH249281   2.628   0.209   1.804  0.2253  0.2324  0.6551
 9289TIP3    H149282   2.612   0.149   1.877  0.6804 -1.2850 -0.4626
 9289TIP3    H249283   2.548   0.261   1.798 -0.2566 -0.3890  1.5250
 9290TIP3   OH249284   2.298   6.494   2.291  0.1217 -0.0234  0.5946
 9290TIP3    H149285   2.369   6.435   2.317  0.8238  0.8777  0.7651
 9290TIP3    H249286   2.220   6.455   2.329  0.9194  0.5151  2.9595
 9291TIP3   OH249287   0.205   6.454  16.283  0.1439 -0.3005  0.0796
 9291TIP3    H149288   0.128   6.419  16.328  0.5740 -1.0731  0.2163
 9291TIP3    H249289   0.251   6.378  16.249  1.0960  0.1135  0.3859
 9292TIP3   OH249290   0.724   2.426   0.293  0.3119  0.1777  0.2906
 9292TIP3    H149291   0.736   2.429   0.388  1.0209 -0.1581  0.2203
 9292TIP3    H249292   0.675   2.506   0.273 -0.2719  0.0032  0.9905
 9293TIP3   OH249293   5.516   3.094   2.738  0.7636 -0.4390  0.2451
 9293TIP3    H149294   5.426   3.079   2.767  0.0527  0.2143 -1.5055
 9293TIP3    H249295   5.511   3.172   2.684  2.8044  0.9040  1.8609
 9294TIP3   OH249296   0.347   5.811   5.805  0.1077 -0.3929  0.0972
 9294TIP3    H149297   0.269   5.855   5.774 -1.1722 -1.9568  0.9247
 9294TIP3    H249298   0.377   5.864   5.879 -1.3623 -0.8023  1.0393
 9295TIP3   OH249299   5.192   0.024   4.361 -0.2360 -1.0333 -0.6205
 9295TIP3    H149300   5.137  -0.015   4.429 -1.4461  2.5653  0.6892
 9295TIP3    H249301   5.180  -0.033   4.285 -3.6201 -1.9390  0.4006
 9296TIP3   OH249302   5.110   2.024   0.554  0.5789  0.0697 -0.4623
 9296TIP3    H149303   5.110   2.120   0.549  1.0030  0.0952 -0.1167
 9296TIP3    H249304   5.197   2.003   0.589  0.2558 -0.4085  0.0704
 9297TIP3   OH249305   6.400   6.523   2.956 -0.3983 -0.2864  0.2050
 9297TIP3    H149306   6.359   6.565   2.881  0.8932  0.3835 -0.1542
 9297TIP3    H249307   6.429   6.438   2.922 -0.6697 -0.3851  0.2159
 9298TIP3   OH249308   2.582   0.818   0.446  0.4053  0.2675 -0.6608
 9298TIP3    H149309   2.662   0.866   0.464 -0.9063  1.7416  1.8657
 9298TIP3    H249310   2.517   0.856   0.506 -1.8827 -1.6686 -1.7212
 9299TIP3   OH249311   4.202   3.673  11.751  0.0985 -0.0331 -0.2330
 9299TIP3    H149312   4.131   3.714  11.702 -0.9764  0.3719  1.5783
 9299TIP3    H249313   4.163   3.594  11.789  0.3688  0.5818  1.4014
 9300TIP3   OH249314   3.677   4.233  14.533 -0.0420 -0.4143 -0.0753
 9300TIP3    H149315   3.618   4.178  14.586 -1.1444 -0.0936 -0.9214
 9300TIP3    H249316   3.763   4.219  14.571 -0.5018 -1.6910  0.5821
 9301TIP3   OH249317   2.188   2.390   6.559 -0.1079  0.0184 -0.0278
 9301TIP3    H149318   2.130   2.427   6.626 -2.5871 -0.4981 -1.7654
 9301TIP3    H249319   2.143   2.407   6.476  1.6347 -1.5621 -1.3749
 9302TIP3   OH249320   1.510   5.528   0.385 -0.3545 -0.2241 -0.1088
 9302TIP3    H149321   1.464   5.549   0.466 -1.1519  1.6834 -0.9814
 9302TIP3    H249322   1.603   5.526   0.410 -0.5859  0.3476  0.8448
 9303TIP3   OH249323   6.457   4.525   4.135  0.3790  0.1061 -0.1840
 9303TIP3    H149324   6.396   4.564   4.197 -1.8849 -1.9390 -0.9565
 9303TIP3    H249325   6.485   4.443   4.177 -0.3276 -0.7640 -1.3539
 9304TIP3   OH249326   5.390   4.257   4.795 -0.0700  0.2035 -0.3190
 9304TIP3    H149327   5.375   4.334   4.741  1.8049  0.4511 -0.5461
 9304TIP3    H249328   5.393   4.184   4.733  1.2619  0.3785 -0.4764
 9305TIP3   OH249329   4.418   4.575  13.892  0.5383  0.3532  0.4403
 9305TIP3    H149330   4.344   4.553  13.835  0.2703 -1.3133  1.3587
 9305TIP3    H249331   4.473   4.632  13.838 -0.4501  0.0553 -0.9533
 9306TIP3   OH249332   5.628   0.177  15.371 -0.3014 -0.0283 -0.6090
 9306TIP3    H149333   5.622   0.119  15.295  1.9259  0.2422 -1.0423
 9306TIP3    H249334   5.541   0.171  15.412 -0.6495 -2.4302 -1.5135
 9307TIP3   OH249335   1.401   3.173  15.340 -1.5260 -0.1424 -0.0230
 9307TIP3    H149336   1.330   3.111  15.323 -1.7470 -0.1990  1.0531
 9307TIP3    H249337   1.360   3.244  15.389 -0.3587 -1.5430  3.2550
 9308TIP3   OH249338   0.095   4.380  13.443  0.5390  0.4185 -0.1861
 9308TIP3    H149339   0.042   4.305  13.415 -0.3283  0.9780 -0.0552
 9308TIP3    H249340   0.183   4.361  13.408  0.5735 -1.1148  0.6365
 9309TIP3   OH249341   1.825   5.441   5.964  0.4084 -0.1649  0.1348
 9309TIP3    H149342   1.739   5.408   5.990  0.5549 -1.1939 -0.6091
 9309TIP3    H249343   1.814   5.536   5.960 -0.0444 -0.0706  2.2800
 9310TIP3   OH249344   0.391   3.149  12.454  0.0280 -0.7025  0.0417
 9310TIP3    H149345   0.367   3.148  12.362 -0.2883  1.7152  0.0490
 9310TIP3    H249346   0.481   3.116  12.456  0.6707  0.8261 -1.3794
 9311TIP3   OH249347   1.331   1.452  16.162  0.2547 -0.2517 -0.4182
 9311TIP3    H149348   1.379   1.466  16.244  0.3266 -0.8237 -0.3607
 9311TIP3    H249349   1.248   1.497  16.176  0.6259  0.4271 -0.3788
 9312TIP3   OH249350   3.805   5.877  16.602 -0.0368 -0.8180  0.3799
 9312TIP3    H149351   3.886   5.864  16.552 -1.3675 -1.9425 -1.6277
 9312TIP3    H249352   3.753   5.937  16.549 -1.6640 -2.3434  0.1776
 9313TIP3   OH249353   1.739   1.921   3.781 -0.5235 -0.1389  0.1164
 9313TIP3    H149354   1.776   1.835   3.803 -0.1690  0.1310  0.5961
 9313TIP3    H249355   1.672   1.902   3.715 -2.2103 -1.0726  2.0015
 9314TIP3   OH249356   3.724   4.822   6.102  0.2043  0.3830 -0.1323
 9314TIP3    H149357   3.790   4.753   6.107  0.5117  0.7268  0.8325
 9314TIP3    H249358   3.657   4.796   6.166 -0.2598  0.3955 -0.5991
 9315TIP3   OH249359   3.995   6.429  12.893 -0.0471 -0.0430 -0.4090
 9315TIP3    H149360   4.031   6.419  12.981  0.5358 -1.1149 -0.7593
 9315TIP3    H249361   4.065   6.470  12.842 -0.2312  0.1778 -0.4911
 9316TIP3   OH249362   2.385   5.150   0.441 -0.5400  0.3238  0.4199
 9316TIP3    H149363   2.398   5.128   0.349  0.1844  0.6260  0.4468
 9316TIP3    H249364   2.455   5.211   0.462  0.7684 -1.5290  1.7875
 9317TIP3   OH249365   2.572   1.134   0.220 -0.8254  0.4081  0.1392
 9317TIP3    H149366   2.638   1.083   0.267 -0.3926  0.7068 -0.1462
 9317TIP3    H249367   2.554   1.208   0.278 -0.6515  0.5172  0.0516
 9318TIP3   OH249368   4.015   5.221   1.495  0.1469 -0.3063 -0.3721
 9318TIP3    H149369   4.070   5.155   1.537 -1.0646 -1.5795 -0.6835
 9318TIP3    H249370   3.941   5.232   1.555 -1.3097 -1.7157 -1.7936
 9319TIP3   OH249371   4.264   6.404   3.678 -0.4523  0.4094 -0.1675
 9319TIP3    H149372   4.318   6.475   3.643 -2.1909  0.5735 -2.8191
 9319TIP3    H249373   4.193   6.448   3.723  0.1094  0.2572  0.8830
 9320TIP3   OH249374   4.653   1.929   1.720  0.0531 -0.1095 -0.1371
 9320TIP3    H149375   4.612   1.947   1.635 -1.2395  2.4004  0.9025
 9320TIP3    H249376   4.587   1.953   1.785  2.1671  1.5481  1.6099
 9321TIP3   OH249377   3.117   4.648  12.591 -0.0735 -0.4645 -0.6184
 9321TIP3    H149378   3.053   4.612  12.531  0.4898 -1.9299 -0.3721
 9321TIP3    H249379   3.065   4.699  12.654 -0.8881 -0.8512 -0.9696
 9322TIP3   OH249380   0.623   3.331   1.067 -0.0702 -0.2310  0.0843
 9322TIP3    H149381   0.606   3.322   0.973  1.3990  0.7162 -0.3000
 9322TIP3    H249382   0.714   3.358   1.073  0.2142 -1.4120  1.8639
 9323TIP3   OH249383   3.023   2.739  15.491 -0.2952  0.2047  0.9091
 9323TIP3    H149384   3.094   2.734  15.428 -0.4197  1.6558  0.6261
 9323TIP3    H249385   3.064   2.719  15.575  0.3244  0.4021  0.6571
 9324TIP3   OH249386   4.329   2.014   3.328  0.2108  0.1525  0.1924
 9324TIP3    H149387   4.264   2.033   3.260  0.8459 -0.0632 -0.4750
 9324TIP3    H249388   4.387   1.950   3.289  1.1281  0.7136  0.6106
 9325TIP3   OH249389   5.161   2.294   0.564  0.6403 -0.7806  0.4002
 9325TIP3    H149390   5.223   2.283   0.636 -0.7234 -0.1767  1.7292
 9325TIP3    H249391   5.109   2.370   0.590 -0.1150 -0.7744 -1.0704
 9326TIP3   OH249392   5.772   4.676   3.237  0.7481 -0.3770 -0.0150
 9326TIP3    H149393   5.698   4.657   3.180  0.6836  0.1022 -0.1006
 9326TIP3    H249394   5.828   4.599   3.230 -0.3691 -1.3292  1.0764
 9327TIP3   OH249395   2.587   4.278  11.620  0.3449 -0.2649 -0.7572
 9327TIP3    H149396   2.643   4.229  11.681 -0.9839 -2.8749 -1.4814
 9327TIP3    H249397   2.604   4.238  11.535 -1.2716  0.1143 -1.2811
 9328TIP3   OH249398   5.958   0.526  11.615  0.2881 -0.1191  0.9753
 9328TIP3    H149399   5.999   0.582  11.549 -1.7279  0.4553  0.1090
 9328TIP3    H249400   5.983   0.437  11.590 -0.8771  0.0291 -1.0139
 9329TIP3   OH249401   4.920   0.968   4.413 -0.2342  0.0580  0.0240
 9329TIP3    H149402   4.872   1.051   4.414  0.0479  0.2725  2.3410
 9329TIP3    H249403   4.852   0.901   4.421 -0.3267  0.1921  0.3612
 9330TIP3   OH249404   2.486   2.498  11.652  0.1710 -0.5692 -0.3361
 9330TIP3    H149405   2.485   2.443  11.574 -1.1726  0.1798 -0.8778
 9330TIP3    H249406   2.398   2.537  11.655 -0.3216 -1.6942  2.3576
 9331TIP3   OH249407   5.634   1.591   5.013 -0.0525 -0.0069  0.2164
 9331TIP3    H149408   5.657   1.671   4.965  1.0899 -0.1561  0.4708
 9331TIP3    H249409   5.693   1.524   4.977 -0.4491 -0.5437  0.5581
 9332TIP3   OH249410   4.016   5.428   6.024  0.1426 -0.4221  0.3028
 9332TIP3    H149411   4.109   5.411   6.012 -0.0681 -0.2557 -2.1242
 9332TIP3    H249412   4.013   5.503   6.084  1.8101  1.9205 -2.2744
 9333TIP3   OH249413   5.893   5.083  11.611  0.0642  0.2556  0.3037
 9333TIP3    H149414   5.944   5.073  11.530 -1.0683 -0.8429 -0.3069
 9333TIP3    H249415   5.879   5.177  11.619  2.8234  0.7161  0.9342
 9334TIP3   OH249416   1.688   3.896   0.856 -0.3586  0.2022 -0.3802
 9334TIP3    H149417   1.605   3.873   0.814  0.4589 -2.3304 -0.7849
 9334TIP3    H249418   1.748   3.828   0.827  1.8654  1.9169 -0.0110
 9335TIP3   OH249419   2.278   1.016  14.097  0.4495  0.1915  0.4436
 9335TIP3    H149420   2.312   0.955  14.031  0.7771  0.9584 -0.1004
 9335TIP3    H249421   2.217   1.072  14.050 -0.5411 -0.2760  1.1354
 9336TIP3   OH249422   6.267   0.539  13.863 -0.2048  0.4088 -0.6767
 9336TIP3    H149423   6.183   0.547  13.908  0.6264 -1.2174  1.3032
 9336TIP3    H249424   6.295   0.630  13.848 -0.2521  1.1283  2.7466
 9337TIP3   OH249425   4.829   1.560   3.081  0.5910  0.2117 -0.4455
 9337TIP3    H149426   4.801   1.483   3.031 -1.5039  1.1344 -0.7864
 9337TIP3    H249427   4.903   1.595   3.031  1.7343 -1.6581 -0.1667
 9338TIP3   OH249428   3.837   4.825  16.713 -0.1098 -0.1686  0.0488
 9338TIP3    H149429   3.925   4.837  16.748 -0.3768  0.5859  0.4766
 9338TIP3    H249430   3.780   4.826  16.791 -0.8501  2.7629 -0.4183
 9339TIP3   OH249431   3.751   0.850  13.831 -0.0742  0.5651 -0.1499
 9339TIP3    H149432   3.677   0.853  13.893 -0.1713 -0.4131 -0.2086
 9339TIP3    H249433   3.744   0.932  13.782  1.1748  2.3981  2.4414
 9340TIP3   OH249434   4.165   5.572  16.549  0.2330  0.4162  0.1925
 9340TIP3    H149435   4.241   5.564  16.491  0.9796  0.3267  1.1573
 9340TIP3    H249436   4.094   5.600  16.492  0.0743 -2.8055 -1.4178
 9341TIP3   OH249437   2.861   6.273   2.723 -0.4674  0.4268  0.4927
 9341TIP3    H149438   2.895   6.280   2.812  4.5469 -0.0221 -1.0550
 9341TIP3    H249439   2.868   6.362   2.688 -1.6470  0.4442  0.2627
 9342TIP3   OH249440   2.834   0.856  12.520  0.3488 -0.2082 -0.6526
 9342TIP3    H149441   2.785   0.785  12.479 -0.6716  0.1521 -0.1053
 9342TIP3    H249442   2.920   0.819  12.540 -0.3693 -1.4756  0.1919
 9343TIP3   OH249443   4.078   2.115   1.418 -0.5630 -0.5539  0.1851
 9343TIP3    H149444   4.137   2.150   1.351 -1.9081 -0.2603 -0.8950
 9343TIP3    H249445   4.044   2.192   1.463 -3.4489 -0.2780 -2.1270
 9344TIP3   OH249446   6.709   5.998   3.372  0.2370  0.1701  0.1052
 9344TIP3    H149447   6.792   5.955   3.393  0.0813 -0.6654 -0.8898
 9344TIP3    H249448   6.716   6.085   3.411  2.4120  0.8561 -1.6181
 9345TIP3   OH249449   2.753   0.621  15.105  0.0799 -0.6726 -0.3009
 9345TIP3    H149450   2.757   0.554  15.172 -1.3284 -1.3293 -0.8487
 9345TIP3    H249451   2.680   0.595  15.048  0.6126  0.3751 -1.5270
 9346TIP3   OH249452   1.406   2.250   3.167 -0.2339  0.0438 -0.7500
 9346TIP3    H149453   1.313   2.250   3.189 -0.2693  0.2918 -0.8989
 9346TIP3    H249454   1.447   2.302   3.236 -0.1608 -0.3411 -0.5008
 9347TIP3   OH249455   3.258   4.441  16.697 -0.1502 -0.4239 -0.0135
 9347TIP3    H149456   3.265   4.531  16.728 -2.1889  0.6897 -2.4318
 9347TIP3    H249457   3.246   4.389  16.777 -0.3014  1.5931  1.3524
 9348TIP3   OH249458   1.567   3.567   1.840  0.0787 -0.3001  0.5694
 9348TIP3    H149459   1.659   3.561   1.865 -0.1574 -1.6238  1.2275
 9348TIP3    H249460   1.528   3.486   1.873 -1.3044  0.1875  0.2070
 9349TIP3   OH249461   3.077   5.955  15.168 -0.5268  0.4214 -0.5049
 9349TIP3    H149462   3.065   5.895  15.241  3.5048  0.0184 -0.0015
 9349TIP3    H249463   3.070   5.900  15.090  0.2550 -0.1349 -0.1825
 9350TIP3   OH249464   4.998   3.828  13.419  0.0951 -0.1740  0.0177
 9350TIP3    H149465   5.019   3.785  13.502 -1.8866  2.7344  2.1831
 9350TIP3    H249466   5.032   3.917  13.428  0.2355  0.1050 -2.5246
 9351TIP3   OH249467   0.211   1.165   1.878  0.4115  0.3984 -0.2693
 9351TIP3    H149468   0.158   1.185   1.955 -1.4120  0.3193 -1.4419
 9351TIP3    H249469   0.301   1.185   1.905 -0.3278  1.7400  1.4005
 9352TIP3   OH249470   3.496   3.070   6.188 -0.1863  0.1993  0.2991
 9352TIP3    H149471   3.483   2.976   6.198 -0.5269  0.2675  0.5074
 9352TIP3    H249472   3.556   3.093   6.259  1.1490 -0.1219 -0.6855
 9353TIP3   OH249473   3.523   4.247  15.950 -0.3770 -0.5307  0.1382
 9353TIP3    H149474   3.446   4.191  15.946 -1.4890  0.9574 -0.3997
 9353TIP3    H249475   3.556   4.250  15.860 -0.4480 -0.1863  0.1195
 9354TIP3   OH249476   5.647   2.230  10.748  0.3517  0.2297  0.0731
 9354TIP3    H149477   5.681   2.241  10.837  0.3624 -2.0520  0.4064
 9354TIP3    H249478   5.634   2.136  10.738 -0.3477  0.4875 -2.1072
 9355TIP3   OH249479   0.176   0.874  17.419  0.3536 -0.0689 -0.3728
 9355TIP3    H149480   0.224   0.888  17.337 -0.5652 -0.2523 -0.9438
 9355TIP3    H249481   0.084   0.873  17.394  0.0914 -0.8991  0.5495
 9356TIP3   OH249482   3.553   3.459   5.073 -0.0033 -0.2195 -0.2185
 9356TIP3    H149483   3.616   3.507   5.126  2.1471 -1.2925 -1.6335
 9356TIP3    H249484   3.532   3.381   5.125 -1.1410  0.7207  0.7736
 9357TIP3   OH249485   2.169   3.514  17.483 -0.5973  0.2912 -0.2086
 9357TIP3    H149486   2.211   3.551  17.560 -0.5705  0.5026 -0.3242
 9357TIP3    H249487   2.080   3.551  17.484 -0.7501 -0.0707 -0.0211
 9358TIP3   OH249488   2.296   0.266   1.282 -0.0377 -1.0033 -0.2767
 9358TIP3    H149489   2.203   0.286   1.284 -0.1082 -1.3207  1.3993
 9358TIP3    H249490   2.301   0.179   1.241 -0.1675  0.1414 -2.9426
 9359TIP3   OH249491   3.705   3.097  15.394 -0.3287  0.5025 -0.2838
 9359TIP3    H149492   3.758   3.088  15.473 -1.9810 -0.6494  0.7624
 9359TIP3    H249493   3.713   3.012  15.350 -0.3385  0.7424 -0.7538
 9360TIP3   OH249494   3.246   6.603   2.714 -0.7996 -0.8678 -0.9900
 9360TIP3    H149495   3.323   6.547   2.727 -0.7166 -0.9982 -1.9930
 9360TIP3    H249496   3.225   6.594   2.622 -0.8916  0.6129 -1.1453
 9361TIP3   OH249497   3.757   3.029   5.553 -0.2457 -0.5781 -0.3211
 9361TIP3    H149498   3.818   3.083   5.503 -1.2817  0.3719 -0.6143
 9361TIP3    H249499   3.796   2.942   5.553  1.6902  0.2233  0.5101
 9362TIP3   OH249500   5.797   0.329  12.606  0.4762  0.2171  0.1016
 9362TIP3    H149501   5.856   0.345  12.532 -0.6322 -1.4190 -1.2066
 9362TIP3    H249502   5.854   0.333  12.683  2.3708 -1.3269 -1.1151
 9363TIP3   OH249503   3.449   5.366  14.921  0.1729  0.4042  0.2774
 9363TIP3    H149504   3.503   5.445  14.916  1.3100 -0.3229  0.7339
 9363TIP3    H249505   3.486   5.307  14.856  0.7706 -0.5779  1.4591
 9364TIP3   OH249506   0.746   1.585   0.759  0.1454 -0.0113 -0.4335
 9364TIP3    H149507   0.759   1.504   0.808  0.0915  0.2241 -0.0270
 9364TIP3    H249508   0.741   1.653   0.826  3.6321  0.8372 -0.8827
 9365TIP3   OH249509   2.780   1.014   2.147 -0.3742 -0.0266 -0.4233
 9365TIP3    H149510   2.756   1.081   2.082 -0.3918  0.3690 -0.0123
 9365TIP3    H249511   2.826   0.948   2.096  2.9324  1.9834 -0.3406
 9366TIP3   OH249512   4.680   1.810   2.901 -0.0543  0.8276  0.1179
 9366TIP3    H149513   4.690   1.851   2.987 -0.0339  1.9357 -0.3966
 9366TIP3    H249514   4.745   1.740   2.900 -0.1241  0.7347  1.0391
 9367TIP3   OH249515   0.150   4.491  16.838 -0.7438 -0.0015 -0.3324
 9367TIP3    H149516   0.107   4.473  16.922  0.1547  0.2989  0.2105
 9367TIP3    H249517   0.208   4.565  16.856 -0.5391  0.0680 -1.2243
 9368TIP3   OH249518   0.037   5.130   3.180 -0.3797  0.1498  0.1697
 9368TIP3    H149519   0.077   5.215   3.199 -0.4869  0.3154 -0.3279
 9368TIP3    H249520  -0.056   5.143   3.196 -0.1409 -0.5283  2.3495
 9369TIP3   OH249521   3.308   4.357   0.597  0.1073 -0.0091  0.5548
 9369TIP3    H149522   3.242   4.338   0.530  0.3554 -1.8946  0.7777
 9369TIP3    H249523   3.266   4.334   0.680  1.5110 -3.0286  0.5845
 9370TIP3   OH249524   1.145   6.220  15.355 -0.2267  0.1381  0.5645
 9370TIP3    H149525   1.147   6.294  15.294  0.7684 -0.2567  0.0760
 9370TIP3    H249526   1.165   6.258  15.440 -2.8681  0.8918  0.9223
 9371TIP3   OH249527   2.531   2.903   1.687  0.4613 -0.0239 -0.0280
 9371TIP3    H149528   2.621   2.873   1.679  0.5018 -0.0482  0.4760
 9371TIP3    H249529   2.519   2.963   1.613  0.6536 -0.5927 -0.5283
 9372TIP3   OH249530   0.737   3.031  10.837  0.5020 -0.0446 -0.0613
 9372TIP3    H149531   0.754   3.100  10.772  2.1472 -1.3918 -1.1405
 9372TIP3    H249532   0.730   3.078  10.920 -0.7960  1.6441 -1.0518
 9373TIP3   OH249533   5.918   3.149  12.828  0.2953  0.4133  0.1175
 9373TIP3    H149534   5.896   3.202  12.752 -0.6157 -0.9396 -0.5966
 9373TIP3    H249535   5.836   3.146  12.879  0.7063  0.7395  0.8184
 9374TIP3   OH249536   3.352   5.605   0.456  0.2707 -0.3677 -0.0344
 9374TIP3    H149537   3.435   5.561   0.473  1.0803  0.9329 -0.5504
 9374TIP3    H249538   3.332   5.652   0.537 -0.0808 -0.8365  0.1590
 9375TIP3   OH249539   0.278   6.157   0.970  0.2024  0.0134 -0.2069
 9375TIP3    H149540   0.370   6.170   0.992 -0.1484  1.3648  0.5881
 9375TIP3    H249541   0.242   6.112   1.047  0.0763 -0.0262 -0.2889
 9376TIP3   OH249542   4.944   0.655  10.818 -0.0514  0.0139 -0.3124
 9376TIP3    H149543   4.976   0.571  10.851 -0.3450 -0.9101 -2.2273
 9376TIP3    H249544   4.855   0.662  10.852  0.1556 -0.1791  0.2882
 9377TIP3   OH249545   5.254   5.135   0.064  0.4153 -0.7283  0.3237
 9377TIP3    H149546   5.295   5.221   0.061  1.5128 -1.2441 -2.4650
 9377TIP3    H249547   5.227   5.124   0.155  1.0812  2.1439  0.9503
 9378TIP3   OH249548   1.241   2.737   1.031 -0.1540 -0.1463 -0.4816
 9378TIP3    H149549   1.186   2.688   0.970  0.2919  0.2236 -1.2039
 9378TIP3    H249550   1.204   2.825   1.031 -0.3865 -0.2394  0.0903
 9379TIP3   OH249551   3.039   5.344   4.425  0.2392  0.0396  0.1479
 9379TIP3    H149552   2.982   5.272   4.452 -1.8586  2.2453  2.1081
 9379TIP3    H249553   3.089   5.367   4.503  1.4547  0.2513 -0.6592
 9380TIP3   OH249554   3.428   3.126   2.230  0.2235  0.5557  0.2490
 9380TIP3    H149555   3.373   3.196   2.264 -0.8356  0.4637 -1.1844
 9380TIP3    H249556   3.432   3.143   2.136  1.5185 -0.2453  0.1383
 9381TIP3   OH249557   5.631   5.420  12.200 -0.8808  0.7334  0.6478
 9381TIP3    H149558   5.556   5.417  12.259 -1.0639  1.7098  0.4849
 9381TIP3    H249559   5.654   5.513  12.195  0.1544  0.4820  0.4625
 9382TIP3   OH249560   6.193   0.606  17.257 -0.3806  0.1495  0.5339
 9382TIP3    H149561   6.116   0.575  17.209 -0.6192 -0.0946  1.0659
 9382TIP3    H249562   6.267   0.562  17.215 -0.4694  0.7962 -0.3290
 9383TIP3   OH249563   5.433   6.428   6.401  0.4225  0.8217  0.5473
 9383TIP3    H149564   5.341   6.421   6.424  0.4939 -0.3603  0.4939
 9383TIP3    H249565   5.457   6.518   6.426 -0.3836  0.7008  1.8367
 9384TIP3   OH249566   2.801   2.610   0.502 -0.4666  0.1473 -0.0907
 9384TIP3    H149567   2.804   2.543   0.570  0.6008  1.2786  1.0404
 9384TIP3    H249568   2.764   2.566   0.426  0.3165 -1.7431  0.5714
 9385TIP3   OH249569   6.427   2.647  13.478 -0.0486  0.1529 -0.3904
 9385TIP3    H149570   6.500   2.652  13.418 -1.2538 -2.0776 -2.2162
 9385TIP3    H249571   6.354   2.614  13.425 -1.8156  0.3028  1.7813
 9386TIP3   OH249572   1.028   4.055  12.645 -0.0620 -0.1513 -0.1145
 9386TIP3    H149573   1.106   4.020  12.603  2.2340  2.6337  1.5000
 9386TIP3    H249574   0.990   4.114  12.580  0.0433 -0.3269 -0.3373
 9387TIP3   OH249575   2.487   4.467   5.879 -0.4888  0.6443  0.2304
 9387TIP3    H149576   2.415   4.439   5.824 -1.8218  1.4582  1.4876
 9387TIP3    H249577   2.475   4.562   5.889  1.5542  1.0527 -0.6273
 9388TIP3   OH249578   4.477   6.021   4.406  0.0827 -0.2237 -0.2146
 9388TIP3    H149579   4.507   6.094   4.461 -1.4407 -0.3006  0.7634
 9388TIP3    H249580   4.428   6.062   4.335  0.2905 -0.2354 -0.3664
 9389TIP3   OH249581   0.285   6.069  16.821 -0.1671 -0.1072  0.1032
 9389TIP3    H149582   0.200   6.053  16.864 -1.2367 -0.9881 -2.2051
 9389TIP3    H249583   0.267   6.138  16.758  1.2781  0.8615  0.6892
 9390TIP3   OH249584   1.337   4.889  14.948 -0.5876  0.2366  0.3390
 9390TIP3    H149585   1.372   4.960  14.893 -1.5551  1.3194  1.0827
 9390TIP3    H249586   1.396   4.887  15.023  0.6326 -1.1288 -0.5949
 9391TIP3   OH249587   2.675   3.774  17.614  0.2939 -0.3103  0.5937
 9391TIP3    H149588   2.757   3.809  17.578 -1.2721  2.1753 -0.8510
 9391TIP3    H249589   2.648   3.707  17.551  0.5884 -0.2311  0.3774
 9392TIP3   OH249590   0.601   0.746   1.729 -0.0557  0.3691 -0.1064
 9392TIP3    H149591   0.513   0.714   1.709  0.3027  0.1630 -1.4164
 9392TIP3    H249592   0.627   0.695   1.806 -2.1275  2.4024  2.1200
 9393TIP3   OH249593   3.925   0.839  17.469 -0.5148 -0.0799 -0.4668
 9393TIP3    H149594   3.841   0.798  17.490 -1.4600  1.4979 -1.0167
 9393TIP3    H249595   3.934   0.910  17.532 -0.3109  0.6781 -1.3181
 9394TIP3   OH249596   6.066   6.670   2.325  0.4844  0.2474  0.1561
 9394TIP3    H149597   6.017   6.595   2.292  0.6122  1.2570 -2.6668
 9394TIP3    H249598   6.000   6.729   2.362 -0.0067  0.0703 -0.4353
 9395TIP3   OH249599   2.641   1.824  13.774  0.0436 -0.5806 -0.3457
 9395TIP3    H149600   2.583   1.897  13.754  0.2467 -0.4180 -0.3428
 9395TIP3    H249601   2.682   1.848  13.858 -0.1721 -0.8704 -0.1560
 9396TIP3   OH249602   2.977   4.333  16.326 -0.0949  0.3577 -0.1115
 9396TIP3    H149603   3.041   4.402  16.311  0.6881 -0.5117 -0.8435
 9396TIP3    H249604   2.924   4.331  16.246  1.3479 -1.3940 -1.0897
 9397TIP3   OH249605   5.723   4.484   2.042  0.5024 -0.2100 -0.3246
 9397TIP3    H149606   5.689   4.570   2.015 -0.2591  0.0135  1.2639
 9397TIP3    H249607   5.800   4.505   2.095  0.5188 -0.5195 -0.2248
 9398TIP3   OH249608   5.113   5.056  12.498 -0.0321 -0.4418 -0.3218
 9398TIP3    H149609   5.137   4.983  12.441 -1.8842 -0.1257 -1.5989
 9398TIP3    H249610   5.085   5.125  12.438  0.3207  0.8198  0.9194
 9399TIP3   OH249611   1.232   3.136  11.150  0.2017  0.5092  0.1189
 9399TIP3    H149612   1.298   3.198  11.118  0.5561  1.0092  1.6984
 9399TIP3    H249613   1.198   3.177  11.229 -1.3644 -0.1830 -0.1648
 9400TIP3   OH249614   2.650   0.704   2.852 -0.1039 -0.1619 -0.2427
 9400TIP3    H149615   2.621   0.614   2.870 -0.2011 -0.0592  0.1392
 9400TIP3    H249616   2.653   0.710   2.757  1.9716 -1.2387 -0.3169
 9401TIP3   OH249617   4.402   0.153  16.407 -0.2145 -0.1329  0.9642
 9401TIP3    H149618   4.451   0.106  16.475 -0.6390 -0.7842  0.8255
 9401TIP3    H249619   4.330   0.195  16.453 -1.3912 -1.8016  0.7443
 9402TIP3   OH249620   6.062   6.440   5.483  0.1588 -0.2159 -0.1991
 9402TIP3    H149621   6.050   6.473   5.572  0.9904  0.6623 -0.3880
 9402TIP3    H249622   6.043   6.347   5.489  0.9882 -0.3291  1.0896
 9403TIP3   OH249623   5.378   1.138   3.244  0.3653 -0.4931  0.2939
 9403TIP3    H149624   5.473   1.141   3.229  0.2163  0.4686 -0.5004
 9403TIP3    H249625   5.340   1.159   3.159 -0.5879 -2.0948  0.2897
 9404TIP3   OH249626   6.625   3.522   0.316  0.2181  0.1280  0.0667
 9404TIP3    H149627   6.586   3.568   0.241 -1.4734 -0.5854  0.4712
 9404TIP3    H249628   6.556   3.522   0.382  0.9054 -1.2294  0.8120
 9405TIP3   OH249629   0.055   1.427   3.332 -0.2066  0.1553  0.3531
 9405TIP3    H149630  -0.020   1.373   3.304  0.8651 -1.3248  0.2211
 9405TIP3    H249631   0.051   1.504   3.276  0.9688 -1.9972 -3.0064
 9406TIP3   OH249632   2.794   0.715   4.675  0.0094 -0.4183 -0.0461
 9406TIP3    H149633   2.785   0.620   4.671  1.3996 -0.5419 -1.1919
 9406TIP3    H249634   2.787   0.743   4.583 -1.3376  0.6967  0.3699
 9407TIP3   OH249635   6.136   5.241  12.269  0.0446 -0.2417  0.0774
 9407TIP3    H149636   6.041   5.233  12.276 -0.0771  0.7340 -0.3851
 9407TIP3    H249637   6.156   5.216  12.179 -0.0681  1.9588 -0.6079
 9408TIP3   OH249638   4.869   6.673  12.476  0.4985 -0.2496  0.3855
 9408TIP3    H149639   4.830   6.619  12.408  0.1258  0.2309  0.2100
 9408TIP3    H249640   4.962   6.651  12.473  0.4838 -0.2500 -0.2665
 9409TIP3   OH249641   5.794   4.933  13.323  0.2579 -0.4208  0.1579
 9409TIP3    H149642   5.857   4.965  13.259  0.5046 -0.3896  0.4131
 9409TIP3    H249643   5.722   4.996  13.319  1.2724  0.9334  1.5387
 9410TIP3   OH249644   4.237   3.937  11.257  0.0131 -0.0422 -0.1926
 9410TIP3    H149645   4.180   3.995  11.207 -1.4055 -0.9419  0.3235
 9410TIP3    H249646   4.291   3.892  11.191  2.7725  3.3477 -0.5317
 9411TIP3   OH249647   5.588   5.917   2.170  0.1026  0.0801 -0.3048
 9411TIP3    H149648   5.581   6.012   2.161  1.2961  0.2024 -0.0646
 9411TIP3    H249649   5.543   5.898   2.253 -1.6216  0.2065 -1.1613
 9412TIP3   OH249650   3.622   1.286  16.627 -0.2684  0.3833  0.2217
 9412TIP3    H149651   3.664   1.225  16.567  0.0116  2.0292 -1.3608
 9412TIP3    H249652   3.686   1.357  16.638 -0.6666  0.5417  1.7947
 9413TIP3   OH249653   4.274   0.960   6.650  0.1252 -0.7422  0.2136
 9413TIP3    H149654   4.303   1.000   6.732  3.0819 -1.4438 -0.3760
 9413TIP3    H249655   4.264   0.867   6.670 -2.6002 -0.4655  0.5387
 9414TIP3   OH249656   3.091   0.143  11.852 -0.3242 -0.6017  0.3803
 9414TIP3    H149657   3.027   0.135  11.922 -0.3000  1.0880  0.6343
 9414TIP3    H249658   3.049   0.197  11.786  0.3672 -0.5264 -0.0137
 9415TIP3   OH249659   4.995   2.792   5.728  0.7901 -0.2389  0.2772
 9415TIP3    H149660   5.037   2.812   5.644  2.3676 -3.2890  0.1866
 9415TIP3    H249661   4.918   2.739   5.704  0.2592  0.3345  0.6965
 9416TIP3   OH249662   3.638   1.528   0.157 -0.2916  0.0137 -0.2834
 9416TIP3    H149663   3.648   1.597   0.091 -1.6709 -0.7774 -1.3743
 9416TIP3    H249664   3.552   1.543   0.195  0.1066 -0.1064  0.6909
 9417TIP3   OH249665   0.321   4.944   0.765  0.4667  0.2278 -0.4680
 9417TIP3    H149666   0.328   4.853   0.737  1.4258  0.0548  0.3015
 9417TIP3    H249667   0.384   4.953   0.836 -0.8328  1.0353  0.6525
 9418TIP3   OH249668   6.005   3.098  14.245  0.0244  0.1804 -0.2117
 9418TIP3    H149669   5.945   3.058  14.308 -1.8244  1.6750 -0.9297
 9418TIP3    H249670   5.956   3.101  14.163  0.6081  2.4851 -0.5583
 9419TIP3   OH249671   5.065   5.824   3.496  0.1652 -0.0750 -0.0938
 9419TIP3    H149672   5.067   5.919   3.485 -0.8072 -0.2117 -1.8925
 9419TIP3    H249673   5.001   5.794   3.431  0.2532 -1.9392  0.6219
 9420TIP3   OH249674   0.528   4.360  14.217  0.1548  0.8099  0.5343
 9420TIP3    H149675   0.438   4.381  14.241 -0.5240 -0.9111 -0.3595
 9420TIP3    H249676   0.520   4.302  14.141  1.9683 -0.2669  1.1036
 9421TIP3   OH249677   5.556   5.228  12.009 -0.5604  0.0853 -0.2201
 9421TIP3    H149678   5.578   5.301  12.067  0.5398 -1.2155  1.0788
 9421TIP3    H249679   5.462   5.239  11.992 -1.7048 -0.9291  4.1142
 9422TIP3   OH249680   4.728   0.514   4.960 -0.6041 -0.1526  0.3365
 9422TIP3    H149681   4.692   0.595   4.995  0.3958 -0.5797  2.5741
 9422TIP3    H249682   4.801   0.493   5.018  0.0606 -1.9121 -1.0281
 9423TIP3   OH249683   5.866   5.264  12.258  0.2214 -0.5055  0.2721
 9423TIP3    H149684   5.849   5.193  12.196  0.6549 -0.0346 -0.4085
 9423TIP3    H249685   5.791   5.323  12.248  0.2708 -0.4508  0.2217
 9424TIP3   OH249686   4.956   0.436   6.674 -0.1125  0.0768  0.4781
 9424TIP3    H149687   4.953   0.368   6.741  0.2745 -0.5564 -0.1291
 9424TIP3    H249688   4.868   0.472   6.672 -0.3703 -0.5250  0.6981
 9425TIP3   OH249689   1.869   6.562   1.245  0.2268  0.1124 -0.5473
 9425TIP3    H149690   1.783   6.588   1.211 -0.5050 -2.3872 -0.8677
 9425TIP3    H249691   1.853   6.544   1.337  0.7295  0.8887 -0.3068
 9426TIP3   OH249692   4.424   6.346  13.746 -0.2713 -0.8226 -0.0974
 9426TIP3    H149693   4.502   6.291  13.757  1.0722  0.9573 -0.2076
 9426TIP3    H249694   4.410   6.350  13.652  1.9152  1.8820 -0.4399
 9427TIP3   OH249695   4.421   0.088  14.922  0.3320  0.4200 -0.0399
 9427TIP3    H149696   4.335   0.123  14.946  0.8784 -0.2753  3.5123
 9427TIP3    H249697   4.477   0.165  14.914 -0.1521  0.7523 -0.2893
 9428TIP3   OH249698   3.250   5.688  16.518 -0.0446 -0.1752  0.3067
 9428TIP3    H149699   3.236   5.732  16.602 -0.7788 -1.2438  0.7685
 9428TIP3    H249700   3.270   5.597  16.542 -1.2800 -0.7408 -0.6864
 9429TIP3   OH249701   1.821   3.758   5.955  0.1552 -0.3410  0.3299
 9429TIP3    H149702   1.741   3.735   5.907  0.6767 -1.1578 -0.1628
 9429TIP3    H249703   1.823   3.697   6.029  2.0293 -2.6977 -1.4937
 9430TIP3   OH249704   2.787   1.547  15.888  0.7349 -0.4400  0.1374
 9430TIP3    H149705   2.883   1.551  15.887  0.7451 -0.6001 -1.0117
 9430TIP3    H249706   2.764   1.507  15.804 -0.3110 -1.3125  0.8218
 9431TIP3   OH249707   2.654   2.863   0.515 -0.4426  0.1264 -0.3656
 9431TIP3    H149708   2.718   2.905   0.457 -0.7348 -0.8582 -1.4282
 9431TIP3    H249709   2.698   2.785   0.548 -0.4083  0.4897  0.4902
 9432TIP3   OH249710   2.769   3.402  11.299 -0.1311  0.1818 -0.2272
 9432TIP3    H149711   2.779   3.493  11.269  0.5841  0.0939 -0.2657
 9432TIP3    H249712   2.681   3.399  11.335  0.5549  1.4603  1.6967
 9433TIP3   OH249713   3.510   1.163   2.323 -0.5579  0.2002 -0.1626
 9433TIP3    H149714   3.523   1.168   2.418 -2.6149 -0.3360  0.2005
 9433TIP3    H249715   3.576   1.101   2.293 -1.3443 -1.4607  1.3131
 9434TIP3   OH249716   2.401   2.798  15.174  0.2738  0.3821 -0.4840
 9434TIP3    H149717   2.416   2.728  15.112  1.3731 -1.8228  2.0541
 9434TIP3    H249718   2.486   2.841  15.183 -0.6291  2.9588 -2.8523
 9435TIP3   OH249719   6.575   0.796  14.883 -0.1265 -0.0301  0.1066
 9435TIP3    H149720   6.595   0.888  14.867 -3.4093  0.8640  0.3277
 9435TIP3    H249721   6.660   0.752  14.886  1.5565  3.0170  0.2710
 9436TIP3   OH249722   0.586   5.492  14.207  0.3299  0.4302 -0.0404
 9436TIP3    H149723   0.546   5.447  14.281  0.6951 -1.3692 -0.8867
 9436TIP3    H249724   0.622   5.573  14.245 -0.8316  0.3025  1.4149
 9437TIP3   OH249725   1.669   5.512  11.517 -0.0941  0.0163 -0.5608
 9437TIP3    H149726   1.658   5.556  11.432 -2.4767  1.1197  0.2342
 9437TIP3    H249727   1.624   5.428  11.507  1.5203 -0.8373 -1.0146
 9438TIP3   OH249728   4.273   0.347   4.645 -0.1159 -0.2891 -0.0215
 9438TIP3    H149729   4.351   0.292   4.635 -0.8117 -1.4631  0.7311
 9438TIP3    H249730   4.286   0.419   4.584  0.9377 -1.1759 -0.8791
 9439TIP3   OH249731   3.485   6.053  14.436 -0.8198  0.8826  0.3844
 9439TIP3    H149732   3.559   6.043  14.497 -0.4547 -1.1590 -0.3180
 9439TIP3    H249733   3.522   6.101  14.362 -0.7494  1.6210  0.8799
 9440TIP3   OH249734   1.389   4.894  16.345 -0.3701  0.7394  0.1620
 9440TIP3    H149735   1.386   4.798  16.342 -0.0124  0.7379 -2.1215
 9440TIP3    H249736   1.350   4.917  16.429  0.1896 -1.4247  1.0722
 9441TIP3   OH249737   3.338   4.048  15.396  0.2625 -0.0766  0.3403
 9441TIP3    H149738   3.291   4.003  15.466 -1.5967  0.5286 -0.4584
 9441TIP3    H249739   3.377   3.977  15.344  1.8655 -0.5272  2.0438
 9442TIP3   OH249740   2.107   1.550  14.054 -0.0044 -0.5407  0.1437
 9442TIP3    H149741   2.160   1.471  14.071  3.0291  1.1527 -0.7200
 9442TIP3    H249742   2.142   1.616  14.113 -1.1301  0.7276 -0.5501
 9443TIP3   OH249743   1.206   1.913  13.687 -0.2117 -0.1102  0.2109
 9443TIP3    H149744   1.137   1.895  13.623  0.9579 -0.1821 -1.0694
 9443TIP3    H249745   1.257   1.832  13.690 -0.2300 -0.0931  1.2208
 9444TIP3   OH249746   5.060   5.943   3.912 -0.7162  0.8717 -0.0457
 9444TIP3    H149747   5.047   6.036   3.930 -0.3244  1.1770 -1.2103
 9444TIP3    H249748   5.121   5.942   3.838 -1.0851 -0.2992 -0.3492
 9445TIP3   OH249749   3.649   4.601  15.446 -0.2986  0.0557  0.0636
 9445TIP3    H149750   3.742   4.603  15.467 -0.4221  3.0531  0.7856
 9445TIP3    H249751   3.645   4.613  15.351  0.0670  1.7325  0.2370
 9446TIP3   OH249752   5.020   6.198  12.624 -0.5108  0.3874  0.5848
 9446TIP3    H149753   4.941   6.164  12.666 -0.9117  2.6870  1.8785
 9446TIP3    H249754   5.083   6.126  12.627 -2.3317 -1.3110  0.0644
 9447TIP3   OH249755   4.054   0.174   2.449 -0.2385  0.0828 -0.2450
 9447TIP3    H149756   4.030   0.149   2.360  0.9925 -0.1667 -0.5239
 9447TIP3    H249757   4.063   0.091   2.496 -0.3419  0.1943 -0.0250
 9448TIP3   OH249758   3.744   2.599  13.323  0.5062 -0.3540 -1.0196
 9448TIP3    H149759   3.752   2.509  13.291 -0.1478  0.0582 -2.4226
 9448TIP3    H249760   3.822   2.644  13.290  1.0856 -0.5051  0.0995
 9449TIP3   OH249761   0.418   5.843   4.688 -0.3503  0.4224 -0.0421
 9449TIP3    H149762   0.447   5.899   4.616  0.0718 -0.9242 -0.9640
 9449TIP3    H249763   0.324   5.829   4.671 -0.6468  1.4686  0.6434
 9450TIP3   OH249764   2.929   5.796  16.455  0.0627  0.8917 -0.0189
 9450TIP3    H149765   2.976   5.879  16.445 -0.1351  0.8590 -1.3726
 9450TIP3    H249766   2.990   5.730  16.423 -0.2933  0.6655 -0.2383
 9451TIP3   OH249767   2.669   6.040   3.468 -0.8255 -0.1537 -0.4144
 9451TIP3    H149768   2.622   6.018   3.388 -1.6319  2.7916 -0.8586
 9451TIP3    H249769   2.739   6.098   3.440 -1.1222  0.9471  1.0094
 9452TIP3   OH249770   2.061   4.555  12.116  0.0732 -0.8259  0.5309
 9452TIP3    H149771   2.054   4.551  12.212  2.0108  0.5713  0.7967
 9452TIP3    H249772   2.048   4.648  12.095  1.0402 -0.8824 -0.3997
 9453TIP3   OH249773   1.195   0.898  13.522 -0.2590  0.0641 -0.1751
 9453TIP3    H149774   1.186   0.888  13.617  1.5147  2.8131  0.3964
 9453TIP3    H249775   1.283   0.934  13.509 -0.9510  1.0919 -2.7367
 9454TIP3   OH249776   5.110   2.191  13.266 -0.1959 -0.7217 -0.0412
 9454TIP3    H149777   5.081   2.281  13.250 -1.2187 -0.3949  2.9924
 9454TIP3    H249778   5.206   2.195  13.259 -0.2884  0.3214 -1.0211
 9455TIP3   OH249779   3.055   4.041   2.607 -0.1549 -0.2654  0.3898
 9455TIP3    H149780   3.059   4.128   2.567  0.2285 -0.5295 -0.1515
 9455TIP3    H249781   3.143   4.006   2.597  0.2018 -0.0018  2.2563
 9456TIP3   OH249782   0.021   6.217   2.756 -0.1902 -0.4028  0.1756
 9456TIP3    H149783   0.066   6.300   2.772 -2.4440  0.5319  2.2964
 9456TIP3    H249784   0.065   6.180   2.680  2.0284  1.8907  0.2102
 9457TIP3   OH249785   5.430   0.075  13.229  0.3280 -0.4331  0.0059
 9457TIP3    H149786   5.365   0.048  13.294  0.1530 -0.3000 -0.1134
 9457TIP3    H249787   5.510   0.086  13.280  1.0946 -3.7009 -0.3064
 9458TIP3   OH249788   1.358   5.359  10.729 -0.2492 -0.2549  0.0341
 9458TIP3    H149789   1.429   5.322  10.781  1.1848 -0.4987 -1.9488
 9458TIP3    H249790   1.338   5.442  10.770 -0.5843 -1.2973  2.0992
 9459TIP3   OH249791   2.568   1.205   3.160 -0.0472 -0.4439 -0.2556
 9459TIP3    H149792   2.619   1.151   3.099 -1.1643 -3.0490  0.9338
 9459TIP3    H249793   2.570   1.293   3.122 -0.5732 -1.8727 -4.0152
 9460TIP3   OH249794   1.723   2.239   3.011 -0.0840 -0.7166  0.4435
 9460TIP3    H149795   1.743   2.287   3.092  0.9003  0.4048 -0.4361
 9460TIP3    H249796   1.799   2.183   2.997 -0.7874 -1.8269  0.9199
 9461TIP3   OH249797   5.726   1.181  17.405 -0.0341  0.2734  0.1121
 9461TIP3    H149798   5.723   1.243  17.332  2.0406  0.8386  0.4519
 9461TIP3    H249799   5.748   1.097  17.364 -0.8423  0.1673 -0.1198
 9462TIP3   OH249800   3.188   5.561   2.401 -0.0254 -0.0606  0.3558
 9462TIP3    H149801   3.224   5.500   2.466  0.8897  1.9149  1.8333
 9462TIP3    H249802   3.266   5.605   2.365 -0.6399  0.0658 -0.8505
 9463TIP3   OH249803   4.253   0.832   3.844 -0.2397 -0.4393  0.1763
 9463TIP3    H149804   4.263   0.745   3.883  1.1984  0.0206  0.8848
 9463TIP3    H249805   4.167   0.829   3.801 -0.8493 -1.7384  1.4001
 9464TIP3   OH249806   3.750   6.658   1.475 -0.2270 -0.1711 -0.0299
 9464TIP3    H149807   3.731   6.752   1.464 -0.0521 -0.2690 -1.4131
 9464TIP3    H249808   3.703   6.633   1.554 -0.3043  1.0838  0.3397
 9465TIP3   OH249809   4.712   1.296  15.682 -0.2161  0.0268 -0.3671
 9465TIP3    H149810   4.626   1.258  15.663 -0.4189  0.1783  0.2418
 9465TIP3    H249811   4.719   1.370  15.622  0.3843 -1.2248 -1.9192
 9466TIP3   OH249812   0.519   6.641   5.909 -0.5771 -0.6346  0.1040
 9466TIP3    H149813   0.454   6.708   5.932 -0.1915 -0.0724 -0.4336
 9466TIP3    H249814   0.601   6.675   5.944 -0.8994 -2.5152  3.1039
 9467TIP3   OH249815   1.350   4.577  15.287  0.1501  0.1145  0.2185
 9467TIP3    H149816   1.347   4.672  15.286 -1.2081  0.1098 -1.3489
 9467TIP3    H249817   1.295   4.550  15.212  1.5343 -1.8727 -0.1782
 9468TIP3   OH249818   0.966   1.792   3.633  0.1761 -0.0114 -0.0371
 9468TIP3    H149819   0.981   1.787   3.538  0.7717 -3.1805  0.1325
 9468TIP3    H249820   1.038   1.846   3.666  1.1055 -0.5113 -1.1810
 9469TIP3   OH249821   3.254   3.404   2.863  0.0359 -0.9565  0.1665
 9469TIP3    H149822   3.303   3.396   2.781 -3.1742 -1.5694 -1.8705
 9469TIP3    H249823   3.257   3.317   2.901 -1.7416 -1.8203 -1.4726
 9470TIP3   OH249824   0.450   1.672   6.938 -0.0458 -0.1260 -0.5993
 9470TIP3    H149825   0.435   1.699   6.847  2.0693 -1.0106 -1.2705
 9470TIP3    H249826   0.400   1.590   6.946 -1.5798  0.7836 -0.4052
 9471TIP3   OH249827   3.745   0.847   4.654 -0.5759  0.4347  0.0597
 9471TIP3    H149828   3.748   0.928   4.602  0.0477  0.0129 -0.5799
 9471TIP3    H249829   3.745   0.777   4.589  0.9479 -0.1174  0.6182
 9472TIP3   OH249830   6.460   0.081   1.847  0.3420 -0.1553 -0.5178
 9472TIP3    H149831   6.485   0.172   1.866  0.7075 -0.3195 -0.1948
 9472TIP3    H249832   6.540   0.031   1.863  0.3949 -0.4288 -1.5684
 9473TIP3   OH249833   5.120   6.648   1.524  0.4459 -0.4928 -0.8068
 9473TIP3    H149834   5.212   6.620   1.516  0.5710 -0.8793  1.3446
 9473TIP3    H249835   5.122   6.740   1.500  1.6925 -0.1361  0.4819
 9474TIP3   OH249836   2.434   0.043   3.211  0.7422  0.6220  0.1358
 9474TIP3    H149837   2.377  -0.034   3.205  0.8249  0.6679 -3.3144
 9474TIP3    H249838   2.475   0.035   3.297 -1.4904 -1.5286  1.1534
 9475TIP3   OH249839   4.439   2.431  16.839  0.2148  0.1200 -0.3042
 9475TIP3    H149840   4.459   2.436  16.745  2.1219 -0.7476  0.0224
 9475TIP3    H249841   4.524   2.421  16.882 -0.7409 -1.3600  1.3815
 9476TIP3   OH249842   0.266   4.677  14.385 -0.7549  0.1653  0.5732
 9476TIP3    H149843   0.358   4.696  14.403 -0.3052  0.1030 -1.3878
 9476TIP3    H249844   0.236   4.753  14.336 -1.2536 -0.5665 -0.2776
 9477TIP3   OH249845   4.869   4.640  12.854  0.0029  0.0632  0.6454
 9477TIP3    H149846   4.872   4.666  12.761  0.9703 -0.0033  0.6478
 9477TIP3    H249847   4.821   4.711  12.897 -0.2369  0.2201  0.1303
 9478TIP3   OH249848   4.840   2.805   5.432  1.0591  0.5051  0.3395
 9478TIP3    H149849   4.934   2.824   5.431  0.4911  3.8802  0.5214
 9478TIP3    H249850   4.807   2.844   5.352 -0.5160  1.8106  1.5530
 9479TIP3   OH249851   3.583   3.957  11.247 -0.2009  0.3971 -0.0073
 9479TIP3    H149852   3.672   3.978  11.274  0.5539  0.0216 -2.0395
 9479TIP3    H249853   3.564   4.019  11.176 -1.5430  0.4246  0.3444
 9480TIP3   OH249854   1.506   5.802  10.949 -0.2161  0.4289  0.4153
 9480TIP3    H149855   1.427   5.833  10.994 -2.0826 -1.2741 -1.4763
 9480TIP3    H249856   1.520   5.867  10.880 -0.9598 -0.0898 -0.2425
 9481TIP3   OH249857   2.707   0.491   0.779 -0.5061  0.2788 -0.2443
 9481TIP3    H149858   2.772   0.554   0.812  0.2140 -0.7693  0.3695
 9481TIP3    H249859   2.642   0.485   0.849 -2.2985  2.6575 -1.5479
 9482TIP3   OH249860   0.140   1.434  14.982  0.2041 -0.0327 -0.1925
 9482TIP3    H149861   0.235   1.440  14.966  0.3038  0.0049  0.3866
 9482TIP3    H249862   0.105   1.394  14.903  0.6280  0.4980 -0.6561
 9483TIP3   OH249863   4.514   6.593  16.955 -0.2570 -0.6119  0.1665
 9483TIP3    H149864   4.609   6.581  16.949 -0.1488  0.2494 -0.0506
 9483TIP3    H249865   4.497   6.675  16.908 -1.0353 -0.4564  0.6865
 9484TIP3   OH249866   2.855   0.437   5.362  0.1889  0.5159 -0.1020
 9484TIP3    H149867   2.874   0.424   5.269  0.1575 -0.6221  0.0313
 9484TIP3    H249868   2.920   0.500   5.391  1.4431 -0.5752 -0.4725
 9485TIP3   OH249869   2.205   5.289   3.325 -0.4188 -0.2275  0.2055
 9485TIP3    H149870   2.148   5.366   3.326 -1.9191 -1.2924  0.2712
 9485TIP3    H249871   2.270   5.306   3.393 -0.1611  1.3758 -0.4168
 9486TIP3   OH249872   3.513   3.490  14.286 -0.1634  0.4631 -0.0700
 9486TIP3    H149873   3.462   3.413  14.260  0.0505  0.2860  0.0258
 9486TIP3    H249874   3.449   3.561  14.288 -1.3407 -0.4491  3.8411
 9487TIP3   OH249875   1.211   2.148  14.602  0.3001  0.3048 -0.0440
 9487TIP3    H149876   1.214   2.061  14.562  2.3871 -0.8618  2.3667
 9487TIP3    H249877   1.303   2.172  14.613 -0.2417  2.4912  0.0714
 9488TIP3   OH249878   2.340   5.823  17.461 -0.3321  0.0427  0.2999
 9488TIP3    H149879   2.272   5.766  17.425 -0.1139 -0.6727  0.9872
 9488TIP3    H249880   2.382   5.770  17.529  0.1378  0.8886  0.6847
 9489TIP3   OH249881   1.322   2.217   4.368  0.0887  0.0326 -0.2458
 9489TIP3    H149882   1.283   2.303   4.359  0.8706  0.6474  1.7045
 9489TIP3    H249883   1.263   2.170   4.428 -1.1576 -1.3761 -2.4489
 9490TIP3   OH249884   4.318   6.483  12.133  0.1219  0.1809  0.2654
 9490TIP3    H149885   4.316   6.483  12.229  0.2784 -0.6083  0.2738
 9490TIP3    H249886   4.251   6.419  12.108 -1.6853  2.1565 -0.2141
 9491TIP3   OH249887   0.827   1.742  15.990  0.2385 -0.2460  0.2752
 9491TIP3    H149888   0.871   1.755  15.906 -0.4579 -1.2605 -0.2580
 9491TIP3    H249889   0.778   1.823  16.003  0.7921  0.1473 -0.0113
 9492TIP3   OH249890   1.591   3.095   0.458 -0.1145 -0.1460 -0.3705
 9492TIP3    H149891   1.661   3.036   0.431 -0.1114  0.5913 -2.1222
 9492TIP3    H249892   1.551   3.052   0.533 -0.1298 -2.3872 -1.5712
 9493TIP3   OH249893   3.671   1.277   1.390  0.2205  0.1670  0.1152
 9493TIP3    H149894   3.690   1.369   1.405 -0.2012  0.1707  0.6329
 9493TIP3    H249895   3.609   1.253   1.459 -0.4978 -0.2301 -0.6518
 9494TIP3   OH249896   2.527   5.553   5.285 -0.1764 -0.0042 -0.3657
 9494TIP3    H149897   2.454   5.608   5.257 -0.5371 -0.8293 -1.0758
 9494TIP3    H249898   2.487   5.468   5.304  0.2950  0.0920  1.2114
 9495TIP3   OH249899   6.679   6.131  15.157  0.1047  0.1847 -0.1697
 9495TIP3    H149900   6.726   6.090  15.085 -0.9483  0.1786 -0.8785
 9495TIP3    H249901   6.747   6.167  15.213  0.9458  1.2946 -1.8222
 9496TIP3   OH249902   3.593   3.835  11.733  0.1404 -0.0254 -0.0300
 9496TIP3    H149903   3.627   3.897  11.798 -0.1291  0.7246 -0.5801
 9496TIP3    H249904   3.635   3.863  11.651  1.4288 -1.7003 -0.0027
 9497TIP3   OH249905   3.407   6.403   4.319  0.1540 -0.3289  0.6670
 9497TIP3    H149906   3.479   6.420   4.258  1.0642  0.4510  1.8831
 9497TIP3    H249907   3.349   6.479   4.309 -1.2640 -1.5793 -1.2617
 9498TIP3   OH249908   6.525   4.784  15.367 -0.4215 -0.3992  0.3624
 9498TIP3    H149909   6.529   4.797  15.462 -3.2727 -0.1497  0.5319
 9498TIP3    H249910   6.489   4.696  15.356 -0.5698 -0.2468 -0.4651
 9499TIP3   OH249911   1.075   4.162   2.902 -0.4003 -0.5666 -0.1619
 9499TIP3    H149912   1.017   4.238   2.905  1.4866  1.0255 -1.6052
 9499TIP3    H249913   1.060   4.123   2.817  2.0499  1.1948 -1.5606
 9500TIP3   OH249914   4.359   5.054  15.847 -0.7436 -0.1205 -0.0426
 9500TIP3    H149915   4.373   4.994  15.774 -0.8832 -0.3557  0.1201
 9500TIP3    H249916   4.446   5.084  15.872 -0.7778  0.9203 -1.0973
 9501TIP3   OH249917   4.704   3.434  16.723  0.5053  0.6101  0.3893
 9501TIP3    H149918   4.740   3.516  16.759 -1.6552  0.9626  1.9204
 9501TIP3    H249919   4.685   3.381  16.800 -0.9713 -0.0738 -0.4122
 9502TIP3   OH249920   4.768   0.224  11.805 -0.1965 -0.4294  0.4352
 9502TIP3    H149921   4.708   0.243  11.734  1.3834  0.2480 -0.7802
 9502TIP3    H249922   4.851   0.202  11.762  1.0275  0.7418  2.0354
 9503TIP3   OH249923   5.331   3.306   2.175  0.1058 -0.0814  0.1369
 9503TIP3    H149924   5.294   3.393   2.187  0.7781  0.7102 -2.7632
 9503TIP3    H249925   5.280   3.267   2.103  0.6264 -1.5890  0.5298
 9504TIP3   OH249926   2.152   4.420  13.936 -0.3280 -0.2277  0.1025
 9504TIP3    H149927   2.121   4.488  13.877 -0.7266 -0.9350 -0.5100
 9504TIP3    H249928   2.103   4.434  14.017  1.8213  2.1835  1.1616
 9505TIP3   OH249929   4.406   4.230  11.857 -0.0529 -0.0066 -0.4500
 9505TIP3    H149930   4.417   4.149  11.806 -2.5277 -1.5703  1.2482
 9505TIP3    H249931   4.318   4.260  11.833 -0.6171  0.1121  1.5990
 9506TIP3   OH249932   6.207   1.382  15.367  0.0475 -0.5876 -0.0206
 9506TIP3    H149933   6.165   1.296  15.358 -2.1662  0.4600 -0.5610
 9506TIP3    H249934   6.136   1.441  15.393  1.1866  1.3368 -1.0024
 9507TIP3   OH249935   3.667   5.508  17.174  0.6045  0.5988  0.3142
 9507TIP3    H149936   3.708   5.522  17.088 -1.6913  1.5699 -0.7341
 9507TIP3    H249937   3.681   5.591  17.220 -0.4544  1.0844 -0.2027
 9508TIP3   OH249938   3.371   5.345  15.383 -0.2932 -0.0015  0.0052
 9508TIP3    H149939   3.339   5.303  15.302 -0.1621 -2.7690  1.2695
 9508TIP3    H249940   3.465   5.329  15.381 -0.1790  0.6305  0.3379
 9509TIP3   OH249941   4.654   4.646   3.957  0.1901  0.2010 -0.2665
 9509TIP3    H149942   4.582   4.708   3.949 -1.2765 -1.2418  1.0350
 9509TIP3    H249943   4.722   4.694   4.003 -1.5498  0.4287  2.2396
 9510TIP3   OH249944   4.776   1.338  15.960 -0.3643 -0.4341 -0.5774
 9510TIP3    H149945   4.682   1.332  15.978 -0.3256  1.0235  0.3213
 9510TIP3    H249946   4.783   1.339  15.865 -1.3807  0.6373 -0.6610
 9511TIP3   OH249947   4.403   4.805   3.251 -0.7092 -0.5059  0.2407
 9511TIP3    H149948   4.363   4.852   3.325 -1.5300 -1.5716  0.4982
 9511TIP3    H249949   4.391   4.863   3.176  0.8730  0.9727  1.0687
 9512TIP3   OH249950   5.535   6.068   3.313  0.0820 -0.0329  0.5545
 9512TIP3    H149951   5.503   6.147   3.356  0.7961 -0.4876  1.9887
 9512TIP3    H249952   5.501   5.996   3.367 -0.0481 -0.6832 -0.3683
 9513TIP3   OH249953   3.381   3.069   4.101  0.1071  0.0565  0.3786
 9513TIP3    H149954   3.293   3.104   4.087 -0.1472  0.2749  2.3135
 9513TIP3    H249955   3.367   2.990   4.152  0.9493 -0.8770 -0.7682
 9514TIP3   OH249956   1.109   4.755   6.152 -0.3964  0.1300  0.0419
 9514TIP3    H149957   1.083   4.697   6.224 -0.9561  1.5083  0.9954
 9514TIP3    H249958   1.143   4.696   6.085 -0.4709 -1.2542  1.1693
 9515TIP3   OH249959   4.116   5.831   5.000 -0.3628 -0.3568  0.0444
 9515TIP3    H149960   4.043   5.861   5.055 -1.4554 -0.8045 -1.1278
 9515TIP3    H249961   4.075   5.793   4.923  1.1129 -0.9309 -0.5021
 9516TIP3   OH249962   0.762   2.658   3.338 -0.1251 -0.2417 -0.5556
 9516TIP3    H149963   0.816   2.691   3.410 -0.1811  1.9450 -1.4169
 9516TIP3    H249964   0.823   2.615   3.279  0.5511  1.1937 -0.9522
 9517TIP3   OH249965   6.454   4.260  11.359 -0.1388 -0.4712  0.3252
 9517TIP3    H149966   6.404   4.178  11.367  0.4486 -1.0689 -1.6176
 9517TIP3    H249967   6.387   4.328  11.356 -0.8233 -1.1557 -0.9599
 9518TIP3   OH249968   2.697   4.486   2.147  0.3476  0.2350 -0.1015
 9518TIP3    H149969   2.745   4.557   2.189  1.6432 -0.2216 -0.7686
 9518TIP3    H249970   2.605   4.509   2.159  0.7268  1.3864  0.7600
 9519TIP3   OH249971   3.303   1.632  17.557 -0.5670 -0.4476  0.2809
 9519TIP3    H149972   3.309   1.538  17.576 -0.7106 -0.5418 -0.1337
 9519TIP3    H249973   3.215   1.642  17.521  0.3137 -0.5789 -2.0756
 9520TIP3   OH249974   5.573   2.808  15.246  0.4019 -0.0576  0.5319
 9520TIP3    H149975   5.490   2.852  15.262  0.3085  0.0699 -0.2611
 9520TIP3    H249976   5.568   2.779  15.155  0.8749 -0.8119  0.7345
 9521TIP3   OH249977   1.744   3.262   5.614  0.8331  0.5374  0.5141
 9521TIP3    H149978   1.651   3.278   5.599  0.8408  1.9565  1.7461
 9521TIP3    H249979   1.777   3.344   5.650  2.7733  0.3683 -0.7188
 9522TIP3   OH249980   2.390   2.356   4.935 -0.1472 -0.5488  0.1783
 9522TIP3    H149981   2.312   2.311   4.903  0.5688 -2.1663  0.6459
 9522TIP3    H249982   2.409   2.421   4.866 -1.2720 -0.8351 -0.4410
 9523TIP3   OH249983   2.611   1.125  11.912  0.1130 -0.0874 -0.4427
 9523TIP3    H149984   2.653   1.191  11.857 -1.5732  2.3283  0.9884
 9523TIP3    H249985   2.626   1.155  12.002 -2.5843 -0.3469  0.1873
 9524TIP3   OH249986   4.677   3.637  14.807 -0.4909 -0.1005  0.0613
 9524TIP3    H149987   4.593   3.605  14.775  0.5455 -3.2172  0.0400
 9524TIP3    H249988   4.658   3.673  14.894 -1.8923 -0.4673 -0.0695
 9525TIP3   OH249989   0.283   3.637  15.573 -0.1916  0.2026 -0.3797
 9525TIP3    H149990   0.210   3.575  15.577  0.9034 -1.1164  0.0092
 9525TIP3    H249991   0.341   3.612  15.645 -0.8782  3.2960  1.4513
 9526TIP3   OH249992   4.581   1.486  14.198  0.5726 -0.4300  0.4222
 9526TIP3    H149993   4.677   1.491  14.200  0.6548 -1.1129 -0.8073
 9526TIP3    H249994   4.556   1.523  14.114 -0.2167 -0.5991  0.5737
 9527TIP3   OH249995   1.640   3.825   3.806  0.9841 -0.4656  0.0345
 9527TIP3    H149996   1.714   3.772   3.777  3.2470  1.5767  1.6922
 9527TIP3    H249997   1.597   3.771   3.873  2.1246 -0.9413  0.4038
 9528TIP3   OH249998   2.746   3.233  15.389  0.6129  0.3876 -0.2359
 9528TIP3    H149999   2.768   3.317  15.429  1.4779 -0.5613  1.3929
 9528TIP3    H250000   2.813   3.173  15.420 -1.4370 -1.5128  0.8546
 9529TIP3   OH250001   2.346   5.555  13.218  0.1928 -0.0444 -0.0507
 9529TIP3    H150002   2.260   5.594  13.234 -1.4712 -2.1591 -2.9174
 9529TIP3    H250003   2.364   5.575  13.126  1.6744 -1.5893 -0.1285
 9530TIP3   OH250004   5.967   0.397   1.687  0.0888  0.0545 -0.3512
 9530TIP3    H150005   5.943   0.400   1.594 -1.0399 -0.1702 -0.0791
 9530TIP3    H250006   5.942   0.308   1.715  1.5708 -0.3174 -0.1214
 9531TIP3   OH250007   0.676   3.200   4.520 -0.3925 -0.2230  0.2480
 9531TIP3    H150008   0.671   3.295   4.506 -0.4627 -0.3394 -0.5471
 9531TIP3    H250009   0.584   3.172   4.525 -0.4088 -0.4463 -0.9720
 9532TIP3   OH250010   0.943   0.062   5.427  0.7319 -0.2352 -0.3546
 9532TIP3    H150011   0.989   0.116   5.363  1.4416  0.4058  0.6665
 9532TIP3    H250012   0.855   0.100   5.430  0.4839 -0.6873 -1.4149
 9533TIP3   OH250013   2.559   2.816  16.542  0.2113  0.1745 -0.4275
 9533TIP3    H150014   2.512   2.765  16.476  0.2207 -2.3435  1.3558
 9533TIP3    H250015   2.631   2.857  16.494 -0.9621  0.1390 -2.3126
 9534TIP3   OH250016   1.988   6.651   5.801  0.1411 -0.5887 -0.1338
 9534TIP3    H150017   1.995   6.735   5.847  0.3714 -0.0985 -1.0476
 9534TIP3    H250018   2.052   6.594   5.845  1.1336  0.1953 -0.5222
 9535TIP3   OH250019   0.511   3.112  16.096  0.3738  0.2152 -0.2682
 9535TIP3    H150020   0.567   3.114  16.019  0.1740  0.0999 -0.4152
 9535TIP3    H250021   0.424   3.090  16.063  0.1837  0.6532 -0.0727
 9536TIP3   OH250022   5.074   4.794  12.994 -0.3341  0.2473  0.1977
 9536TIP3    H150023   5.117   4.717  13.033 -1.9979 -0.1541  1.3381
 9536TIP3    H250024   5.087   4.784  12.900 -0.2377 -1.2664  0.3474
 9537TIP3   OH250025   1.937   3.310  17.478 -0.0965 -0.1373  0.1076
 9537TIP3    H150026   1.925   3.352  17.393  0.8469  0.7172  0.3774
 9537TIP3    H250027   1.856   3.261  17.492 -0.4984  0.1712 -1.0210
 9538TIP3   OH250028   5.715   6.132   6.893  0.6318 -0.2474 -0.1489
 9538TIP3    H150029   5.791   6.081   6.918 -1.1995 -1.9124  2.4906
 9538TIP3    H250030   5.648   6.067   6.871 -0.6521  1.0961 -0.4227
 9539TIP3   OH250031   5.103   3.058   6.702 -0.0455  0.5380 -0.0478
 9539TIP3    H150032   5.139   2.985   6.650  2.1146  1.8549 -0.5239
 9539TIP3    H250033   5.038   3.098   6.644  1.4352  1.2189 -1.3252
 9540TIP3   OH250034   1.137   5.813   6.811 -0.6027  0.0477 -0.2451
 9540TIP3    H150035   1.140   5.735   6.867 -1.5517  0.4421  0.3748
 9540TIP3    H250036   1.179   5.882   6.864 -0.8477  0.2440 -0.3045
 9541TIP3   OH250037   6.114   1.908   2.750  0.3416 -0.9558  0.1250
 9541TIP3    H150038   6.101   1.897   2.845 -0.8729 -2.9027 -0.2109
 9541TIP3    H250039   6.107   2.002   2.736  0.8675 -0.5901  2.0086
 9542TIP3   OH250040   0.653   5.509  15.769  0.0838 -0.0588 -0.0008
 9542TIP3    H150041   0.743   5.535  15.751  0.0302  1.4269  1.6380
 9542TIP3    H250042   0.655   5.413  15.764  1.5116 -0.0173 -0.9196
 9543TIP3   OH250043   2.490   3.961   5.621  0.4022 -0.2949  0.2958
 9543TIP3    H150044   2.532   3.946   5.536  0.5544 -0.1500  0.3459
 9543TIP3    H250045   2.539   4.034   5.660 -0.0974  0.0926  0.2151
 9544TIP3   OH250046   0.725   2.964   0.051  0.5376 -0.4757  0.6198
 9544TIP3    H150047   0.696   2.932  -0.035  1.3890  1.6840 -0.5640
 9544TIP3    H250048   0.809   2.920   0.065  0.9512 -0.0019 -0.2446
 9545TIP3   OH250049   1.817   0.982  12.283  0.6126  0.0089 -0.1995
 9545TIP3    H150050   1.741   1.039  12.279 -1.1088 -1.9472  2.0601
 9545TIP3    H250051   1.846   0.974  12.192 -2.4064  0.1446 -1.2731
 9546TIP3   OH250052   2.555   5.871   5.120 -0.2764  0.4646 -0.2346
 9546TIP3    H150053   2.568   5.781   5.090 -0.6673  0.3874 -0.1746
 9546TIP3    H250054   2.491   5.864   5.190  0.3921  0.6824  0.4147
 9547TIP3   OH250055   2.922   0.947  17.473 -0.0512 -0.0579 -0.1794
 9547TIP3    H150056   2.838   0.956  17.519  0.6026 -0.9715  1.2767
 9547TIP3    H250057   2.938   0.853  17.470  0.8643  0.0972 -0.5373
 9548TIP3   OH250058   0.210   5.667   5.444  0.3263  0.3217 -0.2263
 9548TIP3    H150059   0.119   5.662   5.472  0.2673  1.0145 -0.2581
 9548TIP3    H250060   0.211   5.630   5.355  0.4224 -1.4038  0.4683
 9549TIP3   OH250061   0.790   4.213   5.977 -0.4566  0.2456  0.2441
 9549TIP3    H150062   0.868   4.188   6.027 -0.1462 -0.1061 -0.4191
 9549TIP3    H250063   0.723   4.150   6.004 -0.7406  0.9920  1.3707
 9550TIP3   OH250064   1.087   4.340  14.455 -0.2739 -0.4356 -0.0141
 9550TIP3    H150065   1.163   4.286  14.480  1.0979 -1.6626 -5.5090
 9550TIP3    H250066   1.012   4.281  14.463 -0.0491 -0.5739  1.3765
 9551TIP3   OH250067   4.696   4.304  16.214  0.4314 -0.5809  0.0148
 9551TIP3    H150068   4.753   4.294  16.290 -0.1746 -0.4582  0.4969
 9551TIP3    H250069   4.705   4.222  16.166  0.9879 -0.5709  0.0961
 9552TIP3   OH250070   5.891   0.083  14.131  0.4231  0.1585  0.4763
 9552TIP3    H150071   5.849   0.009  14.088  0.1984  0.8798 -0.5795
 9552TIP3    H250072   5.828   0.111  14.197  0.5024 -0.5639  0.8701
 9553TIP3   OH250073   3.583   4.677  12.265 -0.8417  0.3022  0.0621
 9553TIP3    H150074   3.616   4.745  12.324  0.0588 -1.6513  1.9333
 9553TIP3    H250075   3.497   4.654  12.300 -1.4725  0.9657 -1.0150
 9554TIP3   OH250076   1.571   3.586   2.532  0.5540 -0.0683 -0.0671
 9554TIP3    H150077   1.563   3.643   2.608  0.2525 -0.1137 -0.0626
 9554TIP3    H250078   1.541   3.500   2.564 -1.1086  0.2663 -0.6544
 9555TIP3   OH250079   0.872   1.189  15.524  0.8485 -0.1359 -0.2980
 9555TIP3    H150080   0.861   1.205  15.618 -2.0211  1.8355 -0.8527
 9555TIP3    H250081   0.958   1.226  15.504  0.4148  1.8056  1.1283
 9556TIP3   OH250082   0.435   0.744  15.531  0.4216 -0.2784  0.1166
 9556TIP3    H150083   0.413   0.709  15.444 -0.1320 -0.0715  0.1680
 9556TIP3    H250084   0.489   0.676  15.571 -0.2138 -0.8617  0.0142
 9557TIP3   OH250085   0.519   0.024  15.021 -0.1814  0.2593  0.2906
 9557TIP3    H150086   0.447   0.074  15.060 -0.5198 -0.4684  0.6099
 9557TIP3    H250087   0.492   0.009  14.930  1.1628  3.0497 -0.6941
 9558TIP3   OH250088   0.314   5.108   2.844  0.0222  0.4500  0.5161
 9558TIP3    H150089   0.370   5.170   2.798 -0.0448  1.0003  1.1475
 9558TIP3    H250090   0.375   5.044   2.882  0.1223  0.3357  0.1606
 9559TIP3   OH250091   5.546   3.843  13.063  0.0879 -0.3993  0.3266
 9559TIP3    H150092   5.550   3.868  12.970 -0.5106  0.8275  0.6127
 9559TIP3    H250093   5.595   3.912  13.108 -1.1961  0.0361  1.1011
 9560TIP3   OH250094   4.712   3.053   1.917 -0.0892  0.2995  0.5828
 9560TIP3    H150095   4.778   3.117   1.891  0.4021 -0.7234 -0.8480
 9560TIP3    H250096   4.728   3.038   2.010  1.5607  0.2334  0.3159
 9561TIP3   OH250097   5.580   3.703   5.200  0.0790  0.1009  0.3905
 9561TIP3    H150098   5.668   3.682   5.233 -0.0836  0.4288  1.0490
 9561TIP3    H250099   5.524   3.635   5.237 -0.0514  0.2872  0.5405
 9562TIP3   OH250100   1.827   2.189  17.084  0.5548  0.1019 -0.3500
 9562TIP3    H150101   1.791   2.218  17.000 -0.6793 -0.1246  0.0921
 9562TIP3    H250102   1.751   2.169  17.138  1.3346 -2.0910  0.0307
 9563TIP3   OH250103   3.787   2.990  11.479  0.1123  0.0134  0.2699
 9563TIP3    H150104   3.854   2.953  11.535 -1.2933  0.7995  2.6106
 9563TIP3    H250105   3.704   2.960  11.517 -0.9294 -0.5777 -2.2510
 9564TIP3   OH250106   0.076   0.400   4.546 -0.2409 -0.1345 -0.3741
 9564TIP3    H150107   0.165   0.394   4.513  0.5418  1.7432  1.2697
 9564TIP3    H250108   0.043   0.483   4.512 -0.1530  0.8086  1.7533
 9565TIP3   OH250109   4.509   6.105  17.355  0.9129  0.2728  0.5299
 9565TIP3    H150110   4.561   6.072  17.281 -1.0230 -1.6588 -0.0930
 9565TIP3    H250111   4.510   6.033  17.418 -0.7934  0.2370  0.5677
 9566TIP3   OH250112   2.040   4.397   5.530  0.2558 -0.4169  0.0424
 9566TIP3    H150113   2.064   4.484   5.561  0.9555  0.4560 -2.7187
 9566TIP3    H250114   1.945   4.398   5.526  0.2324  0.0009  0.5740
 9567TIP3   OH250115   1.185   3.671  14.011 -0.2502  0.1440 -0.8102
 9567TIP3    H150116   1.259   3.724  13.983 -0.7618  1.5067  0.2780
 9567TIP3    H250117   1.146   3.721  14.084 -1.5704 -1.0664 -0.6426
 9568TIP3   OH250118   0.073   6.051   6.058 -0.2118 -0.2843 -0.3858
 9568TIP3    H150119   0.056   5.957   6.061 -2.5771  0.0365 -1.4949
 9568TIP3    H250120   0.091   6.075   6.149 -0.1349 -1.7093 -0.0051
 9569TIP3   OH250121   5.133   4.348   2.761 -0.2135 -0.3672 -0.8391
 9569TIP3    H150122   5.208   4.302   2.798 -0.7428  0.4385  1.4096
 9569TIP3    H250123   5.058   4.291   2.781 -0.4246 -0.3004 -1.4226
 9570TIP3   OH250124   0.517   2.260   1.991  0.7048  0.5934 -0.1354
 9570TIP3    H150125   0.488   2.173   2.021 -1.1765  1.7427  1.6680
 9570TIP3    H250126   0.611   2.251   1.978  0.7467 -1.4244  1.1483
 9571TIP3   OH250127   4.636   1.160  12.440  0.3595 -0.1707 -0.1369
 9571TIP3    H150128   4.647   1.092  12.507 -1.5141  0.4630  0.8995
 9571TIP3    H250129   4.688   1.129  12.366  1.2276 -1.6932  1.0376
 9572TIP3   OH250130   5.176   4.369  16.816  0.0622 -0.2127  0.5767
 9572TIP3    H150131   5.245   4.376  16.749  1.1215 -1.9639  1.4123
 9572TIP3    H250132   5.165   4.459  16.848  2.1193  0.1200  0.5302
 9573TIP3   OH250133   3.215   1.160   6.293 -0.5529 -0.6122 -0.0267
 9573TIP3    H150134   3.183   1.104   6.364 -0.4528 -1.6360 -0.7619
 9573TIP3    H250135   3.224   1.246   6.333 -0.4065 -1.1823  1.2369
 9574TIP3   OH250136   0.081   2.075   0.680 -0.4699 -0.0580 -0.2944
 9574TIP3    H150137   0.047   2.001   0.730  0.1007 -0.7879 -0.9586
 9574TIP3    H250138   0.138   2.035   0.614 -1.0935  0.8804 -1.4374
 9575TIP3   OH250139   2.564   1.700  12.727  0.0233 -0.3214  0.3476
 9575TIP3    H150140   2.476   1.707  12.690 -0.5717  0.5960  1.8601
 9575TIP3    H250141   2.584   1.788  12.758  0.1407 -1.1576  2.8629
 9576TIP3   OH250142   6.488   2.331  11.622  0.2107 -0.3313 -0.3637
 9576TIP3    H150143   6.491   2.304  11.530  1.6005 -2.0294  0.1187
 9576TIP3    H250144   6.395   2.348  11.639 -0.1782 -0.7636 -1.8740
 9577TIP3   OH250145   4.167   5.219  14.952 -0.2045 -0.3686 -0.0924
 9577TIP3    H150146   4.134   5.190  14.867  0.3171 -1.1248 -0.0441
 9577TIP3    H250147   4.155   5.314  14.951 -0.3661 -0.3886 -0.9339
 9578TIP3   OH250148   1.933   5.358  12.102  0.2214  0.2196  0.1327
 9578TIP3    H150149   1.906   5.302  12.029  1.0587  0.6833 -0.5456
 9578TIP3    H250150   1.893   5.318  12.179 -1.2389  0.1082 -0.6581
 9579TIP3   OH250151   5.664   4.221  12.092 -0.1571  0.3814  0.2842
 9579TIP3    H150152   5.730   4.213  12.023  0.9013  0.3949  1.2557
 9579TIP3    H250153   5.658   4.133  12.129  0.9559  0.8344  1.6306
 9580TIP3   OH250154   6.285   6.230   5.445 -0.7269  0.2237 -0.2611
 9580TIP3    H150155   6.348   6.248   5.376 -0.8445 -0.5357 -0.5777
 9580TIP3    H250156   6.206   6.204   5.399 -1.0010  0.3150  0.1517
 9581TIP3   OH250157   2.583   1.840   1.928  0.3296  0.0881  0.9436
 9581TIP3    H150158   2.568   1.777   1.998  0.9837  1.0954  2.0148
 9581TIP3    H250159   2.650   1.800   1.873 -0.6222 -0.9755  0.5203
 9582TIP3   OH250160   3.093   3.387  11.955 -0.6738 -0.0434  0.2642
 9582TIP3    H150161   3.081   3.341  11.873 -0.2260 -1.9371  1.2123
 9582TIP3    H250162   3.186   3.378  11.975 -0.6121  1.1079  0.6006
 9583TIP3   OH250163   3.983   3.129   2.592 -0.3404  0.5472 -0.1887
 9583TIP3    H150164   4.000   3.223   2.604 -0.1827  0.3761  1.0553
 9583TIP3    H250165   3.991   3.092   2.680  2.0192 -1.0183 -0.9469
 9584TIP3   OH250166   0.441   3.940  12.190  0.4858  0.0982 -0.0580
 9584TIP3    H150167   0.524   3.895  12.180  0.9275  1.0460 -0.7895
 9584TIP3    H250168   0.462   4.033  12.178 -0.4703  0.4726  0.9861
 9585TIP3   OH250169   5.373   6.157   6.797 -0.7689  0.2710  0.6988
 9585TIP3    H150170   5.395   6.242   6.760 -1.3631  1.2617  2.4999
 9585TIP3    H250171   5.452   6.105   6.786 -0.1406  1.2936  0.2280
 9586TIP3   OH250172   6.556   0.991  12.145 -0.0764  0.3724 -0.1884
 9586TIP3    H150173   6.472   0.975  12.102 -0.8673 -1.5469  1.9063
 9586TIP3    H250174   6.534   1.009  12.236  1.7876 -0.2690  0.4378
 9587TIP3   OH250175   0.045   1.149   2.171  0.4614  0.2078 -0.4888
 9587TIP3    H150176   0.015   1.061   2.145  1.2363 -0.0959 -0.3703
 9587TIP3    H250177   0.065   1.141   2.264 -1.6961  1.1338  0.1315
 9588TIP3   OH250178   1.274   4.194  16.199  0.0483 -0.3895  0.7933
 9588TIP3    H150179   1.222   4.270  16.174  0.4773 -0.4456 -0.3762
 9588TIP3    H250180   1.243   4.170  16.286 -0.5632  0.7040  0.8954
 9589TIP3   OH250181   6.110   5.915  12.602 -0.3642  0.6419 -0.0578
 9589TIP3    H150182   6.065   5.930  12.519 -0.5940  2.2156  0.3198
 9589TIP3    H250183   6.103   5.821  12.617 -2.1680  0.6281 -0.7844
 9590TIP3   OH250184   1.991   1.634  16.572 -0.3277 -0.0516 -0.6445
 9590TIP3    H150185   1.915   1.595  16.616 -1.3552  1.9488 -0.5089
 9590TIP3    H250186   1.996   1.589  16.488 -1.2972 -0.6553 -0.3929
 9591TIP3   OH250187   3.252   0.496   2.970 -0.0654  0.1698  0.2344
 9591TIP3    H150188   3.210   0.413   2.945 -0.3598 -0.0020  1.2560
 9591TIP3    H250189   3.340   0.490   2.934  0.4194 -1.2445  1.5311
 9592TIP3   OH250190   3.611   3.543  11.705  0.8426  0.1318 -0.7360
 9592TIP3    H150191   3.662   3.529  11.626  1.1911  0.6749 -0.6166
 9592TIP3    H250192   3.622   3.637  11.724  0.6540  0.0355 -0.1270
 9593TIP3   OH250193   4.148   4.195   2.844 -0.0657 -0.2688 -0.1081
 9593TIP3    H150194   4.127   4.114   2.798  1.9882 -1.0643  0.2333
 9593TIP3    H250195   4.094   4.193   2.923  0.8357 -1.9539  0.5081
 9594TIP3   OH250196   1.688   2.351   3.699  0.4266  0.1743  0.0095
 9594TIP3    H150197   1.693   2.315   3.787 -1.9088  1.3011  0.6802
 9594TIP3    H250198   1.655   2.279   3.645 -1.1508  0.3234  0.7170
 9595TIP3   OH250199   4.827   0.034   6.034  0.5606  0.0392  0.1232
 9595TIP3    H150200   4.843   0.045   6.127  0.5888  0.8388  0.0313
 9595TIP3    H250201   4.806  -0.059   6.024  1.3522 -0.2256  0.7972
 9596TIP3   OH250202   6.018   5.472   6.437 -0.4817 -0.4995  0.3622
 9596TIP3    H150203   6.039   5.378   6.432 -1.0783 -0.6793  1.1020
 9596TIP3    H250204   5.961   5.480   6.514  0.3659  0.6259  0.9001
 9597TIP3   OH250205   1.730   1.613  14.887 -0.0602  0.4396  0.4544
 9597TIP3    H150206   1.723   1.528  14.931 -3.7591  0.2079 -0.2348
 9597TIP3    H250207   1.771   1.670  14.952  1.2254 -1.4724  1.4578
 9598TIP3   OH250208   6.110   5.115  11.407  0.2680  0.0201  0.2425
 9598TIP3    H150209   6.181   5.103  11.343  0.6049  0.6660  0.4838
 9598TIP3    H250210   6.149   5.169  11.476 -0.2377 -0.2674  0.7581
 9599TIP3   OH250211   0.998   0.560   1.407 -0.6315 -0.2164  0.2288
 9599TIP3    H150212   1.017   0.653   1.396 -1.2818  0.0375  1.0798
 9599TIP3    H250213   0.958   0.533   1.325  0.6787 -0.0589 -0.4880
 9600TIP3   OH250214   6.320   0.737   2.804 -0.3704 -0.3680 -0.2327
 9600TIP3    H150215   6.306   0.800   2.733 -0.8765  0.5390  0.6437
 9600TIP3    H250216   6.298   0.785   2.883  1.2201 -1.0319  0.6500
 9601TIP3   OH250217   0.852   3.739  16.576 -0.9636 -0.1355  0.3539
 9601TIP3    H150218   0.810   3.813  16.620 -0.8723  1.3506 -1.9086
 9601TIP3    H250219   0.790   3.667  16.587 -1.5736  0.5460  1.6525
 9602TIP3   OH250220   3.667   4.978  12.834  0.3741 -0.2982  0.1750
 9602TIP3    H150221   3.709   5.044  12.889 -0.4959 -0.2244  0.7713
 9602TIP3    H250222   3.645   5.024  12.753  1.4124 -0.3363 -0.1411
 9603TIP3   OH250223   2.388   6.064  11.289  0.1115  0.0507 -0.1158
 9603TIP3    H150224   2.308   6.117  11.281 -0.0000  0.1448  1.3386
 9603TIP3    H250225   2.440   6.089  11.213 -0.6758  0.9876 -0.3804
 9604TIP3   OH250226   1.975   0.352   2.055 -0.7066  0.5727 -0.0046
 9604TIP3    H150227   1.968   0.409   2.131  1.7034 -1.6498  2.0552
 9604TIP3    H250228   1.898   0.295   2.060 -1.9534  2.1240 -0.8252
 9605TIP3   OH250229   2.012   1.795  16.070 -0.3011 -0.2200  0.0450
 9605TIP3    H150230   2.103   1.816  16.045 -0.1673 -1.9881 -1.1124
 9605TIP3    H250231   1.966   1.788  15.987 -1.0400 -1.3125  0.5321
 9606TIP3   OH250232   1.783   1.616  13.898 -0.0050  0.5349  0.0527
 9606TIP3    H150233   1.725   1.616  13.822 -1.3283  0.8767  1.0365
 9606TIP3    H250234   1.870   1.636  13.862 -0.6068  0.7201 -1.3544
 9607TIP3   OH250235   6.688   2.852  16.453  0.1777 -0.3937  0.2902
 9607TIP3    H150236   6.709   2.835  16.545 -2.0959  0.1130  0.9720
 9607TIP3    H250237   6.678   2.765  16.414 -1.0742 -0.6630  1.1319
 9608TIP3   OH250238   0.851   2.536  15.086 -0.2296  0.0340 -0.0004
 9608TIP3    H150239   0.871   2.629  15.100 -2.6027  0.6606 -0.2454
 9608TIP3    H250240   0.836   2.501  15.174 -0.0839  0.0814  0.0432
 9609TIP3   OH250241   4.830   0.252   6.871 -0.2138 -0.5771 -0.0672
 9609TIP3    H150242   4.830   0.300   6.954  0.8720  0.5346 -0.6621
 9609TIP3    H250243   4.738   0.244   6.848 -0.5112 -0.5290  1.0319
 9610TIP3   OH250244   3.401   1.373   6.981  0.1521 -0.4209 -0.9562
 9610TIP3    H150245   3.395   1.453   7.035  2.0347 -1.3739  0.8135
 9610TIP3    H250246   3.354   1.307   7.031  0.9755 -1.0674 -1.0248
 9611TIP3   OH250247   3.989   3.218   0.141  0.1732 -0.3560 -0.3686
 9611TIP3    H150248   4.049   3.222   0.066 -0.9643 -1.6957 -1.4216
 9611TIP3    H250249   4.032   3.159   0.203  0.8873  0.3547 -0.1696
 9612TIP3   OH250250   6.480   5.108   5.944  0.2916 -0.1151  0.1606
 9612TIP3    H150251   6.573   5.110   5.921  0.6480 -4.4324  0.4534
 9612TIP3    H250252   6.479   5.103   6.040 -0.3211  0.6314  0.2024
 9613TIP3   OH250253   0.021   1.480  12.827  0.3370  0.4938 -0.3137
 9613TIP3    H150254   0.048   1.394  12.794 -1.0180 -0.6087  1.2781
 9613TIP3    H250255   0.037   1.539  12.754  0.3644 -1.2727 -1.8240
 9614TIP3   OH250256   5.389   6.651  15.613 -0.0243  0.4264 -0.6686
 9614TIP3    H150257   5.368   6.584  15.678 -1.4647  1.0344 -0.4655
 9614TIP3    H250258   5.438   6.604  15.545  2.0785 -0.1056  1.0983
 9615TIP3   OH250259   2.155   5.810   4.474 -0.1476 -0.1720  0.1158
 9615TIP3    H150260   2.093   5.815   4.546  0.4592 -1.0677  0.7253
 9615TIP3    H250261   2.120   5.742   4.416 -0.5273  0.4015 -0.3336
 9616TIP3   OH250262   3.698   3.420   4.348  0.6005 -0.0792 -0.1444
 9616TIP3    H150263   3.688   3.458   4.261 -1.5980 -2.0389 -0.8498
 9616TIP3    H250264   3.761   3.349   4.336 -1.2646 -1.7291 -0.7219
 9617TIP3   OH250265   3.598   5.312   2.097 -0.1835  0.5310 -0.1976
 9617TIP3    H150266   3.507   5.340   2.096 -0.4604 -0.2085  1.3869
 9617TIP3    H250267   3.594   5.217   2.093  0.3822  0.3614  1.8694
 9618TIP3   OH250268   3.559   1.812   6.058 -0.2967 -0.0652 -0.1572
 9618TIP3    H150269   3.502   1.751   6.103  0.6452 -0.9227 -0.0867
 9618TIP3    H250270   3.501   1.863   6.002 -1.2077 -0.4222  0.4399
 9619TIP3   OH250271   0.552   5.619   6.065  0.1223 -0.0123 -0.3089
 9619TIP3    H150272   0.628   5.676   6.073 -0.8340  1.0702  1.9378
 9619TIP3    H250273   0.500   5.658   5.995  1.2826 -0.3986 -1.4190
 9620TIP3   OH250274   3.997   3.841  17.052 -0.1529  0.3968  0.3204
 9620TIP3    H150275   3.958   3.902  17.115  0.7236  0.3391  0.9482
 9620TIP3    H250276   4.085   3.875  17.038 -0.4754  0.6513 -1.2331
 9621TIP3   OH250277   3.966   3.357   1.156  0.9776 -0.5136 -0.2158
 9621TIP3    H150278   3.963   3.409   1.236 -0.9123  2.4048 -1.9723
 9621TIP3    H250279   4.054   3.371   1.122  0.2236  2.7309 -1.1916
 9622TIP3   OH250280   2.162   5.698   3.178 -0.4317 -0.0560 -0.6395
 9622TIP3    H150281   2.145   5.787   3.147 -0.8390  0.0506 -0.1216
 9622TIP3    H250282   2.250   5.678   3.146 -1.2950 -0.4402 -2.9797
 9623TIP3   OH250283   3.131   6.086  11.553 -0.4056 -0.9407 -0.1246
 9623TIP3    H150284   3.154   6.161  11.499 -1.4368 -0.7878 -0.3668
 9623TIP3    H250285   3.205   6.077  11.614 -1.2931  1.8015  1.5671
 9624TIP3   OH250286   4.073   1.809  17.458  0.0056 -0.6872 -0.2943
 9624TIP3    H150287   4.044   1.728  17.500 -0.7749  0.0657  0.6672
 9624TIP3    H250288   3.992   1.857  17.441  0.1160 -1.4584 -3.8866
 9625TIP3   OH250289   2.484   3.150   4.870 -0.8718 -0.3674  0.6912
 9625TIP3    H150290   2.473   3.204   4.948  0.2976  0.2290  0.4620
 9625TIP3    H250291   2.406   3.169   4.817 -0.9288  0.3844  1.0353
 9626TIP3   OH250292   2.109   5.800   4.857 -0.4533  0.0832  0.3790
 9626TIP3    H150293   2.068   5.795   4.943  0.9923 -2.9465  1.0633
 9626TIP3    H250294   2.200   5.826   4.876 -0.5287  0.9598 -0.4296
 9627TIP3   OH250295   5.083   2.337  14.260  0.1785  0.6060  0.7260
 9627TIP3    H150296   5.063   2.323  14.167 -1.5187  2.1176  0.7935
 9627TIP3    H250297   5.177   2.325  14.267  0.2831  0.0762 -1.1174
 9628TIP3   OH250298   3.366   0.822   1.258  0.3724  0.2110  0.2270
 9628TIP3    H150299   3.290   0.804   1.202  0.9755 -0.6854 -0.3298
 9628TIP3    H250300   3.337   0.893   1.315 -0.2855  1.1428 -1.1975
 9629TIP3   OH250301   5.284   1.861  15.522  0.2200  0.6360  0.1444
 9629TIP3    H150302   5.311   1.937  15.573  1.6579  0.8747 -0.9316
 9629TIP3    H250303   5.348   1.855  15.451 -1.0828 -0.3328 -1.0089
 9630TIP3   OH250304   0.660   1.917  11.543  0.0918  0.1242  0.1721
 9630TIP3    H150305   0.672   1.849  11.477 -1.6165 -0.0280 -0.0182
 9630TIP3    H250306   0.701   1.995  11.505 -1.0947  0.1066 -1.2045
 9631TIP3   OH250307   4.422   0.053  16.151  0.0373  0.0589 -0.6303
 9631TIP3    H150308   4.400   0.080  16.241  1.1932 -0.0152 -0.3096
 9631TIP3    H250309   4.517   0.066  16.145  0.4545 -2.6432 -0.9049
 9632TIP3   OH250310   1.859   3.729   0.744 -0.1686 -0.3548 -0.3221
 9632TIP3    H150311   1.924   3.770   0.687 -2.1043  0.5652 -2.0003
 9632TIP3    H250312   1.889   3.638   0.754  2.0869  0.3668  0.1902
 9633TIP3   OH250313   1.392   3.453   3.553 -0.1961  0.1495  0.1753
 9633TIP3    H150314   1.381   3.514   3.626 -1.7903  0.0568  0.0490
 9633TIP3    H250315   1.319   3.472   3.494  0.3024 -0.6805 -0.7361
 9634TIP3   OH250316   3.337   2.180   4.129  0.4694  0.1946 -0.2442
 9634TIP3    H150317   3.286   2.151   4.205  0.2285 -1.8586 -1.1338
 9634TIP3    H250318   3.271   2.205   4.064  0.5842 -0.6814 -0.7228
 9635TIP3   OH250319   5.081   2.100  15.277 -0.1222  0.3355 -0.3269
 9635TIP3    H150320   5.125   2.020  15.245 -2.1463 -0.5840 -0.9651
 9635TIP3    H250321   5.119   2.115  15.363 -0.0965 -1.6883  0.0768
 9636TIP3   OH250322   1.885   6.171   5.489  0.6943  0.0023  0.1237
 9636TIP3    H150323   1.894   6.187   5.395 -0.8090  2.0193  0.2539
 9636TIP3    H250324   1.935   6.240   5.531 -0.6119  0.5941  0.7679
 9637TIP3   OH250325   5.597   5.722   4.235  0.7796  0.1977 -0.0664
 9637TIP3    H150326   5.516   5.769   4.253  0.7576  0.2656 -0.3415
 9637TIP3    H250327   5.582   5.634   4.268 -0.2892 -0.4962 -2.2439
 9638TIP3   OH250328   3.093   3.921   3.743  0.0972  0.5130 -0.0455
 9638TIP3    H150329   3.047   3.900   3.824 -1.0405 -0.2295 -0.8577
 9638TIP3    H250330   3.062   4.010   3.721 -0.2914  0.3592 -0.1317
 9639TIP3   OH250331   0.882   3.959  15.276 -0.0390 -0.1689 -0.8203
 9639TIP3    H150332   0.970   3.923  15.290 -0.0435  0.7099  2.0682
 9639TIP3    H250333   0.832   3.930  15.352 -1.6844  1.0918 -1.3688
 9640TIP3   OH250334   6.081   3.582  17.624  0.2147 -0.1950 -0.5941
 9640TIP3    H150335   6.173   3.595  17.601  0.4640 -0.6203  0.1470
 9640TIP3    H250336   6.040   3.553  17.542  0.6044  0.5929 -1.0784
 9641TIP3   OH250337   1.178   4.749   1.921  0.3873  0.5123 -0.4839
 9641TIP3    H150338   1.260   4.754   1.872  0.3489  0.0864 -0.5902
 9641TIP3    H250339   1.190   4.677   1.982 -0.0819  0.1275 -0.8330
 9642TIP3   OH250340   2.319   1.473   1.996 -0.0483  0.4951 -0.7930
 9642TIP3    H150341   2.350   1.529   1.925 -0.3886 -0.5844 -1.8090
 9642TIP3    H250342   2.277   1.399   1.953 -1.3384  0.3957  0.5248
 9643TIP3   OH250343   1.616   4.510  13.423  0.2077 -0.2050 -0.6391
 9643TIP3    H150344   1.539   4.550  13.383  0.2715 -0.7394 -1.3213
 9643TIP3    H250345   1.661   4.468  13.351  0.1603 -1.4748  0.0390
 9644TIP3   OH250346   5.233   3.872   3.749  0.5235 -0.1325  0.4205
 9644TIP3    H150347   5.286   3.942   3.712  0.1269  0.9010  1.7232
 9644TIP3    H250348   5.150   3.878   3.702  0.0097  1.1933  1.4362
 9645TIP3   OH250349   1.354   0.958  17.416 -0.8579 -0.7228 -0.0179
 9645TIP3    H150350   1.329   1.018  17.486 -1.5774  0.5199 -1.2943
 9645TIP3    H250351   1.450   0.960  17.414 -0.8812  0.4691 -0.1034
 9646TIP3   OH250352   3.030   5.357   0.086 -0.0464  0.0697  0.0732
 9646TIP3    H150353   3.038   5.364  -0.009 -1.7522  1.0910 -0.0300
 9646TIP3    H250354   3.121   5.353   0.118  0.5495 -0.0347 -1.5616
 9647TIP3   OH250355   5.490   1.921   4.569  0.1672  0.3271 -0.2484
 9647TIP3    H150356   5.524   1.900   4.482 -0.0191  0.1537 -0.2800
 9647TIP3    H250357   5.562   1.902   4.628 -0.0633 -0.6224 -0.2535
 9648TIP3   OH250358   4.003   3.758  15.757 -0.0063  0.3954 -0.1058
 9648TIP3    H150359   3.940   3.754  15.829 -0.8387  1.1730 -0.7532
 9648TIP3    H250360   4.088   3.740  15.797 -0.7886 -2.2243  0.5561
 9649TIP3   OH250361   5.102   5.233  12.737  0.1414 -0.1006 -0.1317
 9649TIP3    H150362   5.117   5.169  12.667  0.2621 -0.6555  0.3918
 9649TIP3    H250363   5.012   5.216  12.765 -0.4702  1.1780 -1.1989
 9650TIP3   OH250364   2.830   5.516  12.980 -0.0683  0.6400 -0.6190
 9650TIP3    H150365   2.765   5.464  12.932  1.1022  0.1645 -1.7333
 9650TIP3    H250366   2.913   5.497  12.937  0.9972  0.4377  1.4031
 9651TIP3   OH250367   5.757   1.245  13.020  0.3996 -0.1921  0.7374
 9651TIP3    H150368   5.739   1.325  12.972  0.3012 -1.5742 -1.6993
 9651TIP3    H250369   5.852   1.234  13.015  0.5325  0.2323  1.9294
 9652TIP3   OH250370   4.907   3.881  15.416  0.5447 -0.0230 -0.1373
 9652TIP3    H150371   4.872   3.954  15.364 -0.2496 -0.0602  0.3229
 9652TIP3    H250372   4.914   3.808  15.355  0.4504  0.1785 -0.3880
 9653TIP3   OH250373   4.496   4.185  16.863  0.1571  0.5099  0.1085
 9653TIP3    H150374   4.515   4.155  16.774 -0.5124  2.7691 -0.8610
 9653TIP3    H250375   4.402   4.200  16.864  0.2506  1.1514  0.9935
 9654TIP3   OH250376   0.386   3.378  16.002 -0.2146 -0.1374  0.2372
 9654TIP3    H150377   0.472   3.339  16.020  0.9041  1.7474 -0.7148
 9654TIP3    H250378   0.356   3.409  16.087 -0.5616 -1.8939  0.7922
 9655TIP3   OH250379   6.712   3.261   6.170  0.3276  0.1343 -0.0881
 9655TIP3    H150380   6.727   3.241   6.263  1.2647 -0.6583 -0.3971
 9655TIP3    H250381   6.745   3.350   6.159  0.0692  0.2897  0.3756
 9656TIP3   OH250382   1.937   3.277   4.088  0.5742  0.5973 -0.3490
 9656TIP3    H150383   1.849   3.272   4.050 -0.4649  3.4140  1.3156
 9656TIP3    H250384   1.994   3.300   4.015 -0.8800  3.0762 -0.7982
 9657TIP3   OH250385   2.369   1.792  13.639 -0.7442  0.5618 -0.0675
 9657TIP3    H150386   2.416   1.840  13.571  0.2275  1.1776  1.0143
 9657TIP3    H250387   2.382   1.700  13.617  0.2454  0.7411 -0.2734
 9658TIP3   OH250388   1.410   5.434  13.016 -0.1180  0.3880 -0.3223
 9658TIP3    H150389   1.414   5.438  13.112  0.2355  1.8905 -0.3668
 9658TIP3    H250390   1.336   5.490  12.993 -0.5747 -0.4434 -0.9179
 9659TIP3   OH250391   1.714   0.226   3.212 -0.5904  0.0019  0.3402
 9659TIP3    H150392   1.655   0.299   3.229 -0.4699  0.4295 -0.9407
 9659TIP3    H250393   1.739   0.194   3.299  0.9808  2.7871  1.0455
 9660TIP3   OH250394   5.071   5.897   3.089 -0.4086 -0.2771  0.0578
 9660TIP3    H150395   4.979   5.913   3.109 -0.5148  0.1548 -0.7338
 9660TIP3    H250396   5.116   5.978   3.115 -0.4128 -0.0734 -0.5628
 9661TIP3   OH250397   1.175   3.759   4.887 -0.4961  0.1286  0.0320
 9661TIP3    H150398   1.222   3.783   4.807 -1.3809 -1.2632 -0.9403
 9661TIP3    H250399   1.155   3.843   4.929 -0.1782  0.8919 -1.2921
 9662TIP3   OH250400   0.668   2.475   2.388 -0.4380  0.9319 -0.1941
 9662TIP3    H150401   0.733   2.440   2.449 -0.8900  0.4760  0.0349
 9662TIP3    H250402   0.585   2.436   2.417 -0.6124  0.4857 -1.2753
 9663TIP3   OH250403   0.713   2.501  16.806 -0.0799  0.2840  0.3917
 9663TIP3    H150404   0.656   2.459  16.872 -1.0567  2.5902  1.1076
 9663TIP3    H250405   0.787   2.441  16.797 -1.6036 -1.8187  0.9742
 9664TIP3   OH250406   2.000   6.689  16.988  0.6530  0.0034 -0.1188
 9664TIP3    H150407   2.024   6.731  16.906 -1.6327 -0.9365 -1.3518
 9664TIP3    H250408   2.054   6.610  16.991  0.7673  0.0527 -0.7146
 9665TIP3   OH250409   2.445   3.215  14.808 -0.1030 -0.0100  0.1879
 9665TIP3    H150410   2.504   3.242  14.737  0.5932  1.1698  1.1838
 9665TIP3    H250411   2.496   3.151  14.857 -0.5234 -0.7001 -0.2589
 9666TIP3   OH250412   1.379   0.039   5.779  0.0007  0.2291  0.1178
 9666TIP3    H150413   1.436   0.022   5.704 -0.5632 -2.5738  0.2414
 9666TIP3    H250414   1.294   0.061   5.740  0.0788  0.1979 -0.0720
 9667TIP3   OH250415   1.750   3.107  17.543 -0.2352  0.0731 -0.0980
 9667TIP3    H150416   1.689   3.103  17.617 -1.6947 -1.1037 -1.3053
 9667TIP3    H250417   1.697   3.138  17.470  1.1403  1.0492 -0.7056
 9668TIP3   OH250418   5.462   4.219   0.575  0.3032 -0.6129  0.1509
 9668TIP3    H150419   5.524   4.203   0.645 -0.9001 -1.6258  1.0284
 9668TIP3    H250420   5.486   4.305   0.541  0.2556  0.4112  2.5200
 9669TIP3   OH250421   2.930   4.085  16.977 -0.3391  0.2662 -0.3665
 9669TIP3    H150422   2.850   4.117  17.020  0.2323  1.1341  0.0703
 9669TIP3    H250423   2.905   4.074  16.885 -0.1471  3.6505 -0.9305
 9670TIP3   OH250424   5.791   1.757  16.463 -0.0043  0.0416 -0.4384
 9670TIP3    H150425   5.822   1.676  16.423  0.1588  0.2349 -0.7106
 9670TIP3    H250426   5.712   1.781  16.414 -0.8731 -0.6981  0.5617
 9671TIP3   OH250427   4.539   1.597  13.960  0.0270 -0.4345 -0.5685
 9671TIP3    H150428   4.590   1.676  13.944  1.8580 -1.3127  0.6227
 9671TIP3    H250429   4.483   1.589  13.882  0.0678  1.7819 -0.8851
 9672TIP3   OH250430   0.587   3.333  16.519  0.3098  0.0263 -0.0523
 9672TIP3    H150431   0.567   3.270  16.588  0.4916 -0.9808 -0.8962
 9672TIP3    H250432   0.632   3.282  16.452  0.5556  1.0785 -0.7173
 9673TIP3   OH250433   0.234   4.714  13.242  0.2810 -0.1041  0.7476
 9673TIP3    H150434   0.193   4.648  13.185  0.3362  1.0768 -0.7161
 9673TIP3    H250435   0.276   4.662  13.311 -2.0403 -1.4496  1.2633
 9674TIP3   OH250436   2.484   1.879  16.357  0.5537  0.7260  0.6627
 9674TIP3    H150437   2.508   1.792  16.388  0.4282  0.2756 -0.4503
 9674TIP3    H250438   2.507   1.879  16.264 -2.7458  0.5917 -0.2850
 9675TIP3   OH250439   6.306   3.055   1.819 -0.5096 -0.2168 -0.4745
 9675TIP3    H150440   6.345   3.124   1.872 -1.5270  0.8293 -1.0524
 9675TIP3    H250441   6.379   2.996   1.799  0.6256  1.2966 -0.9351
 9676TIP3   OH250442   3.087   1.593  15.896 -0.6531  0.3374  0.2761
 9676TIP3    H150443   3.172   1.549  15.908 -1.0462 -0.1138  1.5403
 9676TIP3    H250444   3.101   1.652  15.822 -0.5997 -3.2150 -2.8320
 9677TIP3   OH250445   2.517   4.454  13.432 -0.8824 -0.6947 -0.1540
 9677TIP3    H150446   2.444   4.392  13.428 -0.5788 -1.3021  2.2109
 9677TIP3    H250447   2.595   4.398  13.441 -0.5757 -0.0330  1.7239
 9678TIP3   OH250448   4.919   0.273   0.218  0.5071  0.0908 -0.0460
 9678TIP3    H150449   4.841   0.255   0.271  0.6747 -0.2021  0.1011
 9678TIP3    H250450   4.961   0.188   0.207  0.5507  0.1736 -0.5324
 9679TIP3   OH250451   3.662   6.101   5.254  0.5036 -0.0934  0.1235
 9679TIP3    H150452   3.685   6.034   5.319  1.2585 -1.2105 -1.2215
 9679TIP3    H250453   3.567   6.090   5.242  0.6784 -1.2676 -0.3959
 9680TIP3   OH250454   6.284   1.789   1.638  0.1539  0.0737  0.0958
 9680TIP3    H150455   6.286   1.875   1.681 -0.6305 -0.4047  1.1352
 9680TIP3    H250456   6.198   1.753   1.662  0.8247 -1.3757  0.4111
 9681TIP3   OH250457   1.252   0.808   2.131  0.2108  0.5812  0.0863
 9681TIP3    H150458   1.215   0.831   2.046 -1.1600 -1.5793  0.0145
 9681TIP3    H250459   1.339   0.773   2.111  0.2086  0.8050 -0.3219
 9682TIP3   OH250460   3.384   2.513  14.456 -0.0780  0.3376 -0.0783
 9682TIP3    H150461   3.342   2.589  14.496 -0.4184  0.6082 -0.9295
 9682TIP3    H250462   3.344   2.506  14.370 -1.1806 -1.7318  0.5253
 9683TIP3   OH250463   5.627   0.462   5.393  0.0143  0.0123 -0.1730
 9683TIP3    H150464   5.660   0.469   5.483  0.9631 -1.2909 -0.3989
 9683TIP3    H250465   5.558   0.396   5.398  0.4084 -0.4282 -0.4776
 9684TIP3   OH250466   1.333   2.196  13.768 -0.3825 -0.2133 -0.0214
 9684TIP3    H150467   1.342   2.202  13.863  1.5408 -2.3589  0.0102
 9684TIP3    H250468   1.296   2.108  13.753  0.1335 -0.2361 -1.2739
 9685TIP3   OH250469   3.422   6.131  14.151  0.1103 -0.1561  0.6181
 9685TIP3    H150470   3.367   6.176  14.215  0.4858  0.5907  0.4250
 9685TIP3    H250471   3.510   6.165  14.169  0.4383 -1.0042  0.6346
 9686TIP3   OH250472   3.863   3.196  11.319 -0.3953  0.2126 -0.7687
 9686TIP3    H150473   3.852   3.129  11.387 -0.5914 -1.1945 -2.1032
 9686TIP3    H250474   3.781   3.245  11.320 -0.5100  0.0101 -0.1820
 9687TIP3   OH250475   4.487   5.197  12.124  0.1696  0.0658 -0.7099
 9687TIP3    H150476   4.574   5.175  12.157 -0.3212  1.1284  1.4563
 9687TIP3    H250477   4.445   5.112  12.110  0.5683 -0.4689  1.1056
 9688TIP3   OH250478   6.664   2.430   4.276  0.0800  0.1226  0.1703
 9688TIP3    H150479   6.700   2.451   4.190  0.6280 -0.3801  0.2741
 9688TIP3    H250480   6.595   2.366   4.258  0.1446  0.0739  0.0969
 9689TIP3   OH250481   1.014   1.695  11.850  0.4609 -0.1197  0.2860
 9689TIP3    H150482   1.014   1.729  11.760 -1.8924 -2.0933 -0.5772
 9689TIP3    H250483   0.989   1.603  11.840 -1.5635  0.0200  3.0800
 9690TIP3   OH250484   5.722   4.741  17.210  0.5586 -0.0537  0.1990
 9690TIP3    H150485   5.673   4.703  17.284  1.7591 -0.3561  0.8698
 9690TIP3    H250486   5.675   4.822  17.190 -0.1120 -0.2401  0.9349
 9691TIP3   OH250487   6.183   4.411   2.598  0.7488 -0.4276  0.2349
 9691TIP3    H150488   6.139   4.336   2.639  0.7028 -0.1490  0.7101
 9691TIP3    H250489   6.252   4.372   2.545 -0.1504 -0.8872 -0.6459
 9692TIP3   OH250490   3.205   0.874   1.737  0.0190  0.1909 -0.0482
 9692TIP3    H150491   3.229   0.966   1.747 -0.2307  0.2159  0.3333
 9692TIP3    H250492   3.113   0.876   1.712 -0.0816  0.0338  0.3089
 9693TIP3   OH250493   5.155   6.588  16.148 -0.2947  0.6331 -0.4193
 9693TIP3    H150494   5.205   6.608  16.069 -1.5196  0.7011 -1.2136
 9693TIP3    H250495   5.100   6.664  16.162 -1.5980 -0.2135 -0.7350
 9694TIP3   OH250496   0.846   4.192  17.513  0.0083 -0.4356  0.2806
 9694TIP3    H150497   0.920   4.183  17.453  0.3455 -3.1086  0.9402
 9694TIP3    H250498   0.777   4.234  17.461  0.9276 -0.8833 -1.3694
 9695TIP3   OH250499   5.288   1.489   0.897  0.0380  0.3366  0.1724
 9695TIP3    H150500   5.379   1.506   0.923  0.2386 -0.3306 -0.0587
 9695TIP3    H250501   5.260   1.569   0.854  0.6405  0.4214 -0.0824
 9696TIP3   OH250502   2.432   4.998  14.527  0.4601 -0.5001  0.5829
 9696TIP3    H150503   2.444   4.939  14.602 -2.4834 -1.4195  0.4833
 9696TIP3    H250504   2.434   4.940  14.451  0.8034  0.0357  0.1831
 9697TIP3   OH250505   2.090   4.527  15.810 -0.0257 -0.1609  0.1175
 9697TIP3    H150506   2.128   4.614  15.818  0.7916 -0.3837 -1.0179
 9697TIP3    H250507   2.145   4.483  15.745 -1.3896 -0.9722 -0.5403
 9698TIP3   OH250508   3.353   4.805  14.769  1.0057 -0.0600 -0.1700
 9698TIP3    H150509   3.326   4.733  14.711  0.6613  0.8651 -1.2123
 9698TIP3    H250510   3.376   4.876  14.709  2.2972  0.3873  0.8064
 9699TIP3   OH250511   0.854   5.493   2.749  0.1634 -0.5717 -0.2582
 9699TIP3    H150512   0.922   5.537   2.698 -0.5619  2.7247  1.3414
 9699TIP3    H250513   0.773   5.514   2.703 -0.1075 -1.9880 -0.4980
 9700TIP3   OH250514   2.288   1.116   0.646  0.5907 -0.1707 -0.6741
 9700TIP3    H150515   2.270   1.064   0.567 -2.3024 -2.2108  1.1191
 9700TIP3    H250516   2.202   1.142   0.677  1.5870  0.0628  2.1274
 9701TIP3   OH250517   2.428   1.536  13.002 -0.0197 -0.1133  0.8930
 9701TIP3    H150518   2.485   1.463  13.028  1.1185 -0.2324 -1.6413
 9701TIP3    H250519   2.484   1.592  12.948 -1.8905  0.6383 -0.3719
 9702TIP3   OH250520   1.687   4.310   6.278 -0.0511 -0.1843  0.1739
 9702TIP3    H150521   1.729   4.324   6.364 -0.7099  0.0607  0.4625
 9702TIP3    H250522   1.718   4.384   6.225 -0.5424  0.3034  0.5533
 9703TIP3   OH250523   0.996   0.365   3.983  0.5728 -0.1014  0.6589
 9703TIP3    H150524   0.994   0.272   3.962  1.1826 -0.1804  0.9544
 9703TIP3    H250525   1.014   0.408   3.899 -0.9767 -0.1522  0.2698
 9704TIP3   OH250526   1.205   1.349  11.402 -0.0555 -0.1086  0.1529
 9704TIP3    H150527   1.257   1.421  11.366 -0.2841  0.2887  0.6073
 9704TIP3    H250528   1.270   1.285  11.432  0.3070  1.2648  2.5953
 9705TIP3   OH250529   5.426   4.467   3.096 -0.0118 -0.1663  0.2534
 9705TIP3    H150530   5.332   4.470   3.076  0.3839 -0.0488 -1.7608
 9705TIP3    H250531   5.463   4.413   3.027  1.4042 -0.3868  1.1485
 9706TIP3   OH250532   3.607   5.452  17.536  0.0687 -0.0549  0.0341
 9706TIP3    H150533   3.670   5.416  17.474 -2.1306  0.5171 -2.7866
 9706TIP3    H250534   3.610   5.393  17.611  2.2255 -1.3670 -0.9861
 9707TIP3   OH250535   6.160   4.623  16.359  0.2301  0.2377  0.3663
 9707TIP3    H150536   6.091   4.644  16.296 -0.6153 -0.1981  1.1000
 9707TIP3    H250537   6.117   4.562  16.420  1.2794 -0.0431  0.8382
 9708TIP3   OH250538   5.164   1.729  14.250 -0.3405 -0.0262 -0.1031
 9708TIP3    H150539   5.150   1.693  14.338  0.1108  0.1309  0.0378
 9708TIP3    H250540   5.081   1.770  14.227 -1.1698 -1.8718 -0.6141
 9709TIP3   OH250541   1.790   3.760   2.118  0.1185 -0.5258  0.5828
 9709TIP3    H150542   1.805   3.683   2.173  1.1022 -0.3311  0.5948
 9709TIP3    H250543   1.792   3.725   2.029 -0.7698 -0.7235  0.6290
 9710TIP3   OH250544   1.582   2.664  12.921  0.2914 -0.3455  0.4712
 9710TIP3    H150545   1.621   2.696  12.840 -0.1888 -0.3384  0.2404
 9710TIP3    H250546   1.651   2.611  12.962  0.4109 -0.6547 -0.1236
 9711TIP3   OH250547   3.511   4.697  14.976 -0.0026  0.1373 -0.5659
 9711TIP3    H150548   3.593   4.679  14.931 -0.1138  0.0958 -0.7542
 9711TIP3    H250549   3.451   4.725  14.906  0.4582  2.3106 -0.1869
 9712TIP3   OH250550   1.811   6.167   2.595  0.1110  0.5516 -0.0992
 9712TIP3    H150551   1.737   6.143   2.539 -0.4843 -0.2613  0.9781
 9712TIP3    H250552   1.810   6.101   2.664  0.0688  2.1885  1.5419
 9713TIP3   OH250553   2.500   4.593  12.718 -0.0160 -0.1624  0.1590
 9713TIP3    H150554   2.535   4.511  12.685 -0.8435 -0.7082  0.5873
 9713TIP3    H250555   2.547   4.661  12.670  3.1027 -0.7571  2.1124
 9714TIP3   OH250556   0.562   0.660  12.948  0.2271 -0.0711  0.6951
 9714TIP3    H150557   0.506   0.682  13.023  1.0207  0.0654  1.2618
 9714TIP3    H250558   0.606   0.579  12.974 -0.7836 -0.9789 -0.3490
 9715TIP3   OH250559   3.818   5.034   5.311 -0.4037 -0.4693  0.3583
 9715TIP3    H150560   3.866   5.111   5.341 -0.2223 -0.5355  0.2423
 9715TIP3    H250561   3.818   5.042   5.216 -0.6308 -0.4672  0.3565
 9716TIP3   OH250562   4.025   1.392   0.797 -0.1881 -0.3483 -0.0537
 9716TIP3    H150563   3.968   1.334   0.747  0.6933 -0.2044 -1.2988
 9716TIP3    H250564   4.113   1.357   0.783  0.0114 -1.0233  2.4504
 9717TIP3   OH250565   3.963   3.901  11.999  0.3078 -0.4444 -0.2454
 9717TIP3    H150566   3.905   3.940  12.065 -1.1848 -0.1293 -1.6724
 9717TIP3    H250567   3.905   3.843  11.948  1.1043  0.3372 -2.1047
 9718TIP3   OH250568   4.568   5.093   3.062  0.2153  0.0143  0.3189
 9718TIP3    H150569   4.633   5.038   3.105  0.4943 -0.4268 -0.6454
 9718TIP3    H250570   4.606   5.112   2.976  0.2120  1.8779  0.6958
 9719TIP3   OH250571   1.119   6.076   0.640 -0.2694  0.9317  0.0808
 9719TIP3    H150572   1.202   6.038   0.670 -0.4194 -1.6519 -2.3556
 9719TIP3    H250573   1.053   6.035   0.697 -0.0995  0.6900  0.1082
 9720TIP3   OH250574   5.661   5.946   5.060 -0.1425 -0.0264 -0.7220
 9720TIP3    H150575   5.754   5.932   5.039 -0.1312 -0.9112 -0.1356
 9720TIP3    H250576   5.653   5.916   5.151 -0.6757  1.5309 -0.2417
 9721TIP3   OH250577   6.340   3.498   2.410  0.4179  0.3730 -0.0450
 9721TIP3    H150578   6.258   3.450   2.419  0.3558  0.5024  0.0769
 9721TIP3    H250579   6.375   3.503   2.500  0.6107  0.2271 -0.1101
 9722TIP3   OH250580   6.316   0.783   0.739 -0.4047  0.6323 -0.3288
 9722TIP3    H150581   6.334   0.713   0.801 -1.3914  1.0018  0.4058
 9722TIP3    H250582   6.364   0.859   0.774 -0.8162  0.7947 -0.1125
 9723TIP3   OH250583   5.850   3.797   4.856  0.3244  0.0271 -0.1995
 9723TIP3    H150584   5.922   3.857   4.837 -0.8864  1.0783 -1.6608
 9723TIP3    H250585   5.786   3.851   4.902 -0.0643 -0.5859 -0.0117
 9724TIP3   OH250586   1.449   5.950  15.447  0.3877 -0.0783 -0.0814
 9724TIP3    H150587   1.441   6.045  15.437  0.5865 -0.0848 -0.3001
 9724TIP3    H250588   1.494   5.921  15.368  1.1244 -0.2422  0.3886
 9725TIP3   OH250589   0.473   3.685  17.433  0.1525  0.1930  0.1296
 9725TIP3    H150590   0.438   3.601  17.403  0.2811  0.1555  0.0830
 9725TIP3    H250591   0.568   3.677  17.422  0.5471 -0.9562  3.2986
 9726TIP3   OH250592   6.674   5.604  17.093 -0.0059 -0.0154 -0.1750
 9726TIP3    H150593   6.607   5.554  17.139  1.0490 -0.2988  1.1343
 9726TIP3    H250594   6.704   5.545  17.023  0.2099 -0.6547  0.4407
 9727TIP3   OH250595   5.910   4.052  14.550  0.3198 -0.9344  0.1769
 9727TIP3    H150596   5.995   4.064  14.507  0.3732 -0.0746  0.4904
 9727TIP3    H250597   5.870   4.139  14.547 -0.3735 -1.2410  0.4033
 9728TIP3   OH250598   6.004   6.446  16.187  0.3588  0.1879  0.3566
 9728TIP3    H150599   5.932   6.454  16.250  0.2885  1.0356  0.1813
 9728TIP3    H250600   6.045   6.362  16.208  0.1258  0.3034  1.3177
 9729TIP3   OH250601   2.665   0.398  16.545 -0.3302 -0.5216 -0.1170
 9729TIP3    H150602   2.719   0.353  16.610  0.6751 -1.1513 -1.3441
 9729TIP3    H250603   2.578   0.401  16.584  0.7064  1.2530  2.2799
 9730TIP3   OH250604   5.008   3.260   2.896  0.0147  0.1325  0.8469
 9730TIP3    H150605   4.965   3.305   2.969 -0.3863  0.6977  0.2633
 9730TIP3    H250606   4.960   3.288   2.818  1.7716  1.2007  0.1114
 9731TIP3   OH250607   3.087   2.482  17.278 -0.2083  0.2669  0.8983
 9731TIP3    H150608   3.050   2.494  17.366  3.6915 -0.9128  2.9551
 9731TIP3    H250609   3.047   2.402  17.245 -1.1175  0.2699  1.9319
 9732TIP3   OH250610   5.717   3.383  17.389  0.0436 -0.2777  0.6354
 9732TIP3    H150611   5.631   3.367  17.427 -0.0365  0.0374  0.5948
 9732TIP3    H250612   5.711   3.348  17.300  0.2282 -1.0051  0.9031
 9733TIP3   OH250613   2.230   4.605  17.046 -0.1504  0.0971  0.2892
 9733TIP3    H150614   2.159   4.546  17.069  1.4485 -0.7634  3.5494
 9733TIP3    H250615   2.187   4.690  17.034 -1.8415 -0.6180  0.9380
 9734TIP3   OH250616   4.108   0.514   1.013  0.2792 -0.3873  0.4352
 9734TIP3    H150617   4.048   0.442   1.032  0.2015  0.0175  1.7867
 9734TIP3    H250618   4.195   0.474   1.012 -0.0315 -1.3522 -3.3741
 9735TIP3   OH250619   1.745   5.863   5.330 -0.5675 -0.2732 -0.1536
 9735TIP3    H150620   1.719   5.809   5.255 -0.2247 -1.0279  0.2627
 9735TIP3    H250621   1.679   5.844   5.397 -1.6719  1.4240 -0.6894
 9736TIP3   OH250622   0.921   4.701   4.783 -0.5399  1.0940  0.1499
 9736TIP3    H150623   0.919   4.706   4.878 -0.9189  3.2102  0.0959
 9736TIP3    H250624   0.870   4.777   4.754 -0.3660  0.5521 -1.7413
 9737TIP3   OH250625   4.953   5.298   3.821 -0.2562  0.3666 -0.2263
 9737TIP3    H150626   5.003   5.250   3.755 -0.9155  0.5496 -0.8678
 9737TIP3    H250627   4.906   5.365   3.772  0.7184  1.7571  0.6572
 9738TIP3   OH250628   0.514   2.793   2.845  0.6525 -0.5529  0.2209
 9738TIP3    H150629   0.525   2.887   2.859  0.9109 -0.7500  1.4167
 9738TIP3    H250630   0.588   2.753   2.890 -0.6835 -1.4551  1.7093
 9739TIP3   OH250631   6.016   2.981   1.983  0.3528  0.0187 -0.2892
 9739TIP3    H150632   6.038   2.948   2.071  1.0859  4.8019  1.6315
 9739TIP3    H250633   6.099   2.981   1.936  0.8620  1.2246  0.5507
 9740TIP3   OH250634   0.665   4.221  15.410 -0.0662 -0.2588 -0.1589
 9740TIP3    H150635   0.735   4.273  15.370  0.4691 -0.6505  0.2505
 9740TIP3    H250636   0.595   4.222  15.346 -1.0563  3.0092  0.7449
 9741TIP3   OH250637   1.861   2.120  14.912 -0.4515  0.6002  0.1512
 9741TIP3    H150638   1.893   2.134  14.822  0.1037 -0.1244  0.2262
 9741TIP3    H250639   1.941   2.110  14.964 -0.6967  2.7421  1.0516
 9742TIP3   OH250640   5.954   3.967   5.945  0.0096  0.0246  0.4871
 9742TIP3    H150641   5.884   3.929   5.998 -0.3741  0.7841  0.5392
 9742TIP3    H250642   6.027   3.979   6.006 -0.0360 -0.1654  0.5797
 9743TIP3   OH250643   3.849   4.187  12.288 -0.1764 -0.7340  0.0002
 9743TIP3    H150644   3.845   4.187  12.384 -0.9420  0.6368 -0.0053
 9743TIP3    H250645   3.843   4.279  12.264 -1.4031 -1.1460 -1.4140
 9744TIP3   OH250646   0.768   0.466  17.239 -0.0522  0.2961 -0.3406
 9744TIP3    H150647   0.684   0.508  17.260  0.1280  1.7530 -2.2630
 9744TIP3    H250648   0.834   0.524  17.278  0.1262  0.7186 -1.2349
 9745TIP3   OH250649   3.802   0.520   1.260 -0.3516 -0.2998  0.2650
 9745TIP3    H150650   3.856   0.573   1.319 -0.9718  0.9190 -0.2309
 9745TIP3    H250651   3.718   0.511   1.305 -1.2034  1.5555 -0.8321
 9746TIP3   OH250652   1.037   4.974  11.777  0.0629 -0.6950 -0.1365
 9746TIP3    H150653   1.105   4.910  11.801  0.9511  0.1652 -0.2767
 9746TIP3    H250654   0.969   4.962  11.842 -0.2050 -2.3944 -0.6663
 9747TIP3   OH250655   3.316   4.711   0.722 -0.1392  0.1034  0.3259
 9747TIP3    H150656   3.387   4.762   0.682  0.4142  0.5807  1.8221
 9747TIP3    H250657   3.327   4.725   0.816 -0.1840 -2.5045  0.8012
 9748TIP3   OH250658   0.791   2.709   2.536  0.3348  0.2630 -0.4236
 9748TIP3    H150659   0.838   2.628   2.559 -0.8583 -0.5541 -0.7995
 9748TIP3    H250660   0.699   2.686   2.543 -0.0329  1.2484 -1.7540
 9749TIP3   OH250661   6.653   4.505   1.016 -0.1116  0.3582 -0.4436
 9749TIP3    H150662   6.621   4.478   1.102 -2.3546 -0.2677 -1.4097
 9749TIP3    H250663   6.591   4.571   0.987  0.6746  0.6299 -1.5605
 9750TIP3   OH250664   0.858   0.738  11.190 -0.4247 -0.1221  0.1666
 9750TIP3    H150665   0.904   0.762  11.109 -2.8459 -0.3211 -1.3573
 9750TIP3    H250666   0.785   0.683  11.161 -1.8719  0.4996  2.3934
 9751TIP3   OH250667   2.845   2.668  14.060  0.3580  0.7889  0.2117
 9751TIP3    H150668   2.798   2.616  14.126 -1.4778 -0.5093 -1.9517
 9751TIP3    H250669   2.901   2.604  14.015  0.8792  1.4538 -0.1031
 9752TIP3   OH250670   5.001   3.144   1.325 -0.2978  0.1886  0.1658
 9752TIP3    H150671   5.027   3.190   1.405 -1.5875  1.0261  0.1297
 9752TIP3    H250672   5.060   3.178   1.257  0.5882 -0.2874  0.6928
 9753TIP3   OH250673   0.292   0.864  16.125  0.0166 -0.1271 -0.3499
 9753TIP3    H150674   0.219   0.909  16.082  0.1511  0.2767 -0.1625
 9753TIP3    H250675   0.271   0.771  16.118 -0.8533  0.0121  0.3069
 9754TIP3   OH250676   4.173   0.358  12.361  0.2650 -0.2452  0.4887
 9754TIP3    H150677   4.081   0.363  12.387  0.6928  1.6269  1.8006
 9754TIP3    H250678   4.185   0.433  12.302  1.0992 -0.1206  0.8107
 9755TIP3   OH250679   5.889   2.943   0.538 -0.1122 -0.0862  0.1678
 9755TIP3    H150680   5.828   3.011   0.509 -1.1853 -1.7088 -1.6117
 9755TIP3    H250681   5.833   2.871   0.568  0.9357 -1.0702 -0.1481
 9756TIP3   OH250682   3.535   0.669   0.333  0.1238 -0.5131 -0.3062
 9756TIP3    H150683   3.455   0.620   0.314 -0.2121  0.1266 -0.5701
 9756TIP3    H250684   3.605   0.605   0.322 -0.3213 -0.9962 -0.4013
 9757TIP3   OH250685   3.120   2.166  17.539 -0.0938  0.0382 -0.3090
 9757TIP3    H150686   3.067   2.137  17.613 -0.5712  2.2027  0.2784
 9757TIP3    H250687   3.200   2.114  17.544 -0.1914 -0.0076  1.6213
 9758TIP3   OH250688   1.785   2.371  16.076  0.5188  0.0577  0.1717
 9758TIP3    H150689   1.859   2.331  16.123  0.8696 -0.2849 -0.6474
 9758TIP3    H250690   1.799   2.465  16.085  2.5674  0.0718 -2.1787
 9759TIP3   OH250691   4.327   1.495  17.610  0.5860  0.1422  0.0577
 9759TIP3    H150692   4.367   1.549  17.542  1.0388 -1.5015 -1.0502
 9759TIP3    H250693   4.360   1.406  17.593 -2.4661 -1.0792 -0.1079
 9760TIP3   OH250694   1.053   6.312   5.833 -0.3398  0.1032  0.1167
 9760TIP3    H150695   1.048   6.404   5.809 -1.0937 -0.3527 -1.5613
 9760TIP3    H250696   1.109   6.311   5.911  2.8095  1.6022 -1.9440
 9761TIP3   OH250697   1.224   4.251   3.138  0.0124 -0.1641  0.3697
 9761TIP3    H150698   1.236   4.334   3.092 -0.6579 -0.5687 -0.5651
 9761TIP3    H250699   1.179   4.195   3.075  1.5592 -1.6632  0.5325
 9762TIP3   OH250700   0.487   5.724  15.777 -0.4024 -0.3348 -0.2025
 9762TIP3    H150701   0.395   5.708  15.757 -0.0266  1.4665 -4.2083
 9762TIP3    H250702   0.525   5.636  15.784 -2.0163 -1.1080 -0.7004
 9763TIP3   OH250703   1.362   6.278  16.368  0.2460  0.2543  0.2380
 9763TIP3    H150704   1.355   6.244  16.458 -0.1274  1.1763  0.5641
 9763TIP3    H250705   1.454   6.302  16.359  0.6911 -1.4672 -0.2456
 9764TIP3   OH250706   5.486   4.011   1.454 -0.1947 -0.0390 -0.1156
 9764TIP3    H150707   5.451   3.973   1.373 -1.2022 -0.2391  0.4007
 9764TIP3    H250708   5.556   4.069   1.424  0.6364 -1.4536 -0.9990
 9765TIP3   OH250709   5.183   3.975  13.619  0.3035  0.0425 -0.1924
 9765TIP3    H150710   5.245   4.003  13.686 -1.1721  1.1109  0.7900
 9765TIP3    H250711   5.113   4.041  13.621 -1.5657 -1.8215 -0.2799
 9766TIP3   OH250712   6.213   2.417  17.448 -0.6732  1.2238 -0.0313
 9766TIP3    H150713   6.302   2.380  17.451 -1.4276 -0.7915 -0.7479
 9766TIP3    H250714   6.159   2.352  17.492 -2.4593  0.1569 -3.4775
 9767TIP3   OH250715   4.418   1.400   4.252  0.3391 -0.5198  0.2961
 9767TIP3    H150716   4.378   1.320   4.287  0.9978 -0.7368  0.5789
 9767TIP3    H250717   4.501   1.407   4.298  0.2974  0.3294  0.2651
 9768TIP3   OH250718   1.111   4.809  13.359  0.4184 -0.1456 -0.5109
 9768TIP3    H150719   1.055   4.884  13.338  0.4503  0.5769  1.6878
 9768TIP3    H250720   1.099   4.797  13.454  0.3097 -3.0286 -0.8220
 9769TIP3   OH250721   6.154   2.113   5.928 -0.7532  0.2799 -0.0251
 9769TIP3    H150722   6.165   2.066   5.845  0.1776  1.6918 -0.7329
 9769TIP3    H250723   6.100   2.188   5.906  0.7666  1.5063  0.2889
 9770TIP3   OH250724   5.760   1.069   5.859  0.2628  0.0107 -0.1203
 9770TIP3    H150725   5.682   1.124   5.856 -0.5806 -0.9883  1.6110
 9770TIP3    H250726   5.818   1.113   5.919  0.2536 -0.1715  0.0237
 9771TIP3   OH250727   6.219   5.169   4.148  0.3705  0.0944  0.2546
 9771TIP3    H150728   6.180   5.202   4.067 -0.0488  0.5188  0.6330
 9771TIP3    H250729   6.283   5.103   4.118  1.4804  1.4684 -0.5350
 9772TIP3   OH250730   4.117   0.684   5.821  0.2802  0.7937  0.5067
 9772TIP3    H150731   4.030   0.712   5.848 -0.6345 -1.8868  0.6166
 9772TIP3    H250732   4.108   0.662   5.728  1.0666  1.2943  0.3014
 9773TIP3   OH250733   5.384   0.072   1.495 -0.2757  0.2439  0.0339
 9773TIP3    H150734   5.376   0.073   1.590  0.0346 -1.0747  0.0923
 9773TIP3    H250735   5.441  -0.003   1.476  0.0962  0.7953 -1.1627
 9774TIP3   OH250736   0.847   5.287   1.481  0.3079  0.6798  0.2453
 9774TIP3    H150737   0.912   5.350   1.450  1.1665  0.5990  1.7780
 9774TIP3    H250738   0.800   5.334   1.550  0.9991 -0.3470  1.4547
 9775TIP3   OH250739   2.532   1.924   5.137  0.4803 -0.3028 -0.0378
 9775TIP3    H150740   2.628   1.932   5.136  0.6436 -1.0295  2.6207
 9775TIP3    H250741   2.502   1.984   5.068  2.7714  0.9471 -0.0445
 9776TIP3   OH250742   4.417   4.453   4.902  0.0698  0.5465 -0.0775
 9776TIP3    H150743   4.354   4.524   4.891 -0.9272 -0.1570  0.8548
 9776TIP3    H250744   4.462   4.474   4.983 -1.4557 -0.7339  1.1676
 9777TIP3   OH250745   3.290   3.892   2.950 -0.5349 -0.5297  0.5399
 9777TIP3    H150746   3.250   3.979   2.951  2.0168  0.7547 -0.0060
 9777TIP3    H250747   3.308   3.873   3.042  0.3918  0.3303  0.5625
 9778TIP3   OH250748   1.178   1.860   4.830 -0.3537 -0.1857 -0.5149
 9778TIP3    H150749   1.142   1.845   4.742 -1.3952  0.6322 -0.2436
 9778TIP3    H250750   1.162   1.952   4.847  0.1786 -0.2518  0.3988
 9779TIP3   OH250751   4.143   3.292   5.554  0.3508  0.2729 -0.1668
 9779TIP3    H150752   4.097   3.363   5.599  0.5594  0.0062  0.4868
 9779TIP3    H250753   4.176   3.332   5.474 -1.0367  0.4554 -0.6720
 9780TIP3   OH250754   4.989   4.356  17.499 -0.5709  0.7574  0.1144
 9780TIP3    H150755   4.972   4.399  17.415 -2.3282  1.8974  0.9960
 9780TIP3    H250756   5.081   4.328  17.493  0.0337  2.7844 -1.3107
 9781TIP3   OH250757   0.167   5.028  17.618 -0.1137  0.1313  0.1236
 9781TIP3    H150758   0.189   4.937  17.639  0.8339  0.1827 -0.5754
 9781TIP3    H250759   0.251   5.068  17.596 -0.8368  0.4391 -2.3353
 9782TIP3   OH250760   2.775   0.225  17.202  0.1640  0.2935  0.2433
 9782TIP3    H150761   2.733   0.191  17.281 -0.4716  0.1611 -0.1399
 9782TIP3    H250762   2.822   0.151  17.165  0.5769  0.3907  0.5680
 9783TIP3   OH250763   3.418   5.366   3.067  0.3998 -0.3164 -0.1484
 9783TIP3    H150764   3.504   5.407   3.058  1.0395 -1.1315  1.7132
 9783TIP3    H250765   3.438   5.276   3.093 -1.0171 -0.9835 -1.2422
 9784TIP3   OH250766   0.386   1.635  16.158  0.3713  0.3192 -0.4315
 9784TIP3    H150767   0.326   1.561  16.169 -0.1578  0.6818 -0.8304
 9784TIP3    H250768   0.329   1.711  16.149  0.9048  1.1149  2.1152
 9785TIP3   OH250769   6.358   4.041  17.380  0.2764 -0.5549 -0.2448
 9785TIP3    H150770   6.308   3.997  17.312  1.5425 -3.1696  0.4253
 9785TIP3    H250771   6.294   4.054  17.451 -0.4688  0.1010 -1.0127
 9786TIP3   OH250772   0.686   2.941   3.341  0.3953  0.2305  0.5581
 9786TIP3    H150773   0.680   2.951   3.436  0.6105 -0.7772  0.6895
 9786TIP3    H250774   0.724   2.854   3.328  1.0937  0.6628 -0.4467
 9787TIP3   OH250775   2.364   4.545   1.074 -0.1758 -0.0795 -0.2513
 9787TIP3    H150776   2.420   4.617   1.046 -2.4164  2.1476  0.6683
 9787TIP3    H250777   2.315   4.520   0.995 -1.1239  1.1055 -0.0637
 9788TIP3   OH250778   1.151   1.573  16.340 -0.4244 -0.0906 -0.2066
 9788TIP3    H150779   1.195   1.623  16.409 -1.2500  0.8319 -0.3444
 9788TIP3    H250780   1.058   1.588  16.354 -0.6250 -0.3244 -1.2065
 9789TIP3   OH250781   5.123   2.680  13.524  0.0047 -0.1446  0.2029
 9789TIP3    H150782   5.191   2.748  13.517 -1.0811  1.0252  0.6509
 9789TIP3    H250783   5.058   2.705  13.458 -0.1178 -1.1082 -0.0510
 9790TIP3   OH250784   6.030   1.894  12.228 -0.0063  0.1860  0.5305
 9790TIP3    H150785   6.095   1.823  12.230  0.1499  0.3302  0.6063
 9790TIP3    H250786   5.982   1.881  12.146 -0.0526 -0.0744  0.5981
 9791TIP3   OH250787   3.915   4.484   4.114  0.6324  0.6291 -0.3958
 9791TIP3    H150788   3.823   4.458   4.105 -0.0051  2.8464 -0.9497
 9791TIP3    H250789   3.949   4.430   4.185 -1.0017 -0.4545 -0.3852
 9792TIP3   OH250790   6.044   5.589  14.170 -0.5289  1.0777  0.0131
 9792TIP3    H150791   6.018   5.620  14.256  0.4047  0.6286  0.4750
 9792TIP3    H250792   6.022   5.496  14.170  2.5587  0.2119  1.1123
 9793TIP3   OH250793   2.181   2.940   1.635  0.2814 -0.1061  0.2373
 9793TIP3    H150794   2.204   2.903   1.720 -1.2574  0.0066  0.7332
 9793TIP3    H250795   2.104   2.994   1.652  0.4049  0.5355 -1.0971
 9794TIP3   OH250796   1.623   5.026   5.992  0.2726  0.2608 -0.0670
 9794TIP3    H150797   1.613   5.047   5.900 -1.4347  1.9887  0.4309
 9794TIP3    H250798   1.576   4.944   6.004 -0.0059  0.3400 -0.6259
 9795TIP3   OH250799   5.251   4.596  17.590  0.3871 -0.1313 -0.7580
 9795TIP3    H150800   5.281   4.686  17.598 -1.1387  0.3011  0.5553
 9795TIP3    H250801   5.204   4.594  17.506  0.3581  0.3227 -0.7557
 9796TIP3   OH250802   3.242   6.427   0.244 -0.2374 -0.4107 -0.4060
 9796TIP3    H150803   3.196   6.481   0.180 -0.8405  0.2857  0.5823
 9796TIP3    H250804   3.334   6.445   0.230 -0.3510 -0.3893 -1.1694
 9797TIP3   OH250805   5.841   6.453   3.443 -0.7541 -0.1150  0.2865
 9797TIP3    H150806   5.912   6.501   3.486  0.0500 -0.8520 -0.1722
 9797TIP3    H250807   5.767   6.460   3.504  0.3200 -1.0586  1.8060
 9798TIP3   OH250808   3.376   3.489  12.036  0.0730  0.5361  0.5400
 9798TIP3    H150809   3.350   3.580  12.022 -0.5585  0.1895 -0.6771
 9798TIP3    H250810   3.378   3.450  11.948  2.6977 -0.0215  0.7679
 9799TIP3   OH250811   0.084   6.711  10.996  0.2351 -0.0324  0.2346
 9799TIP3    H150812   0.002   6.663  10.989 -0.1961  0.8010 -0.6910
 9799TIP3    H250813   0.148   6.656  10.950 -0.5050  0.7703 -1.8844
 9800TIP3   OH250814   5.441   0.181  12.966  0.0916  0.3038  0.2677
 9800TIP3    H150815   5.429   0.092  12.932  1.0087  1.0067 -2.1203
 9800TIP3    H250816   5.439   0.171  13.062 -1.7172 -1.9682  0.0694
 9801TIP3   OH250817   0.214   6.668   0.084  0.5298 -0.8593  0.3132
 9801TIP3    H150818   0.203   6.578   0.053  0.7274 -0.0664 -2.2315
 9801TIP3    H250819   0.135   6.713   0.053  1.8516  0.5136 -1.2330
 9802TIP3   OH250820   3.637   1.161  15.185  0.6205 -0.5601 -0.5211
 9802TIP3    H150821   3.606   1.096  15.248 -0.5493 -0.4774 -0.9877
 9802TIP3    H250822   3.582   1.237  15.200  1.6705  0.1852 -0.3004
 9803TIP3   OH250823   3.961   1.057   2.140 -0.4314 -0.4309 -0.0590
 9803TIP3    H150824   4.016   0.991   2.097  2.2784  0.5002  1.6757
 9803TIP3    H250825   3.997   1.141   2.111  0.4144  0.2064  2.5183
 9804TIP3   OH250826   0.965   2.092  15.422 -0.0704 -0.2982 -0.0140
 9804TIP3    H150827   0.881   2.074  15.464 -0.3663  2.2371  0.6126
 9804TIP3    H250828   0.944   2.143  15.345  0.8057 -1.2672 -0.9356
 9805TIP3   OH250829   3.875   4.444   0.899  0.1415  0.2737  0.1081
 9805TIP3    H150830   3.827   4.375   0.852 -1.2352  0.0764  1.7285
 9805TIP3    H250831   3.942   4.397   0.949 -0.0857  0.2203  0.3630
 9806TIP3   OH250832   4.866   6.311   4.808  0.4838 -0.2965  0.0402
 9806TIP3    H150833   4.907   6.398   4.810 -0.4249  0.1324  0.9309
 9806TIP3    H250834   4.804   6.315   4.735 -1.0448  0.5407  1.3220
 9807TIP3   OH250835   1.762   0.100   0.402  0.5562  0.2051  0.1532
 9807TIP3    H150836   1.751   0.027   0.341 -0.1960  0.4565 -0.0216
 9807TIP3    H250837   1.850   0.088   0.437  0.4506 -0.7813  0.1241
 9808TIP3   OH250838   5.029   2.621  12.465  0.1075  0.3027  0.4020
 9808TIP3    H150839   4.935   2.638  12.468 -0.0631 -0.0637 -1.5766
 9808TIP3    H250840   5.037   2.533  12.428  1.2284 -0.2320  1.7887
 9809TIP3   OH250841   5.942   3.154  16.739 -0.0314 -0.3897  0.8230
 9809TIP3    H150842   5.893   3.074  16.721  0.6954 -0.7387  0.3886
 9809TIP3    H250843   5.874   3.220  16.755 -0.6828 -1.6681  4.0440
 9810TIP3   OH250844   6.219   4.067  11.346  0.1796  0.2310  0.5289
 9810TIP3    H150845   6.197   3.978  11.320  1.0259  0.5016 -1.2884
 9810TIP3    H250846   6.135   4.107  11.369 -0.2685 -0.8523  0.8348
 9811TIP3   OH250847   0.703   1.854  13.685  0.5524  0.1739 -0.2890
 9811TIP3    H150848   0.651   1.924  13.646 -0.9363  0.8910  2.6981
 9811TIP3    H250849   0.655   1.774  13.663 -0.5029  0.6031  0.3504
 9812TIP3   OH250850   6.602   3.201   3.087 -0.3272  0.1861 -0.1469
 9812TIP3    H150851   6.632   3.134   3.025  0.8359  0.4804  0.0656
 9812TIP3    H250852   6.667   3.198   3.158 -0.0667  1.7512 -0.2811
 9813TIP3   OH250853   3.458   4.729  11.974  0.2107  0.4252  0.4409
 9813TIP3    H150854   3.395   4.737  11.903  0.0259 -0.7667  0.4422
 9813TIP3    H250855   3.434   4.647  12.018  2.7451 -1.0049 -0.5847
 9814TIP3   OH250856   2.163   1.089  14.345  0.3241  0.7684  0.3522
 9814TIP3    H150857   2.220   1.094  14.268  1.0954 -2.6809  0.5305
 9814TIP3    H250858   2.092   1.150  14.326  0.1587 -0.3167 -3.4110
 9815TIP3   OH250859   0.108   2.879   2.024  0.4146 -0.4218 -0.5690
 9815TIP3    H150860   0.138   2.964   2.056 -0.9371 -0.1436  0.0176
 9815TIP3    H250861   0.074   2.897   1.937  1.2008 -0.6042 -0.9308
 9816TIP3   OH250862   0.281   1.710   5.317  0.5171 -0.1504  0.3123
 9816TIP3    H150863   0.218   1.719   5.246  0.1783 -0.4886  0.5652
 9816TIP3    H250864   0.241   1.647   5.377  1.6839 -1.4542 -0.1955
 9817TIP3   OH250865   6.319   3.103  12.424 -0.0315 -0.2528 -0.1237
 9817TIP3    H150866   6.407   3.077  12.448 -0.7724 -2.5802  0.2968
 9817TIP3    H250867   6.318   3.198  12.436  2.1019 -0.2962  0.8280
 9818TIP3   OH250868   3.729   3.199   2.463  0.3077 -0.5995 -0.1156
 9818TIP3    H150869   3.812   3.152   2.457 -0.4578 -2.3560  1.6826
 9818TIP3    H250870   3.700   3.185   2.554 -1.1282  1.4195 -0.1945
 9819TIP3   OH250871   2.699   2.789  10.874 -0.5349  0.3581 -0.5651
 9819TIP3    H150872   2.656   2.871  10.846  1.3542  1.1673 -1.2545
 9819TIP3    H250873   2.783   2.817  10.910  0.2392 -1.2951 -0.9870
 9820TIP3   OH250874   1.541   5.005  11.924 -0.3052 -0.1895 -0.2043
 9820TIP3    H150875   1.581   5.091  11.930 -1.0202  0.1468 -0.1315
 9820TIP3    H250876   1.549   4.968  12.012  2.8596 -1.5471 -0.9245
 9821TIP3   OH250877   1.780   4.090  11.439 -0.3779 -0.3060  0.1396
 9821TIP3    H150878   1.702   4.104  11.492 -0.3414 -1.7675  0.6091
 9821TIP3    H250879   1.771   4.002  11.404  2.1759 -1.5135  2.1719
 9822TIP3   OH250880   1.112   0.087   6.380 -0.4834 -0.1113 -0.0747
 9822TIP3    H150881   1.083   0.128   6.298  0.5267  1.8532  0.4812
 9822TIP3    H250882   1.154   0.006   6.353 -1.0154  0.0360 -1.4138
 9823TIP3   OH250883   5.710   6.698   1.872 -0.1278 -0.3632  0.2477
 9823TIP3    H150884   5.760   6.772   1.907 -0.3616 -0.0797 -0.0021
 9823TIP3    H250885   5.695   6.722   1.780  1.0275 -1.3831 -0.2332
 9824TIP3   OH250886   4.285   6.046  17.100 -0.1964 -0.4734 -0.2076
 9824TIP3    H150887   4.201   6.019  17.065  0.4198 -0.8743 -1.4090
 9824TIP3    H250888   4.303   6.130  17.057  1.1849 -1.6082 -1.9343
 9825TIP3   OH250889   0.425   0.245   5.075  0.0674  0.0946  0.4730
 9825TIP3    H150890   0.403   0.274   5.164 -0.1019  0.6064  0.2682
 9825TIP3    H250891   0.342   0.212   5.040 -0.2720  1.4850 -0.0936
 9826TIP3   OH250892   3.581   1.026  14.377  0.6948 -0.8149 -0.2732
 9826TIP3    H150893   3.539   1.049  14.460  1.4316 -0.6366  0.0651
 9826TIP3    H250894   3.670   0.999  14.402  1.3659  0.5004 -1.1129
 9827TIP3   OH250895   2.826   5.422   3.197 -0.0203 -0.2730  0.1665
 9827TIP3    H150896   2.791   5.333   3.204  1.7007 -0.9423  0.8588
 9827TIP3    H250897   2.895   5.426   3.263  1.2958  0.9253 -1.1958
 9828TIP3   OH250898   1.309   2.918   5.590  0.1796  0.3370 -0.4832
 9828TIP3    H150899   1.404   2.925   5.581 -0.0658  1.6492 -2.9129
 9828TIP3    H250900   1.275   2.940   5.503 -2.3010 -1.8339 -0.1971
 9829TIP3   OH250901   1.075   4.350   2.067 -0.1776 -0.7464 -0.6041
 9829TIP3    H150902   1.087   4.363   1.973  1.6385  0.7817 -0.2082
 9829TIP3    H250903   1.145   4.290   2.092 -0.3314 -0.7260 -0.1197
 9830TIP3   OH250904   4.804   6.011  12.950 -0.2326  0.1539 -0.0385
 9830TIP3    H150905   4.896   5.991  12.939 -0.6802 -2.6781  0.6383
 9830TIP3    H250906   4.785   6.078  12.884  1.7209 -1.0384 -1.8953
 9831TIP3   OH250907   6.486   5.310   4.599  0.1567  0.2290  0.1788
 9831TIP3    H150908   6.483   5.281   4.508 -0.0939  2.3406 -0.5637
 9831TIP3    H250909   6.575   5.291   4.629 -0.5275 -3.0360  0.4851
 9832TIP3   OH250910   1.284   4.867  11.194  0.4498 -0.0640 -0.4660
 9832TIP3    H150911   1.335   4.855  11.114 -0.0372  1.3701 -1.0434
 9832TIP3    H250912   1.216   4.801  11.189  0.9366 -0.5502 -0.8035
 9833TIP3   OH250913   3.292   0.169   6.094  0.2471  0.1790 -0.0563
 9833TIP3    H150914   3.352   0.241   6.075 -0.2100  0.6352  0.2165
 9833TIP3    H250915   3.238   0.201   6.166 -2.6823  1.1830 -2.4961
 9834TIP3   OH250916   1.260   4.625  16.331  0.1606  0.3063 -0.6558
 9834TIP3    H150917   1.320   4.626  16.257 -0.4721 -1.5567 -1.2682
 9834TIP3    H250918   1.183   4.673  16.300 -0.2094 -0.6913 -1.3527
 9835TIP3   OH250919   5.620   3.471  15.003 -0.3395  0.1256 -0.7619
 9835TIP3    H150920   5.666   3.443  14.923  1.4708 -2.1268  0.9279
 9835TIP3    H250921   5.571   3.393  15.031 -1.0671  0.9189  0.2399
 9836TIP3   OH250922   3.174   6.364  13.731 -0.0665  0.4720  0.4440
 9836TIP3    H150923   3.260   6.398  13.756  0.8634  0.3226 -2.1950
 9836TIP3    H250924   3.180   6.270  13.748  1.3512  0.0095 -2.0828
 9837TIP3   OH250925   1.395   0.416  14.489  0.0664 -0.4549  0.2186
 9837TIP3    H150926   1.318   0.387  14.538  0.3899 -1.2563  0.2793
 9837TIP3    H250927   1.380   0.509  14.473 -0.5324 -0.4154  0.9388
 9838TIP3   OH250928   2.790   4.009  12.092  0.8918  0.2098  0.2218
 9838TIP3    H150929   2.746   3.968  12.167 -0.7134 -0.9225 -1.2610
 9838TIP3    H250930   2.734   4.084  12.071  0.3679 -0.4593 -0.8538
 9839TIP3   OH250931   1.163   6.408   5.500 -0.1227 -0.3301 -0.4995
 9839TIP3    H150932   1.252   6.409   5.466 -0.0408  0.4007 -0.2794
 9839TIP3    H250933   1.109   6.379   5.426  0.2771 -0.6225 -0.6777
 9840TIP3   OH250934   1.986   2.502  12.385 -0.8977  0.0576 -0.2328
 9840TIP3    H150935   1.932   2.452  12.445  0.9873 -2.4237 -0.4326
 9840TIP3    H250936   1.929   2.521  12.311 -2.4610  0.7740  1.0856
 9841TIP3   OH250937   3.984   5.195   3.490 -0.6392 -0.0969  0.3377
 9841TIP3    H150938   4.046   5.228   3.425  1.3227  1.0805  2.6314
 9841TIP3    H250939   3.906   5.249   3.480 -1.7283 -2.0020 -3.0185
 9842TIP3   OH250940   5.654   3.217  15.333  0.3557  0.7057  0.5098
 9842TIP3    H150941   5.561   3.198  15.341  0.4554  0.1244  0.3388
 9842TIP3    H250942   5.684   3.232  15.423  0.8659 -2.8955  1.0811
 9843TIP3   OH250943   0.096   3.887  16.855  0.3513  0.2670 -0.5980
 9843TIP3    H150944   0.091   3.805  16.905 -0.9492  0.5607 -0.2044
 9843TIP3    H250945   0.018   3.886  16.800 -0.6503  2.0193  0.6826
 9844TIP3   OH250946   3.020   4.479   3.035 -0.0299 -0.0691 -0.7374
 9844TIP3    H150947   2.947   4.448   3.089  0.2563 -0.4859 -0.5855
 9844TIP3    H250948   3.001   4.447   2.947 -0.0999 -0.0539 -0.7281
 9845TIP3   OH250949   4.343   5.033  16.121 -0.1725  0.0230 -0.0710
 9845TIP3    H150950   4.300   5.037  16.036 -1.8019  0.9277  0.7580
 9845TIP3    H250951   4.297   4.963  16.168 -1.4627  1.6171  1.1626
 9846TIP3   OH250952   6.299   3.398  12.108  0.3377  0.3668  0.3150
 9846TIP3    H150953   6.377   3.348  12.087  1.9107  1.3549  3.2925
 9846TIP3    H250954   6.322   3.489  12.086  0.2919  0.7454  1.7458
 9847TIP3   OH250955   4.478   1.325   5.643 -0.2017  0.1873 -0.3292
 9847TIP3    H150956   4.466   1.296   5.734  0.1625 -0.1827 -0.3985
 9847TIP3    H250957   4.560   1.375   5.645  0.2324 -0.5059 -0.6157
 9848TIP3   OH250958   2.420   0.693   3.280  0.2493 -0.2895 -0.0107
 9848TIP3    H150959   2.477   0.747   3.335  1.8207  0.3209 -2.1114
 9848TIP3    H250960   2.399   0.748   3.206 -0.2530 -1.6934 -0.9534
 9849TIP3   OH250961   1.313   5.895   4.301  0.5714 -0.2767  0.3189
 9849TIP3    H150962   1.237   5.947   4.276  1.4285  1.6126  1.4198
 9849TIP3    H250963   1.280   5.834   4.367  0.0723  0.9460  1.2476
 9850TIP3   OH250964   3.509   0.162   2.862 -0.3774 -0.3332 -0.0412
 9850TIP3    H150965   3.503   0.106   2.785 -0.3997  0.4526 -0.6201
 9850TIP3    H250966   3.419   0.186   2.882 -0.5209 -1.7189  1.1378
 9851TIP3   OH250967   2.062   3.957  12.625  0.5045  0.3462 -0.3033
 9851TIP3    H150968   2.089   3.866  12.624 -0.6901 -0.0478  0.3456
 9851TIP3    H250969   2.049   3.980  12.533  0.6076 -0.1984 -0.4540
 9852TIP3   OH250970   4.936   5.811  17.574 -0.1524 -0.6264 -0.0164
 9852TIP3    H150971   4.880   5.745  17.534  0.2513 -1.1827  0.3067
 9852TIP3    H250972   4.880   5.857  17.636 -0.3427 -0.9222  0.0286
 9853TIP3   OH250973   3.877   1.423   2.795  0.0503  0.3144 -0.0112
 9853TIP3    H150974   3.847   1.513   2.784  1.9280  1.4257  2.7585
 9853TIP3    H250975   3.970   1.425   2.770  0.8589 -0.0899  2.6198
 9854TIP3   OH250976   0.470   5.479   1.629  0.1603 -0.5119  0.2220
 9854TIP3    H150977   0.525   5.499   1.553 -0.4192 -0.9457 -0.3205
 9854TIP3    H250978   0.418   5.404   1.602 -1.4695  0.5219  0.3311
 9855TIP3   OH250979   1.988   6.301  15.807 -0.1975  0.2674 -0.3371
 9855TIP3    H150980   2.073   6.258  15.810 -0.8732 -1.1508 -0.6539
 9855TIP3    H250981   1.967   6.307  15.714  0.2046  1.9935 -0.3414
 9856TIP3   OH250982   3.527   0.828  12.562  0.1129 -0.3820 -0.0954
 9856TIP3    H150983   3.600   0.778  12.527  0.4861 -0.6463  1.0222
 9856TIP3    H250984   3.528   0.910  12.512  2.4284  0.4763  1.1504
 9857TIP3   OH250985   0.640   6.173   3.682  0.5938  0.1215  0.2612
 9857TIP3    H150986   0.700   6.123   3.627  1.2439  0.1112  0.9596
 9857TIP3    H250987   0.583   6.107   3.722  0.5639  0.0685  0.1304
 9858TIP3   OH250988   1.743   1.767  14.134 -0.0516 -0.0309  0.2924
 9858TIP3    H150989   1.737   1.729  14.046  1.2372 -1.2314  0.6920
 9858TIP3    H250990   1.829   1.808  14.137 -0.2506  0.3631  0.8678
 9859TIP3   OH250991   0.350   6.592  15.599  0.2153  0.0206 -0.2975
 9859TIP3    H150992   0.373   6.625  15.686 -1.1768 -0.2071  0.1683
 9859TIP3    H250993   0.435   6.576  15.557  0.9164 -0.3436  1.1898
 9860TIP3   OH250994   2.240   2.603  13.753  0.3592  1.0603  0.0696
 9860TIP3    H150995   2.287   2.542  13.811  2.7893  3.5449  0.9743
 9860TIP3    H250996   2.253   2.567  13.666 -1.9881 -1.9116  0.7819
 9861TIP3   OH250997   5.196   1.052  10.912  0.6615 -0.2271  0.6615
 9861TIP3    H150998   5.286   1.030  10.889  1.0473  1.1834  0.7203
 9861TIP3    H250999   5.197   1.146  10.926 -1.0023 -0.0525 -0.1046
 9862TIP3   OH251000   1.982   2.747  11.740 -0.1067  0.1560 -0.0777
 9862TIP3    H151001   2.050   2.705  11.687 -1.4172 -2.3892  0.0821
 9862TIP3    H251002   1.905   2.746  11.684 -0.8792 -0.2954  0.9667
 9863TIP3   OH251003   5.876   6.440  15.905 -0.0424  0.2224 -0.8258
 9863TIP3    H151004   5.832   6.461  15.822 -2.7644  1.5492  0.8354
 9863TIP3    H251005   5.938   6.512  15.918 -0.6986  0.8154 -0.9657
 9864TIP3   OH251006   2.168   5.592   2.577 -0.2412  0.5273 -0.3210
 9864TIP3    H151007   2.241   5.565   2.633 -2.2348 -2.3132  1.1292
 9864TIP3    H251008   2.163   5.524   2.509 -2.7079 -0.5474  0.8240
 9865TIP3   OH251009   1.589   5.941   4.376  0.2739 -0.0182  0.2323
 9865TIP3    H151010   1.582   5.903   4.463 -0.5724 -2.5174 -0.8375
 9865TIP3    H251011   1.500   5.968   4.354  0.4843  0.6108  0.1201
 9866TIP3   OH251012   4.556   5.623  11.597 -0.1715 -0.4643  0.1356
 9866TIP3    H151013   4.492   5.694  11.605 -1.4704 -1.3461 -1.6808
 9866TIP3    H251014   4.639   5.668  11.577 -0.9155  0.5801 -0.7443
 9867TIP3   OH251015   6.198   0.956  14.981 -0.3660 -0.7096 -0.1548
 9867TIP3    H151016   6.154   0.985  14.901  1.2343 -0.6781 -1.0758
 9867TIP3    H251017   6.281   1.004  14.981  0.1641 -1.5918  0.9081
 9868TIP3   OH251018   1.570   1.676  15.813 -0.0120  0.1020 -0.0410
 9868TIP3    H151019   1.637   1.724  15.861 -0.2773 -0.3283  0.7846
 9868TIP3    H251020   1.495   1.736  15.810  0.7623  1.0651 -2.0203
 9869TIP3   OH251021   6.429   5.067  17.410  0.3768  0.6291 -0.1740
 9869TIP3    H151022   6.497   5.034  17.352 -0.2100 -2.6769  0.8519
 9869TIP3    H251023   6.346   5.044  17.368 -0.1079 -3.5044  2.5158
 9870TIP3   OH251024   0.979   2.399   6.358 -0.7795  0.1654 -0.1380
 9870TIP3    H151025   0.909   2.364   6.303 -0.9612 -1.1182  0.8818
 9870TIP3    H251026   0.949   2.487   6.381 -2.0680 -0.3624  0.2787
 9871TIP3   OH251027   2.205   4.873   4.653  0.3369  0.2715 -0.5332
 9871TIP3    H151028   2.261   4.940   4.614 -0.7733  1.8674  0.5025
 9871TIP3    H251029   2.216   4.885   4.747  0.0414 -0.9559 -0.3322
 9872TIP3   OH251030   6.662   5.616  12.860  0.0217  0.1986 -0.4904
 9872TIP3    H151031   6.681   5.638  12.769  0.1702  1.7643 -0.1117
 9872TIP3    H251032   6.601   5.543  12.855  2.2819 -1.7332 -1.7864
 9873TIP3   OH251033   5.715   1.135  11.979  0.3722 -0.0552 -0.3456
 9873TIP3    H151034   5.722   1.121  11.885 -0.4558 -0.7357 -0.3209
 9873TIP3    H251035   5.714   1.047  12.017 -1.3371  0.1315  0.1168
 9874TIP3   OH251036   2.542   0.960   2.905 -0.3371 -0.1050  0.2069
 9874TIP3    H151037   2.530   0.983   2.813 -0.8599  0.7593  0.4830
 9874TIP3    H251038   2.566   0.867   2.904 -1.0446 -0.2862 -0.7559
 9875TIP3   OH251039   1.559   4.243   2.190  0.0019 -0.2390  0.1974
 9875TIP3    H151040   1.482   4.216   2.140 -0.5276  0.1557  0.7885
 9875TIP3    H251041   1.627   4.259   2.123 -0.7885  0.6138 -0.4201
 9876TIP3   OH251042   0.110   4.911   1.033 -0.6380 -0.1602  0.1655
 9876TIP3    H151043   0.057   4.855   0.976 -0.8255  0.0880  0.0931
 9876TIP3    H251044   0.183   4.939   0.978 -1.1351  0.5641 -0.1483
 9877TIP3   OH251045   3.901   0.998  15.517 -0.0901 -0.1318  0.3021
 9877TIP3    H151046   3.952   0.950  15.583 -0.3687 -1.2226 -0.2427
 9877TIP3    H251047   3.934   0.966  15.433 -0.4773  0.4429 -0.0728
 9878TIP3   OH251048   4.955   3.206   0.164 -0.2407  0.2504 -0.0196
 9878TIP3    H151049   4.950   3.215   0.069 -0.2106  0.5386  0.0047
 9878TIP3    H251050   4.988   3.117   0.178 -0.4187  0.1425 -0.2743
 9879TIP3   OH251051   3.142   1.501  15.254  0.1257 -0.3473 -0.3172
 9879TIP3    H151052   3.132   1.413  15.289 -1.7480  1.0398  3.0757
 9879TIP3    H251053   3.053   1.531  15.236  0.4472  1.7323  1.1849
 9880TIP3   OH251054   2.734   6.005   5.882  0.2578  0.1320 -0.5953
 9880TIP3    H151055   2.754   5.961   5.799 -0.7402 -0.0638 -0.7555
 9880TIP3    H251056   2.801   5.973   5.943  1.6726  1.1277 -1.5775
 9881TIP3   OH251057   3.321   1.011  14.916  0.0336 -0.0927  0.6615
 9881TIP3    H151058   3.307   1.036  15.008  0.7189 -0.3260  0.8359
 9881TIP3    H251059   3.415   0.996  14.910  0.1951  1.2080 -0.4091
 9882TIP3   OH251060   3.515   0.988  13.703 -0.3272 -0.8306  0.1376
 9882TIP3    H151061   3.599   1.033  13.707  0.6468 -2.6447  1.0452
 9882TIP3    H251062   3.502   0.969  13.610 -0.5321  0.8034 -0.2122
 9883TIP3   OH251063   5.390   3.109  11.578 -0.0767 -0.3425  0.6105
 9883TIP3    H151064   5.433   3.090  11.661 -1.6803  3.1556  2.4975
 9883TIP3    H251065   5.352   3.196  11.590 -0.2554  0.4769 -3.9153
 9884TIP3   OH251066   6.473   0.604   6.108 -0.2210  0.4849 -0.2702
 9884TIP3    H151067   6.414   0.620   6.182  1.1422  1.9484  0.5497
 9884TIP3    H251068   6.560   0.600   6.147  0.4781  0.8160 -1.7383
 9885TIP3   OH251069   3.916   2.859  17.433  0.2270  0.4929  0.0292
 9885TIP3    H151070   3.903   2.792  17.500  1.6378 -1.6140 -1.6586
 9885TIP3    H251071   3.856   2.835  17.363 -1.0396  2.5110  0.3479
 9886TIP3   OH251072   0.815   2.921  14.334  0.1214 -0.0611  0.2987
 9886TIP3    H151073   0.751   2.909  14.264  1.3419 -0.7302 -0.7561
 9886TIP3    H251074   0.891   2.869  14.306  1.1833  0.8231  1.4109
 9887TIP3   OH251075   2.496   2.811   0.299 -0.3683  0.0536  0.3018
 9887TIP3    H151076   2.544   2.818   0.381  1.7519  2.0738 -0.9767
 9887TIP3    H251077   2.549   2.751   0.246  0.0485  1.1861 -0.6221
 9888TIP3   OH251078   3.452   1.369  15.167 -0.4702  0.6339  0.0436
 9888TIP3    H151079   3.526   1.429  15.179  0.1860  0.3522 -2.2038
 9888TIP3    H251080   3.376   1.420  15.194  0.4206  1.1930  1.6686
 9889TIP3   OH251081   3.585   2.551   2.215 -0.1900 -0.0799  0.2365
 9889TIP3    H151082   3.518   2.611   2.246 -2.4443 -0.7539 -2.8914
 9889TIP3    H251083   3.649   2.606   2.169 -0.6945  0.2160 -0.1102
 9890TIP3   OH251084   2.689   6.212   0.050 -0.7979 -0.3049 -0.5485
 9890TIP3    H151085   2.678   6.258  -0.034 -0.5268  0.9008  0.0603
 9890TIP3    H251086   2.775   6.240   0.082 -1.2269 -0.1238  0.4949
 9891TIP3   OH251087   2.877   3.164   2.114 -0.1293 -0.2616  0.6533
 9891TIP3    H151088   2.863   3.117   2.196  0.4364 -0.3189  0.7222
 9891TIP3    H251089   2.810   3.232   2.114  0.4588  0.3524  1.6247
 9892TIP3   OH251090   3.300   0.045   4.290  0.3938  0.0418 -0.4143
 9892TIP3    H151091   3.231  -0.017   4.314 -0.1240  1.0832  0.8852
 9892TIP3    H251092   3.368   0.033   4.356 -0.0538  1.3641  0.3350
 9893TIP3   OH251093   1.917   2.490  16.364 -0.2751  0.3053  0.0896
 9893TIP3    H151094   1.946   2.540  16.441 -0.4620 -2.5567  2.1840
 9893TIP3    H251095   1.992   2.434  16.342 -1.0619 -0.6344 -0.2477
 9894TIP3   OH251096   3.532   2.536   1.547 -0.4094  0.1829 -0.2423
 9894TIP3    H151097   3.463   2.559   1.609 -1.3011 -0.7899 -0.8387
 9894TIP3    H251098   3.598   2.605   1.558 -1.2106  0.8256  0.7415
 9895TIP3   OH251099   6.395   5.141  16.892  0.2566 -0.1714 -0.2899
 9895TIP3    H151100   6.307   5.169  16.866 -1.1678 -2.3637  1.7164
 9895TIP3    H251101   6.452   5.214  16.867 -2.4719  2.4761  0.6360
 9896TIP3   OH251102   1.262   0.645   6.322  0.0203 -0.0022 -0.6929
 9896TIP3    H151103   1.352   0.652   6.357  0.5831  2.0110 -2.3722
 9896TIP3    H251104   1.250   0.552   6.307  0.8284 -0.6395  1.9702
 9897TIP3   OH251105   2.689   5.996  17.478  0.1901  0.3716  0.5167
 9897TIP3    H151106   2.612   5.966  17.526 -1.4690  2.6596 -0.5348
 9897TIP3    H251107   2.721   6.070  17.531  0.1067  1.0388 -0.3493
 9898TIP3   OH251108   2.798   3.894  14.783  0.0953  0.7715  0.5911
 9898TIP3    H151109   2.840   3.966  14.736  0.2842 -0.2235 -0.8540
 9898TIP3    H251110   2.724   3.870  14.727  0.0480 -0.1712  1.0420
 9899TIP3   OH251111   1.271   1.832   5.949 -0.6292 -0.7631 -0.0470
 9899TIP3    H151112   1.224   1.749   5.948 -0.9208 -0.6159  0.6376
 9899TIP3    H251113   1.355   1.813   5.910 -0.8238 -1.3061 -0.2073
 9900TIP3   OH251114   5.040   5.303  12.395  0.3981 -0.7896 -0.3052
 9900TIP3    H151115   5.026   5.390  12.357 -1.2649 -1.8188 -2.2391
 9900TIP3    H251116   5.115   5.314  12.454 -0.9937  2.3863  1.0759
 9901TIP3   OH251117   1.292   1.655  15.387 -0.3253 -0.1778 -0.0456
 9901TIP3    H151118   1.311   1.741  15.426  3.1913 -0.8067  0.0152
 9901TIP3    H251119   1.309   1.667  15.294 -0.2710 -0.6601 -0.0983
 9902TIP3   OH251120   1.615   4.302   5.184 -0.1111  0.1443  0.0302
 9902TIP3    H151121   1.677   4.229   5.180 -1.3067 -0.8638 -1.1900
 9902TIP3    H251122   1.555   4.279   5.254  1.7734  1.9501  2.4204
 9903TIP3   OH251123   4.218   5.759  16.739 -0.0468 -0.4287 -0.0932
 9903TIP3    H151124   4.159   5.716  16.678  0.2869  0.1146 -0.8041
 9903TIP3    H251125   4.298   5.706  16.737  0.7070  0.6944 -1.6656
 9904TIP3   OH251126   1.598   3.022  13.566  0.6641  0.3458  0.1444
 9904TIP3    H151127   1.649   3.043  13.644  1.1796 -0.7197  0.1199
 9904TIP3    H251128   1.664   3.007  13.498  0.2695  0.1188 -0.1927
 9905TIP3   OH251129   5.680   4.727   6.632 -0.0825  0.0552 -0.2247
 9905TIP3    H151130   5.762   4.769   6.658  1.3479 -0.7382 -3.0548
 9905TIP3    H251131   5.626   4.799   6.599  1.2922  0.1042 -2.5222
 9906TIP3   OH251132   4.855   5.694   5.336 -0.4442 -0.1195 -0.3360
 9906TIP3    H151133   4.946   5.707   5.310 -0.9150 -0.0502 -2.1236
 9906TIP3    H251134   4.835   5.605   5.308 -1.0093 -0.0326 -0.2271
 9907TIP3   OH251135   3.905   4.762   0.252 -0.6886 -0.4942 -0.0402
 9907TIP3    H151136   3.904   4.683   0.307 -0.6501 -1.2228 -1.0652
 9907TIP3    H251137   3.994   4.797   0.262 -0.7882 -0.4126  0.6328
 9908TIP3   OH251138   0.518   6.600  16.209 -0.0524  0.1745  0.1090
 9908TIP3    H151139   0.520   6.509  16.241 -0.6094  0.3369  0.6329
 9908TIP3    H251140   0.541   6.652  16.286  0.2598  0.4771 -0.1926
 9909TIP3   OH251141   3.899   0.924  17.208  0.2082 -0.1490  0.4113
 9909TIP3    H151142   3.892   1.019  17.204 -0.7235 -0.1957  0.7373
 9909TIP3    H251143   3.894   0.903  17.301  4.1462 -0.2913  0.7607
 9910TIP3   OH251144   1.916   5.457   3.820 -0.3356  0.4296 -0.5670
 9910TIP3    H151145   1.824   5.467   3.796 -0.6758 -1.2606 -0.0624
 9910TIP3    H251146   1.954   5.407   3.747  0.6153  2.5303 -1.5956
 9911TIP3   OH251147   5.969   1.516  15.352  0.1581  0.5929 -0.4632
 9911TIP3    H151148   5.920   1.486  15.276 -0.2190 -1.9132  0.6581
 9911TIP3    H251149   5.902   1.540  15.416  0.3695 -0.7255  0.2933
 9912TIP3   OH251150   3.057   0.389  14.746  0.0891  0.5097  0.1537
 9912TIP3    H151151   3.126   0.323  14.753  0.3184  0.8487  1.1208
 9912TIP3    H251152   3.064   0.421  14.656 -0.3114 -1.0820 -0.4805
 9913TIP3   OH251153   3.253   0.088   3.064 -0.1533  0.4331 -0.0491
 9913TIP3    H151154   3.223   0.091   3.154  0.0812  0.9670  0.0164
 9913TIP3    H251155   3.266  -0.005   3.045  1.7834  0.4272  1.1229
 9914TIP3   OH251156   6.548   1.796   0.347 -0.6736  0.2360 -0.2087
 9914TIP3    H151157   6.517   1.886   0.355 -0.4225  0.2784  0.3661
 9914TIP3    H251158   6.636   1.804   0.310 -1.9804  0.0178 -3.6602
 9915TIP3   OH251159   5.041   4.991  14.298  0.6113 -0.0762  0.7168
 9915TIP3    H151160   5.059   4.921  14.361  1.0737  0.5059  1.2378
 9915TIP3    H251161   4.945   5.002  14.301  0.5386 -0.6688  0.6446
 9916TIP3   OH251162   3.319   1.713   1.486 -0.0147 -0.3581  0.9681
 9916TIP3    H151163   3.234   1.741   1.521  1.1597  0.5747  3.2837
 9916TIP3    H251164   3.328   1.763   1.404  0.4178  3.6352  3.1640
 9917TIP3   OH251165   6.256   2.883   0.688 -0.5318 -0.7775 -0.1356
 9917TIP3    H151166   6.349   2.907   0.693  0.4262 -4.0710 -0.1305
 9917TIP3    H251167   6.221   2.907   0.774  0.6924 -0.8550  0.4110
 9918TIP3   OH251168   5.749   1.257  16.644  0.2741  0.1783  0.5487
 9918TIP3    H151169   5.737   1.172  16.686  0.2771  1.1258  2.5900
 9918TIP3    H251170   5.743   1.239  16.550 -0.5270 -1.9292  0.9613
 9919TIP3   OH251171   5.430   6.555  17.533 -0.2951 -0.1970 -0.4201
 9919TIP3    H151172   5.439   6.546  17.628  0.6026  0.4606 -0.4344
 9919TIP3    H251173   5.444   6.649  17.516 -0.4550 -0.3065 -1.2011
 9920TIP3   OH251174   2.087   4.988  12.805 -0.1353 -0.1501  0.4829
 9920TIP3    H151175   2.130   4.902  12.808 -0.2339 -0.1870  0.9796
 9920TIP3    H251176   2.113   5.030  12.887 -1.0587 -0.1815  0.8075
 9921TIP3   OH251177   4.011   4.496   2.002  0.1046 -0.2845 -0.2498
 9921TIP3    H151178   4.089   4.509   2.057  1.0299 -0.6433 -1.4270
 9921TIP3    H251179   3.946   4.459   2.062  0.6108  0.6169  0.9061
 9922TIP3   OH251180   2.076   2.461  12.797 -0.1649 -0.0741 -0.2773
 9922TIP3    H151181   2.143   2.415  12.746 -0.5377 -2.0827  0.9419
 9922TIP3    H251182   1.997   2.409  12.786 -0.0500 -1.1733  2.9928
 9923TIP3   OH251183   0.905   1.783  15.725 -0.0072 -0.7924 -0.0207
 9923TIP3    H151184   0.886   1.743  15.640  1.6033 -1.2016 -0.2311
 9923TIP3    H251185   0.971   1.850  15.704 -1.3860  0.8273  0.5731
 9924TIP3   OH251186   0.357   4.108   3.533  0.1900 -0.1189  0.0830
 9924TIP3    H151187   0.309   4.060   3.600 -0.9399  2.1657  1.0239
 9924TIP3    H251188   0.302   4.100   3.455 -0.1493 -0.0945  0.3171
 9925TIP3   OH251189   5.144   0.055  17.399  0.0268  0.4185 -0.4456
 9925TIP3    H151190   5.233   0.069  17.431 -0.2894  0.9180  0.2275
 9925TIP3    H251191   5.101   0.140  17.406 -0.2661  0.3896 -1.5611
 9926TIP3   OH251192   5.854   1.512  15.605 -0.4643  0.1971  0.0618
 9926TIP3    H151193   5.853   1.477  15.694  0.8503  1.2776  0.5438
 9926TIP3    H251194   5.777   1.474  15.563 -2.8942  1.9674  2.5601
 9927TIP3   OH251195   6.676   3.119  14.236 -0.1187  0.0342 -0.1902
 9927TIP3    H151196   6.708   3.209  14.242  1.6722 -0.5880  0.1258
 9927TIP3    H251197   6.745   3.071  14.190 -0.6919 -1.3405  0.3195
 9928TIP3   OH251198   4.720   0.857  13.571 -0.0592 -0.4057  0.2514
 9928TIP3    H151199   4.651   0.922  13.555  0.0996 -0.4203 -0.5638
 9928TIP3    H251200   4.709   0.832  13.662 -0.1438  0.7461  0.5768
 9929TIP3   OH251201   5.933   5.412  11.565  0.0940 -0.4901 -0.2372
 9929TIP3    H151202   5.973   5.470  11.629 -1.4441  0.9618 -0.5254
 9929TIP3    H251203   5.852   5.382  11.606 -1.0819  0.7104 -1.5393
 9930TIP3   OH251204   0.927   6.328  13.460 -0.0703 -0.6325 -0.6545
 9930TIP3    H151205   0.881   6.282  13.390 -1.5254  2.1060 -1.6504
 9930TIP3    H251206   0.866   6.395  13.490  1.2982 -0.3595  1.8446
 9931TIP3   OH251207   3.352   2.636   3.520  0.0094  0.0773 -0.1184
 9931TIP3    H151208   3.374   2.603   3.608 -0.0228 -2.7868 -1.0824
 9931TIP3    H251209   3.259   2.658   3.526  0.0812  0.2281  0.6431
 9932TIP3   OH251210   2.606   0.934   1.729  0.1977 -0.0171  0.3585
 9932TIP3    H151211   2.570   0.873   1.664 -1.3710  1.2537 -0.0346
 9932TIP3    H251212   2.662   0.993   1.679 -0.6653  0.6902  0.1945
 9933TIP3   OH251213   4.491   2.993   3.979  0.4055 -0.3849  0.3007
 9933TIP3    H151214   4.576   3.024   4.007  0.7697 -1.4784  0.4622
 9933TIP3    H251215   4.487   2.902   4.009 -1.1250 -0.1338  0.9756
 9934TIP3   OH251216   0.287   2.354   5.746  0.0301 -0.7025  0.2819
 9934TIP3    H151217   0.312   2.354   5.838  1.2691  0.5734 -0.0070
 9934TIP3    H251218   0.341   2.285   5.707  0.4432 -0.3966  0.3033
 9935TIP3   OH251219   4.594   2.088   3.423  0.4320 -0.2505 -0.3417
 9935TIP3    H151220   4.659   2.127   3.364 -0.4766  2.7544  0.4768
 9935TIP3    H251221   4.510   2.109   3.383 -0.1318  0.1842  1.0087
 9936TIP3   OH251222   3.568   4.481  13.714  0.2458 -0.7353 -0.1160
 9936TIP3    H151223   3.577   4.400  13.662 -1.3984 -1.7138  1.0368
 9936TIP3    H251224   3.636   4.475  13.780  1.0755 -0.4411 -0.9243
 9937TIP3   OH251225   1.776   0.463  17.534 -0.4884 -0.3147  0.3486
 9937TIP3    H151226   1.764   0.377  17.572  0.0613 -0.2153  0.7615
 9937TIP3    H251227   1.871   0.471  17.521 -0.5305  0.2261  0.3284
 9938TIP3   OH251228   2.118   0.893   5.752 -0.5505  0.5972  0.2405
 9938TIP3    H151229   2.056   0.962   5.772 -0.6292  0.7515 -0.5013
 9938TIP3    H251230   2.069   0.831   5.697 -0.1047  0.6381 -0.2121
 9939TIP3   OH251231   5.959   4.457   0.036  0.3287 -0.4530  0.2757
 9939TIP3    H151232   5.887   4.395   0.045  0.1607 -0.3829 -0.5188
 9939TIP3    H251233   6.007   4.427  -0.041  2.3726 -1.7240  1.9285
 9940TIP3   OH251234   3.720   1.974   4.315 -0.0401 -0.1018  0.2336
 9940TIP3    H151235   3.648   2.023   4.355  0.7738  0.1722  1.3913
 9940TIP3    H251236   3.791   1.977   4.379  0.8246 -0.8466 -0.6468
 9941TIP3   OH251237   5.605   0.345   0.487 -0.7327 -0.1073  0.3929
 9941TIP3    H151238   5.627   0.438   0.491  1.1267 -0.4675 -0.6036
 9941TIP3    H251239   5.518   0.339   0.527 -1.1819  2.1394 -0.1466
 9942TIP3   OH251240   6.399   5.322   3.619 -0.1728  0.2846 -0.3298
 9942TIP3    H151241   6.329   5.371   3.577 -0.7429  0.6939  1.0443
 9942TIP3    H251242   6.473   5.329   3.559 -0.8583  1.1097 -1.0949
 9943TIP3   OH251243   3.122   1.461  10.997  0.4730  0.3135 -0.4163
 9943TIP3    H151244   3.096   1.403  11.068  1.1998 -0.6604 -0.9257
 9943TIP3    H251245   3.177   1.527  11.039  0.6481 -0.0728 -0.0300
 9944TIP3   OH251246   4.848   6.059   4.519  0.0937  0.3930  0.0060
 9944TIP3    H151247   4.798   6.136   4.546 -1.2838 -0.0600 -1.0786
 9944TIP3    H251248   4.928   6.094   4.480  0.8433  1.1314  2.0788
 9945TIP3   OH251249   0.380   2.076  17.620 -0.5550  0.5848 -0.5644
 9945TIP3    H151250   0.360   2.162  17.657 -2.3561 -0.3406  0.7322
 9945TIP3    H251251   0.303   2.023  17.638  0.8629 -1.5843 -0.5113
 9946TIP3   OH251252   3.766   3.519  17.198 -0.3438  0.3687  0.0896
 9946TIP3    H151253   3.676   3.506  17.230 -0.9731 -1.2470 -2.0839
 9946TIP3    H251254   3.755   3.558  17.112  1.0259 -0.2284 -0.3850
 9947TIP3   OH251255   2.447   2.852   2.992 -0.5144 -0.5356  0.1454
 9947TIP3    H151256   2.391   2.845   3.069 -0.4119 -2.8439  0.0726
 9947TIP3    H251257   2.525   2.897   3.024 -1.8486  1.6568  0.5223
 9948TIP3   OH251258   0.118   1.264   6.319 -0.2621 -0.1323  0.5106
 9948TIP3    H151259   0.052   1.297   6.380  0.9623  0.4170  1.5882
 9948TIP3    H251260   0.069   1.207   6.259 -1.1651 -2.6229  3.3893
 9949TIP3   OH251261   6.435   0.805   4.419  0.1336 -0.0369 -0.6062
 9949TIP3    H151262   6.378   0.729   4.427  0.4838 -0.3782 -1.3208
 9949TIP3    H251263   6.437   0.843   4.507  1.3161 -1.8499  0.2090
 9950TIP3   OH251264   2.845   0.148   3.620  0.0020  0.1584 -0.6005
 9950TIP3    H151265   2.799   0.177   3.699 -1.7158 -1.0244 -1.0837
 9950TIP3    H251266   2.938   0.153   3.642 -0.1275  4.4380 -0.1834
 9951TIP3   OH251267   1.624   1.416  14.628 -0.2587  1.1329  0.0090
 9951TIP3    H151268   1.557   1.349  14.612 -1.1381  1.6105  1.5400
 9951TIP3    H251269   1.638   1.413  14.722  2.2516  0.7255 -0.3060
 9952TIP3   OH251270   5.990   4.046  14.079 -0.3908 -0.2707  0.3663
 9952TIP3    H151271   6.000   4.130  14.123 -0.7313 -0.3471  0.5946
 9952TIP3    H251272   6.025   3.982  14.140  1.0779 -0.1706 -0.3476
 9953TIP3   OH251273   1.523   5.788  11.311  0.0856 -0.5767 -0.1045
 9953TIP3    H151274   1.599   5.844  11.328 -0.6329  0.6676 -0.8381
 9953TIP3    H251275   1.560   5.706  11.278  1.1135  0.0672 -0.5961
 9954TIP3   OH251276   2.372   0.402  15.540  0.1368 -0.5041 -0.4024
 9954TIP3    H151277   2.291   0.452  15.535  0.3595  0.1224  1.3810
 9954TIP3    H251278   2.355   0.323  15.488 -1.2222  0.1094 -0.9337
 9955TIP3   OH251279   3.971   1.337   2.046  0.0277 -0.9089  0.6920
 9955TIP3    H151280   4.005   1.362   2.132  0.6942 -2.7132  1.0003
 9955TIP3    H251281   3.977   1.417   1.994 -0.0425  0.1265  2.2057
 9956TIP3   OH251282   0.720   4.417   3.426 -0.8295 -0.4916  0.1003
 9956TIP3    H151283   0.706   4.384   3.515 -0.9155 -0.7728 -0.0166
 9956TIP3    H251284   0.704   4.341   3.370 -1.0114 -0.2542 -0.1699
 9957TIP3   OH251285   3.986   6.658  16.006  0.3665 -0.0893  0.3291
 9957TIP3    H151286   4.077   6.677  15.986  0.2183 -0.0425 -0.3243
 9957TIP3    H251287   3.984   6.644  16.101  0.7154  1.8008  0.6445
 9958TIP3   OH251288   1.364   6.413  15.259  0.2473  0.2704 -0.1274
 9958TIP3    H151289   1.349   6.416  15.165  0.0253  0.5071 -0.0841
 9958TIP3    H251290   1.399   6.499  15.281 -0.2824  0.4316  0.1035
 9959TIP3   OH251291   6.171   2.055   4.003  0.4518  0.7362 -0.2311
 9959TIP3    H151292   6.205   2.056   4.093  2.8358  3.7778 -0.9864
 9959TIP3    H251293   6.134   2.143   3.990  0.0852  0.3403 -2.1968
 9960TIP3   OH251294   5.777   6.395   1.133 -0.2315 -0.0966  0.2898
 9960TIP3    H151295   5.796   6.425   1.045 -1.3591  0.8984  0.3631
 9960TIP3    H251296   5.720   6.462   1.170 -0.8821 -1.1602  1.2989
 9961TIP3   OH251297   0.042   2.906   1.742  0.3953  0.1920 -0.4263
 9961TIP3    H151298   0.045   2.995   1.707 -0.3678  0.0892 -0.7792
 9961TIP3    H251299  -0.051   2.886   1.748  0.5454 -0.2582  0.5014
 9962TIP3   OH251300   2.717   6.295  15.629 -0.1458  0.2883  0.5407
 9962TIP3    H151301   2.699   6.232  15.699  1.7703 -1.7765 -0.6705
 9962TIP3    H251302   2.637   6.295  15.576 -0.3818 -0.7382  0.8709
 9963TIP3   OH251303   0.424   3.623  13.336  0.1722  0.6520 -0.1074
 9963TIP3    H151304   0.497   3.684  13.327  0.1256  0.8259  0.6346
 9963TIP3    H251305   0.360   3.669  13.391  0.2858 -0.1826  0.7655
 9964TIP3   OH251306   4.469   1.443  16.484  0.1425 -0.0593  0.1468
 9964TIP3    H151307   4.506   1.455  16.397 -0.5678  1.2267  0.0012
 9964TIP3    H251308   4.483   1.350  16.504  1.9287  0.0057 -0.5827
 9965TIP3   OH251309   3.210   1.178   2.319  0.0157 -0.2177  0.1452
 9965TIP3    H151310   3.300   1.147   2.333  0.4612  0.8660 -0.1627
 9965TIP3    H251311   3.218   1.238   2.244 -0.4594  2.0002  1.7770
 9966TIP3   OH251312   2.020   6.190   4.527 -0.3420 -0.4336 -0.6661
 9966TIP3    H151313   1.949   6.156   4.473 -1.6428  0.8686  0.1737
 9966TIP3    H251314   2.099   6.172   4.476 -1.1736 -2.4529 -1.3585
 9967TIP3   OH251315   5.453   3.304   1.400  0.5180 -0.7328  0.1587
 9967TIP3    H151316   5.443   3.213   1.374 -2.1182 -0.7926  1.0634
 9967TIP3    H251317   5.390   3.352   1.346  2.4372  0.7376 -0.9079
 9968TIP3   OH251318   2.513   1.935  13.448 -0.1959 -0.0133 -0.1377
 9968TIP3    H151319   2.434   1.959  13.399  0.8286  2.6373 -0.6729
 9968TIP3    H251320   2.564   1.882  13.387 -0.1322  1.0025 -0.9869
 9969TIP3   OH251321   2.614   2.469  14.793 -0.2105  0.0990  0.5279
 9969TIP3    H151322   2.687   2.418  14.828 -0.7684 -0.3600  1.0327
 9969TIP3    H251323   2.599   2.433  14.706 -1.3392 -1.3936  1.3047
 9970TIP3   OH251324   1.658   0.792   5.919  0.0865 -0.4586 -0.2693
 9970TIP3    H151325   1.565   0.807   5.934  0.5100  3.3808 -0.3322
 9970TIP3    H251326   1.701   0.835   5.993  1.8021 -0.4818 -1.2040
 9971TIP3   OH251327   0.860   2.695   6.123  0.4475  0.3564 -0.5968
 9971TIP3    H151328   0.886   2.771   6.176 -1.7842 -0.6565  2.2525
 9971TIP3    H251329   0.786   2.727   6.071  0.3434  0.4558 -0.3876
 9972TIP3   OH251330   2.195   3.583   0.712  0.6247  0.8444 -0.2597
 9972TIP3    H151331   2.124   3.519   0.714  0.8848  0.5766  0.3940
 9972TIP3    H251332   2.210   3.599   0.619 -0.7679  1.4249 -0.4192
 9973TIP3   OH251333   2.021   0.431  11.917  0.2915  0.0784 -0.5372
 9973TIP3    H151334   1.948   0.492  11.906  0.6010  0.5489 -0.0546
 9973TIP3    H251335   1.988   0.348  11.884 -1.0737 -0.1550  1.2824
 9974TIP3   OH251336   6.260   4.511  11.618  0.2499 -0.2750 -0.2008
 9974TIP3    H151337   6.164   4.517  11.623  0.3654  1.8216  0.7488
 9974TIP3    H251338   6.278   4.510  11.524 -0.7252 -1.9194 -0.4059
 9975TIP3   OH251339   3.172   4.790   3.075  0.3348 -0.3803 -0.1511
 9975TIP3    H151340   3.151   4.757   2.988 -3.3931 -2.5526  1.3285
 9975TIP3    H251341   3.115   4.865   3.087  0.6110 -0.2655  0.5132
 9976TIP3   OH251342   1.073   5.020   6.166 -0.0062  0.1720  0.5021
 9976TIP3    H151343   1.034   5.045   6.250 -0.8264 -0.2828  0.2715
 9976TIP3    H251344   1.043   4.930   6.152  2.4518 -0.8445  1.0821
 9977TIP3   OH251345   1.030   0.726   0.303 -0.5566 -0.2303 -0.2028
 9977TIP3    H151346   1.052   0.686   0.219  0.2621  0.2555 -0.2272
 9977TIP3    H251347   1.112   0.730   0.351 -0.8117  0.4664  0.2035
 9978TIP3   OH251348   1.607   6.086   0.952 -0.5828  0.3611  0.2199
 9978TIP3    H151349   1.553   6.093   1.030 -1.5131 -0.8046 -0.2788
 9978TIP3    H251350   1.551   6.118   0.881  0.2736  1.4734  0.0169
 9979TIP3   OH251351   4.728   4.434  12.273  0.0124  0.5671  0.0545
 9979TIP3    H151352   4.695   4.374  12.207 -0.6229  0.2227  0.6734
 9979TIP3    H251353   4.800   4.480  12.230  1.0546 -1.2004 -0.1762
 9980TIP3   OH251354   0.037   4.098  12.250 -0.5541  0.2749  0.0128
 9980TIP3    H151355   0.055   4.010  12.282 -0.6602  0.8502  1.7516
 9980TIP3    H251356   0.112   4.150  12.279 -2.0105  1.4189  2.0085
 9981TIP3   OH251357   4.131   4.151  10.653 -0.9503  0.1886 -0.0089
 9981TIP3    H151358   4.141   4.144  10.748  2.9502 -1.7749 -0.3544
 9981TIP3    H251359   4.087   4.070  10.627  1.6412 -1.3223 -0.0605
 9982TIP3   OH251360   3.651   1.505   3.116 -0.0466 -0.0089  0.0947
 9982TIP3    H151361   3.712   1.571   3.148  1.5443 -0.7221 -1.3357
 9982TIP3    H251362   3.674   1.426   3.165 -1.1751  0.1612  0.9604
 9983TIP3   OH251363   5.292   0.855   5.929 -0.2683  0.0907  0.3644
 9983TIP3    H151364   5.382   0.866   5.959 -0.2459 -1.5783  0.9992
 9983TIP3    H251365   5.281   0.922   5.862  1.6157 -0.0409 -0.1252
 9984TIP3   OH251366   0.107   1.582   5.704  0.1337  0.0496  0.1014
 9984TIP3    H151367   0.103   1.606   5.796 -0.8275 -2.4529  0.8099
 9984TIP3    H251368   0.026   1.534   5.688  0.6797 -0.3216 -1.7940
 9985TIP3   OH251369   6.568   2.645  16.649  0.1065  0.2718  0.2142
 9985TIP3    H151370   6.584   2.625  16.557 -0.5173 -1.8166  0.5109
 9985TIP3    H251371   6.606   2.571  16.697  0.6282  1.4263  1.6759
 9986TIP3   OH251372   0.566   0.103  11.557  0.1598  0.0299  0.1413
 9986TIP3    H151373   0.488   0.057  11.525  0.1053 -0.9398  1.5589
 9986TIP3    H251374   0.639   0.048  11.528  0.4868  1.7685 -2.5773
 9987TIP3   OH251375   5.887   3.418   2.747 -0.0579 -0.2750 -0.4367
 9987TIP3    H151376   5.945   3.406   2.823  0.9151 -2.2865 -1.4160
 9987TIP3    H251377   5.886   3.332   2.704 -0.9482  0.6829 -2.4520
 9988TIP3   OH251378   5.314   4.742   0.953  0.6481  0.0814  0.2526
 9988TIP3    H151379   5.353   4.778   1.032  0.2001 -2.9949  2.0592
 9988TIP3    H251380   5.372   4.770   0.882  1.9040  1.7231  1.8455
 9989TIP3   OH251381   1.214   1.497   6.326 -0.1968 -1.0949 -0.5925
 9989TIP3    H151382   1.184   1.410   6.354  0.8276 -1.2736 -0.0083
 9989TIP3    H251383   1.189   1.556   6.397  2.6784 -1.5987  0.9861
 9990TIP3   OH251384   1.263   4.001  15.033 -0.0443  0.3381  0.6553
 9990TIP3    H151385   1.285   3.981  14.942 -0.1401  0.0553  0.6950
 9990TIP3    H251386   1.192   4.065  15.026  1.8422  2.5599  0.5062
 9991TIP3   OH251387   0.228   4.348   1.151  0.5737  0.1706  0.5381
 9991TIP3    H151388   0.286   4.299   1.094  1.5709 -0.1344  1.7745
 9991TIP3    H251389   0.162   4.284   1.179 -0.5431  0.5761 -1.0527
 9992TIP3   OH251390   4.262   1.660   1.847  0.1770  0.1056  0.3332
 9992TIP3    H151391   4.325   1.660   1.775 -1.7072  0.2778 -1.3921
 9992TIP3    H251392   4.226   1.571   1.847 -1.0752  0.5928 -0.1122
 9993TIP3   OH251393   0.211   5.767   3.476 -0.6905 -0.3626  0.2985
 9993TIP3    H151394   0.152   5.752   3.550 -1.6427 -0.8060 -0.5276
 9993TIP3    H251395   0.299   5.757   3.513 -1.1182  0.1820  1.5274
 9994TIP3   OH251396   4.429   5.498   2.738  0.2602 -0.0458 -0.7235
 9994TIP3    H151397   4.378   5.485   2.818  0.6969  3.0416  0.2034
 9994TIP3    H251398   4.367   5.537   2.676  0.9207  1.8050 -0.2830
 9995TIP3   OH251399   6.317   0.774   5.686 -0.8728  0.4997  0.4388
 9995TIP3    H151400   6.387   0.823   5.642  1.0087 -1.7101  0.7173
 9995TIP3    H251401   6.259   0.747   5.615  1.3867 -1.8584 -0.7114
 9996TIP3   OH251402   4.288   5.195   4.549  0.2635 -0.2807  0.0872
 9996TIP3    H151403   4.322   5.283   4.535  0.3659 -0.3574 -0.1562
 9996TIP3    H251404   4.291   5.154   4.463 -0.0269 -0.4375  0.1492
 9997TIP3   OH251405   4.834   1.482   1.433 -0.1449 -0.3373  0.1579
 9997TIP3    H151406   4.807   1.571   1.413 -1.7836 -1.0910 -1.1976
 9997TIP3    H251407   4.879   1.489   1.518 -0.7705  1.6500  0.3759
 9998TIP3   OH251408   6.639   6.214   1.267  0.3824  0.2169 -0.0609
 9998TIP3    H151409   6.644   6.187   1.359  0.8233  1.3201  0.2605
 9998TIP3    H251410   6.548   6.196   1.241  0.6433 -1.5541  0.0942
 9999TIP3   OH251411   5.659   5.467   0.330 -0.3953  0.4251  0.0438
 9999TIP3    H151412   5.663   5.525   0.406 -1.7349  1.5925 -0.7311
 9999TIP3    H251413   5.741   5.483   0.283  0.5290 -0.4502  1.3108
10000TIP3   OH251414   0.373   5.071  11.543  0.7437  0.0963  0.1462
10000TIP3    H151415   0.370   5.118  11.460  0.5392  1.2393  0.7815
10000TIP3    H251416   0.294   5.018  11.545  0.7986 -0.0061 -0.4219
10001TIP3   OH251417   3.664   5.833  15.341 -0.3303 -0.2375  0.4762
10001TIP3    H151418   3.608   5.823  15.419  0.2722 -0.0318  0.9445
10001TIP3    H251419   3.670   5.927  15.329 -1.9372 -0.2595 -0.9547
10002TIP3   OH251420   0.820   5.297  12.007 -0.9157  0.1437  0.0835
10002TIP3    H151421   0.803   5.287  11.913  0.6030  0.8032 -0.3016
10002TIP3    H251422   0.877   5.374  12.012 -2.1023  0.9543  1.6931
10003TIP3   OH251423   0.649   3.395  12.875 -0.0849 -0.3161 -0.4683
10003TIP3    H151424   0.561   3.359  12.866  0.5272 -1.7366 -1.0867
10003TIP3    H251425   0.651   3.467  12.812 -1.0942  0.3938  0.2635
10004TIP3   OH251426   0.588   5.247   3.551  0.4288  0.2513 -0.2308
10004TIP3    H151427   0.522   5.197   3.502 -0.4054 -0.8413  1.8824
10004TIP3    H251428   0.548   5.334   3.561  0.1261  0.1520 -0.5334
10005TIP3   OH251429   2.042   6.125   6.844  0.5872 -0.3171 -0.7972
10005TIP3    H151430   2.015   6.192   6.783  0.1987  1.7940  1.5390
10005TIP3    H251431   2.118   6.162   6.890 -0.8382 -0.5340  1.9377
10006TIP3   OH251432   5.396   1.472   0.644  0.2631 -0.1343 -0.3182
10006TIP3    H151433   5.478   1.521   0.646 -0.3257  0.9913 -1.9218
10006TIP3    H251434   5.370   1.466   0.736  0.5726  2.2347 -0.0075
10007TIP3   OH251435   1.231   5.821  11.056 -0.3192  0.0659 -0.2402
10007TIP3    H151436   1.160   5.883  11.035  0.5316  1.8129  1.6341
10007TIP3    H251437   1.263   5.850  11.142  1.0518 -2.1972  0.0904
10008TIP3   OH251438   5.949   3.705   0.868 -0.0685 -0.0133  0.1480
10008TIP3    H151439   5.879   3.733   0.927  2.1385  0.3337  2.8063
10008TIP3    H251440   5.933   3.611   0.855 -1.0511  0.0716  0.6341
10009TIP3   OH251441   5.766   5.964  10.912  0.5887 -0.2697 -0.2565
10009TIP3    H151442   5.802   6.022  10.979  1.7954 -1.3512  0.0715
10009TIP3    H251443   5.714   5.900  10.960 -0.8267  0.5593 -0.6277
10010TIP3   OH251444   1.824   0.908  16.123  0.6681  0.0323 -0.9474
10010TIP3    H151445   1.791   0.932  16.209 -0.8741 -0.3932 -1.3901
10010TIP3    H251446   1.746   0.894  16.070  1.5813  0.1427 -2.3869
10011TIP3   OH251447   3.595   2.591  15.759 -0.4700  0.0310  0.0030
10011TIP3    H151448   3.558   2.562  15.842  0.6343  1.6501  1.1056
10011TIP3    H251449   3.644   2.671  15.780 -0.3318  0.6142 -2.2328
10012TIP3   OH251450   0.837   4.452   2.487  0.5372  0.5415 -0.1474
10012TIP3    H151451   0.873   4.532   2.449  2.0183  0.1710  0.4367
10012TIP3    H251452   0.755   4.481   2.528  0.6643  1.6006 -0.5987
10013TIP3   OH251453   1.467   0.636  15.297  0.1702 -0.2097 -0.6738
10013TIP3    H151454   1.530   0.582  15.250  1.1674 -1.1090  1.5214
10013TIP3    H251455   1.498   0.725  15.285  1.6705 -0.6078  0.0245
10014TIP3   OH251456   2.310   6.263  13.229 -1.3767  0.5705  0.3240
10014TIP3    H151457   2.246   6.279  13.299 -0.2100  0.5194  1.4480
10014TIP3    H251458   2.297   6.336  13.168 -2.1550  0.8378  0.7899
10015TIP3   OH251459   2.948   2.568  11.645 -0.7484  0.2082  0.2367
10015TIP3    H151460   2.864   2.598  11.610  0.0256 -1.8213 -3.9561
10015TIP3    H251461   3.002   2.552  11.568  1.6522 -3.7560  2.4037
10016TIP3   OH251462   2.638   0.315  15.173 -0.3465 -0.5189 -0.2383
10016TIP3    H151463   2.723   0.331  15.213 -0.9172  0.0070  0.7955
10016TIP3    H251464   2.595   0.253  15.232 -0.9026 -0.3313 -0.4375
10017TIP3   OH251465   5.523   1.535  15.929 -0.2810 -0.4571 -0.3012
10017TIP3    H151466   5.603   1.536  15.876 -1.4852  0.9913 -2.2141
10017TIP3    H251467   5.488   1.447  15.918  0.7022 -0.9040  0.0339
10018TIP3   OH251468   6.615   3.249  12.324 -0.2829 -0.0112 -0.4083
10018TIP3    H151469   6.709   3.266  12.322 -0.2770 -0.0730 -0.6634
10018TIP3    H251470   6.595   3.211  12.238 -0.3147 -1.1543  0.0907
10019TIP3   OH251471   1.780   6.193   3.773  0.0220  0.2061 -0.2806
10019TIP3    H151472   1.768   6.134   3.848 -0.1204  1.2734  0.5601
10019TIP3    H251473   1.770   6.281   3.810  1.3049  0.8134 -1.2946
10020TIP3   OH251474   2.979   5.708  13.676 -0.4284 -0.7403  0.3827
10020TIP3    H151475   3.022   5.737  13.757  0.1427 -1.7750  0.4638
10020TIP3    H251476   3.037   5.737  13.606 -0.0099 -1.3897  0.4489
10021TIP3   OH251477   0.593   3.089   2.792 -0.7558 -0.2857  0.7540
10021TIP3    H151478   0.676   3.104   2.837 -0.2527 -1.2085  0.1708
10021TIP3    H251479   0.618   3.062   2.703 -1.6781 -0.4789  0.5418
10022TIP3   OH251480   3.055   4.243   5.507 -0.7190  0.1006  0.8600
10022TIP3    H151481   3.137   4.205   5.474 -0.7706 -0.0935  0.9515
10022TIP3    H251482   3.042   4.200   5.592  0.8881  2.5855  2.5104
10023TIP3   OH251483   2.956   5.878  12.500  0.7677  0.1552 -0.0146
10023TIP3    H151484   2.917   5.913  12.580  0.1651 -0.0129 -0.2328
10023TIP3    H251485   2.971   5.954  12.445 -0.3481  0.1058 -0.4041
10024TIP3   OH251486   1.973   5.350   0.651  0.0091  0.4369 -0.9185
10024TIP3    H151487   2.034   5.419   0.626  1.7250 -0.9972 -0.9185
10024TIP3    H251488   2.025   5.289   0.703 -2.2043  0.6958  1.8411
10025TIP3   OH251489   5.466   3.765   1.611 -0.9181  0.4781 -0.2796
10025TIP3    H151490   5.473   3.848   1.563  1.6998  0.9908  0.7675
10025TIP3    H251491   5.526   3.706   1.566 -1.4408 -0.3018  0.0281
10026TIP3   OH251492   2.598   2.417   6.347 -0.2450  0.5850  0.3145
10026TIP3    H151493   2.560   2.468   6.276  1.6230  1.0995 -0.3608
10026TIP3    H251494   2.545   2.439   6.423 -0.7882  1.8998 -0.4082
10027TIP3   OH251495   4.989   4.042   6.147 -0.5420  0.2767 -0.0945
10027TIP3    H151496   5.009   3.960   6.193 -0.4881  0.3410 -0.0018
10027TIP3    H251497   5.013   4.025   6.056 -0.0780  0.3422  0.0100
10028TIP3   OH251498   2.290   1.617   6.216  0.6645 -0.4764  0.0113
10028TIP3    H151499   2.278   1.546   6.153  0.7783 -0.3038 -0.2058
10028TIP3    H251500   2.313   1.693   6.163 -0.0192 -0.1334  0.1978
10029TIP3   OH251501   6.470   6.268   4.030  0.3912 -0.4394 -0.1576
10029TIP3    H151502   6.489   6.174   4.024 -0.7164 -0.5880 -1.8112
10029TIP3    H251503   6.547   6.304   4.075  1.9827 -1.7911 -1.6245
10030TIP3   OH251504   2.810   2.361   1.387  0.3849 -0.0525  0.1743
10030TIP3    H151505   2.724   2.321   1.373  0.5544 -0.3010 -0.1683
10030TIP3    H251506   2.861   2.292   1.428  0.4165  0.1025  0.3975
10031TIP3   OH251507   2.821   0.952   4.464  0.8663 -0.4556  0.3370
10031TIP3    H151508   2.756   1.008   4.422  0.3125 -1.2987  0.0286
10031TIP3    H251509   2.861   1.007   4.531 -0.1229  0.1045  0.4854
10032TIP3   OH251510   2.743   5.583   4.848  0.5962 -0.2358  0.1898
10032TIP3    H151511   2.821   5.628   4.817  0.5446  0.8067  1.4819
10032TIP3    H251512   2.762   5.490   4.835  0.8249  0.0988 -2.2397
10033TIP3   OH251513   3.021   3.745   5.619 -0.5358  0.2827  0.1477
10033TIP3    H151514   2.935   3.716   5.589  0.0419  0.5882 -2.0148
10033TIP3    H251515   3.024   3.722   5.712 -3.0615  0.5817  0.3596
10034TIP3   OH251516   0.216   0.493   4.806  0.0103 -0.3557 -0.3865
10034TIP3    H151517   0.288   0.538   4.762 -0.1814  0.1774 -0.1651
10034TIP3    H251518   0.175   0.440   4.737  0.3409 -0.3161 -0.6137
10035TIP3   OH251519   3.296   1.614   2.338 -0.2429  0.3908  0.1390
10035TIP3    H151520   3.296   1.518   2.349  0.0713  0.4436  0.6364
10035TIP3    H251521   3.379   1.642   2.376 -0.8246  0.9640  1.0170
10036TIP3   OH251522   3.250   0.207   2.800  0.0507 -0.3490  0.0588
10036TIP3    H151523   3.243   0.140   2.731  0.5823 -0.1581 -0.1859
10036TIP3    H251524   3.198   0.172   2.872  1.3195 -1.6256  0.4036
10037TIP3   OH251525   3.876   0.798   1.064  0.1560  0.5396  0.0804
10037TIP3    H151526   3.807   0.804   1.130 -1.6868  0.5675 -1.7552
10037TIP3    H251527   3.852   0.722   1.012  1.2639  0.8383 -0.8891
10038TIP3   OH251528   3.343   3.547   1.348 -0.2901  0.0250 -0.6254
10038TIP3    H151529   3.422   3.494   1.357  0.0393  0.6601  0.4239
10038TIP3    H251530   3.291   3.525   1.425 -1.0302 -0.1958 -1.1748
10039TIP3   OH251531   6.332   0.402   6.291 -0.2296  0.1424  0.2558
10039TIP3    H151532   6.317   0.490   6.324  0.2041  0.0303  0.7755
10039TIP3    H251533   6.249   0.375   6.252 -1.3345 -0.3739  2.7889
10040TIP3   OH251534   4.723   2.572  14.335  0.5620 -0.1603 -0.0495
10040TIP3    H151535   4.634   2.591  14.365  1.0348 -1.7311  2.7320
10040TIP3    H251536   4.711   2.519  14.256 -0.8689  1.5217 -1.0320
10041TIP3   OH251537   5.261   0.766   2.305  0.4504 -0.6879 -0.3209
10041TIP3    H151538   5.227   0.682   2.274 -1.4336 -0.2651  0.4667
10041TIP3    H251539   5.332   0.742   2.366  0.1354 -1.6990 -0.3328
10042TIP3   OH251540   3.398   2.445  15.914 -0.1694 -0.3906  0.3501
10042TIP3    H151541   3.398   2.364  15.966  1.8831 -1.4754 -1.2246
10042TIP3    H251542   3.352   2.422  15.833 -0.6970  0.4300  0.3950
10043TIP3   OH251543   4.277   5.639   2.549  0.3774  0.5721 -0.0648
10043TIP3    H151544   4.284   5.722   2.596  1.3161  0.4100  0.0913
10043TIP3    H251545   4.283   5.663   2.456 -2.4604  1.0075 -0.2341
10044TIP3   OH251546   1.025   0.185   6.144 -0.0012 -0.2642 -0.5237
10044TIP3    H151547   0.953   0.232   6.104 -0.8316 -1.9872 -1.1802
10044TIP3    H251548   1.036   0.107   6.089 -0.5058 -2.2231  1.9691
10045TIP3   OH251549   0.660   0.770  13.519  0.1386  0.8091  0.5450
10045TIP3    H151550   0.601   0.845  13.528  1.7375  2.2502 -0.3603
10045TIP3    H251551   0.679   0.765  13.425 -0.4357 -1.1673  0.4976
10046TIP3   OH251552   5.878   5.016  17.101  0.2566  0.3654 -0.3051
10046TIP3    H151553   5.936   5.039  17.028  0.9300  0.4007  0.2274
10046TIP3    H251554   5.818   5.091  17.108  0.2813  0.4267 -0.7271
10047TIP3   OH251555   3.370   1.689   3.933  0.1172 -0.8882  0.4727
10047TIP3    H151556   3.294   1.706   3.989  1.0482  0.4581  1.3857
10047TIP3    H251557   3.429   1.762   3.950  0.6864 -0.7308 -1.8831
10048TIP3   OH251558   6.616   3.147  17.137  1.0767  0.1729  0.4559
10048TIP3    H151559   6.631   3.148  17.231  2.6920  0.3137  0.2117
10048TIP3    H251560   6.659   3.068  17.106 -2.2153 -1.7309  0.1943
10049TIP3   OH251561   6.161   1.597   3.591  0.4001  0.2730 -0.2772
10049TIP3    H151562   6.090   1.638   3.542 -0.3188  1.0203  1.3304
10049TIP3    H251563   6.220   1.670   3.613  1.0435 -0.1535 -0.5734
10050TIP3   OH251564   2.609   0.257  16.992  0.3869 -0.1816 -0.9042
10050TIP3    H151565   2.657   0.245  17.074  2.0266  5.2762 -0.7245
10050TIP3    H251566   2.520   0.278  17.020  1.1219  2.4679 -0.2801
10051TIP3   OH251567   1.090   1.229   5.810  0.0289 -0.5511  0.6172
10051TIP3    H151568   1.140   1.196   5.884 -0.9516 -3.1133  0.2390
10051TIP3    H251569   1.140   1.201   5.733 -0.4025 -0.4132  0.2812
10052TIP3   OH251570   4.258   4.811  11.818 -0.2685 -0.1988  0.4189
10052TIP3    H151571   4.166   4.800  11.840 -0.1518 -0.2208  0.9045
10052TIP3    H251572   4.275   4.743  11.752 -1.1974  1.3245 -1.5032
10053TIP3   OH251573   5.510   3.745  11.786  0.8528  0.1002  0.0380
10053TIP3    H151574   5.532   3.652  11.791  0.0138 -0.0716  1.0264
10053TIP3    H251575   5.533   3.780  11.872  0.9645  0.7590 -0.2538
10054TIP3   OH251576   4.738   2.921  15.652 -0.0955 -0.8500 -0.6548
10054TIP3    H151577   4.688   2.856  15.603 -0.3577 -0.6401 -0.6700
10054TIP3    H251578   4.694   2.925  15.737  0.5791 -1.4831 -0.2654
10055TIP3   OH251579   5.058   5.217   4.274  0.2583 -0.1195  0.3812
10055TIP3    H151580   5.005   5.139   4.292  0.0699 -0.2470 -0.6365
10055TIP3    H251581   5.083   5.250   4.360 -1.1135 -0.3028  0.8724
10056TIP3   OH251582   0.170   3.892  14.822 -0.3475 -0.1402 -0.5108
10056TIP3    H151583   0.208   3.811  14.790 -1.2022  0.4930 -3.4424
10056TIP3    H251584   0.076   3.876  14.822 -0.4611  0.4805  0.0195
10057TIP3   OH251585   1.244   5.858  15.607  0.4783  0.3210  0.4256
10057TIP3    H151586   1.324   5.891  15.565  1.5593  0.4784  2.4987
10057TIP3    H251587   1.178   5.925  15.590  1.6202  1.7254  1.2679
10058TIP3   OH251588   4.820   3.932  12.613 -0.5199 -0.3214  0.0527
10058TIP3    H151589   4.883   3.978  12.559  0.4274 -2.7912 -1.0835
10058TIP3    H251590   4.807   3.989  12.689  2.5176  0.6079 -0.0107
10059TIP3   OH251591   5.774   0.729  15.372  0.3649  0.5073 -0.1870
10059TIP3    H151592   5.687   0.693  15.354  0.2466 -1.1228  2.9243
10059TIP3    H251593   5.834   0.659  15.345  0.6909  1.2068 -1.3447
10060TIP3   OH251594   3.624   0.579  13.654 -0.8047 -0.2976 -0.4663
10060TIP3    H151595   3.543   0.552  13.697 -0.4145  0.8573  1.0927
10060TIP3    H251596   3.669   0.497  13.634 -0.8076 -0.9199  1.8037
10061TIP3   OH251597   5.124   4.054   4.282  0.1897  0.5579 -0.0816
10061TIP3    H151598   5.172   3.975   4.255 -2.6899 -2.0257  1.6786
10061TIP3    H251599   5.035   4.041   4.249 -0.9541  1.9448  2.1801
10062TIP3   OH251600   2.760   5.978   0.477  0.2157  0.0440  0.4073
10062TIP3    H151601   2.740   6.029   0.556  0.4238 -0.0859  0.5452
10062TIP3    H251602   2.680   5.984   0.424  0.3064  0.6812  0.3293
10063TIP3   OH251603   5.076   3.835   0.118  0.5009  0.0650  0.1576
10063TIP3    H151604   5.009   3.888   0.075  0.5301 -0.6387 -0.7964
10063TIP3    H251605   5.029   3.758   0.150  0.8421 -0.4769 -0.5979
10064TIP3   OH251606   5.826   6.636   3.895  0.2471  0.3883  0.6823
10064TIP3    H151607   5.746   6.662   3.940  0.5400  0.7208  1.0206
10064TIP3    H251608   5.879   6.593   3.962  0.3030  0.0614  0.4316
10065TIP3   OH251609   0.058   3.084   7.096 -0.5252  0.7587  0.0131
10065TIP3    H151610   0.110   3.006   7.115 -0.1380  0.8461 -0.6589
10065TIP3    H251611   0.093   3.116   7.012 -0.9513  1.4200  0.0846
10066TIP3   OH251612   6.146   1.847  15.314  0.9129  0.0900  0.0711
10066TIP3    H151613   6.089   1.910  15.271  1.8939  0.7348 -0.3234
10066TIP3    H251614   6.228   1.895  15.329  1.6636 -1.0614 -0.1839
10067TIP3   OH251615   2.853   2.284  16.553  0.0149 -0.7189  0.6648
10067TIP3    H151616   2.796   2.345  16.600  0.3992  0.1755 -0.0034
10067TIP3    H251617   2.793   2.222  16.512 -0.6094  1.0648 -1.2283
10068TIP3   OH251618   4.436   5.999  14.425  0.7943  0.3836 -0.4163
10068TIP3    H151619   4.366   6.026  14.484  0.7503 -0.4534 -0.0790
10068TIP3    H251620   4.398   6.007  14.337  0.3427  0.1262 -0.2478
10069TIP3   OH251621   5.122   6.598  12.402  0.1314 -0.0127  0.2429
10069TIP3    H151622   5.121   6.503  12.391  1.8744  0.1177 -1.6528
10069TIP3    H251623   5.140   6.632  12.314 -1.3594  2.1429  0.7019
10070TIP3   OH251624   0.162   5.659  17.471  0.2109  0.0356  0.2144
10070TIP3    H151625   0.163   5.751  17.496 -1.9070  0.2552 -0.3616
10070TIP3    H251626   0.184   5.659  17.378  0.0341 -0.0152  0.1718
10071TIP3   OH251627   2.367   0.250   2.356  0.5917 -0.1547  0.4755
10071TIP3    H151628   2.432   0.206   2.411 -0.3960 -0.1962  1.6526
10071TIP3    H251629   2.289   0.255   2.410 -0.1399  0.6636 -0.6013
10072TIP3   OH251630   5.185   2.637  15.738 -0.4666 -0.0277  0.2964
10072TIP3    H151631   5.111   2.681  15.695 -0.3808  0.6945  0.8622
10072TIP3    H251632   5.145   2.562  15.781 -0.8085  0.1228  0.2517
10073TIP3   OH251633   1.857   2.808  16.541 -0.0290  0.3089  0.2998
10073TIP3    H151634   1.836   2.897  16.513 -1.3014  0.0565  0.3934
10073TIP3    H251635   1.928   2.819  16.605 -0.8920  1.3677  1.1115
10074TIP3   OH251636   4.957   1.127   5.048 -0.8878  0.0320  1.3911
10074TIP3    H151637   4.896   1.091   4.983  0.8290 -1.5121  0.5310
10074TIP3    H251638   4.991   1.207   5.008 -0.0519 -0.7635  0.4414
10075TIP3   OH251639   5.678   6.695   2.548 -0.3604 -0.3788  0.4941
10075TIP3    H151640   5.641   6.763   2.605  1.1487 -0.1201  1.2275
10075TIP3    H251641   5.704   6.625   2.608  0.6973 -0.3626  0.0869
10076TIP3   OH251642   4.944   4.130   0.693 -0.4727 -0.5620  0.0340
10076TIP3    H151643   4.865   4.185   0.687 -0.8235 -1.1927 -1.8711
10076TIP3    H251644   5.007   4.185   0.740 -1.3639  0.7960 -0.2669
10077TIP3   OH251645   5.396   2.698  12.824  0.1735  0.0113 -0.2664
10077TIP3    H151646   5.409   2.772  12.883 -0.1244  0.4068 -0.6910
10077TIP3    H251647   5.301   2.685  12.823  0.0377  0.8880 -1.7078
10078TIP3   OH251648   0.764   2.390  15.312  0.4610  0.2466 -0.3031
10078TIP3    H151649   0.758   2.348  15.226  1.6844  1.2344 -0.8902
10078TIP3    H251650   0.677   2.378  15.350 -0.3524  0.5170 -2.0057
10079TIP3   OH251651   0.323   4.401  17.502 -0.3449  0.2384 -0.5449
10079TIP3    H151652   0.365   4.324  17.541 -0.1859  0.8182  0.4792
10079TIP3    H251653   0.376   4.475  17.533 -2.0026  0.9796  0.6661
10080TIP3   OH251654   3.387   3.628   2.689  0.7429 -0.1818  0.5154
10080TIP3    H151655   3.420   3.538   2.681 -1.0804 -0.8799  0.4047
10080TIP3    H251656   3.442   3.678   2.628  1.0130 -1.4487 -0.3328
10081TIP3   OH251657   0.123   0.329  13.165 -0.4062  0.1746  0.4458
10081TIP3    H151658   0.206   0.314  13.209  1.1503 -1.8852 -2.8371
10081TIP3    H251659   0.125   0.422  13.140  0.7574  0.2309  0.7165
10082TIP3   OH251660   3.267   3.914   1.609 -0.3430 -0.3649 -0.2653
10082TIP3    H151661   3.339   3.916   1.547  0.7856  0.4841  1.0222
10082TIP3    H251662   3.243   4.005   1.623  0.4734 -0.3982  1.6790
10083TIP3   OH251663   6.448   4.859   0.722 -0.3240 -0.2185 -0.0101
10083TIP3    H151664   6.468   4.932   0.780 -1.2801  0.6982 -0.7988
10083TIP3    H251665   6.353   4.862   0.711 -0.1913 -0.5119 -1.4347
10084TIP3   OH251666   2.685   1.089   3.540 -0.1980  0.3216 -0.3754
10084TIP3    H151667   2.608   1.113   3.590 -1.2471 -1.1194 -1.2189
10084TIP3    H251668   2.739   1.039   3.602 -1.3621 -1.2208 -0.5399
10085TIP3   OH251669   5.636   0.521  17.042 -0.4530 -0.6512 -0.1343
10085TIP3    H151670   5.545   0.531  17.069  0.4700  1.8672  2.6074
10085TIP3    H251671   5.679   0.481  17.118  0.7789 -1.7576 -1.3569
10086TIP3   OH251672   4.248   5.887   3.414 -0.1853  0.4302 -0.3128
10086TIP3    H151673   4.202   5.926   3.339 -1.4376 -0.0246  0.1996
10086TIP3    H251674   4.243   5.954   3.482  0.4205  0.5995 -0.4275
10087TIP3   OH251675   0.609   4.593   2.562  0.5073  0.0117 -0.4763
10087TIP3    H151676   0.567   4.622   2.481 -1.3819 -0.2441  0.3549
10087TIP3    H251677   0.623   4.673   2.612 -1.8949 -0.1146  0.5252
10088TIP3   OH251678   4.742   0.696  15.276 -0.3588 -0.1369 -0.2732
10088TIP3    H151679   4.793   0.683  15.356 -0.3470 -2.0328 -0.5549
10088TIP3    H251680   4.765   0.785  15.248  1.6716 -0.3897  0.3953
10089TIP3   OH251681   5.832   1.879   2.482  0.2710  0.3330 -0.3455
10089TIP3    H151682   5.748   1.874   2.527  0.5748  0.5641  0.2485
10089TIP3    H251683   5.814   1.927   2.401  0.0974  1.5406  0.4011
10090TIP3   OH251684   2.376   0.348  15.098 -0.2603 -0.0881  0.0522
10090TIP3    H151685   2.391   0.280  15.033 -1.0843 -0.8885  0.6696
10090TIP3    H251686   2.401   0.430  15.054  0.9897 -0.8018 -0.6077
10091TIP3   OH251687   3.242   2.508  16.254  0.2595 -0.0956  0.4979
10091TIP3    H151688   3.274   2.485  16.341  0.4467  3.1176  1.3870
10091TIP3    H251689   3.148   2.492  16.257  0.5697 -2.2585  0.4145
10092TIP3   OH251690   0.632   4.873  13.602 -0.1947  0.0525 -0.2043
10092TIP3    H151691   0.603   4.905  13.517 -0.0366 -0.0071 -0.2811
10092TIP3    H251692   0.551   4.853  13.649 -0.2729 -0.5464 -0.5852
10093TIP3   OH251693   5.471   3.634   2.471  0.4196  0.1894 -0.3560
10093TIP3    H151694   5.518   3.653   2.552  0.2313  0.4500 -0.3032
10093TIP3    H251695   5.455   3.720   2.432 -0.2546  0.1274 -0.2304
10094TIP3   OH251696   4.365   4.850  13.516 -0.5108  0.0243 -0.2493
10094TIP3    H151697   4.448   4.807  13.494 -0.0119  0.8566 -0.0675
10094TIP3    H251698   4.359   4.843  13.611 -1.0908 -0.8026 -0.3433
10095TIP3   OH251699   4.281   5.449   2.275 -0.3875 -0.4257  0.2838
10095TIP3    H151700   4.231   5.373   2.244 -0.6617 -1.1157  2.2613
10095TIP3    H251701   4.361   5.448   2.223 -1.1040 -1.0858 -0.8567
10096TIP3   OH251702   1.471   2.964   3.350  0.4822  0.4541 -0.1280
10096TIP3    H151703   1.470   3.056   3.378  0.7920  0.2745  0.4808
10096TIP3    H251704   1.379   2.940   3.343  0.4038  0.6131  0.3539
10097TIP3   OH251705   1.912   1.533  16.926  0.7731 -0.1966 -0.1077
10097TIP3    H151706   1.964   1.611  16.940  0.6718 -0.2019  0.2994
10097TIP3    H251707   1.880   1.541  16.836 -0.4078  0.9283  0.3808
10098TIP3   OH251708   5.680   5.170   4.192  0.5536 -0.0421 -0.3054
10098TIP3    H151709   5.594   5.211   4.198  1.3817  1.9142 -1.2218
10098TIP3    H251710   5.666   5.081   4.226 -1.3040  0.9430  1.6986
10099TIP3   OH251711   4.246   4.986  14.257 -0.1998  0.1540  0.4449
10099TIP3    H151712   4.255   4.996  14.162  0.8217 -0.7025  0.4386
10099TIP3    H251713   4.255   4.892  14.272 -2.1048  0.0427  1.2283
10100TIP3   OH251714   2.613   1.575  14.056 -0.7297 -0.0649  0.3939
10100TIP3    H151715   2.544   1.542  13.998  0.0453  0.2481 -0.7340
10100TIP3    H251716   2.694   1.539  14.019 -0.3237 -0.9823  2.0881
10101TIP3   OH251717   5.071   1.676  15.191  0.0201 -0.2535 -0.0552
10101TIP3    H151718   5.025   1.642  15.114  2.5505 -0.1729 -1.7176
10101TIP3    H251719   5.111   1.757  15.162  0.2596  0.2906  1.6694
10102TIP3   OH251720   3.577   0.990  14.019  0.4658 -0.3841  0.2265
10102TIP3    H151721   3.583   1.022  14.109  1.4082  0.3031 -0.0572
10102TIP3    H251722   3.494   1.024  13.986  0.5216  0.0883  0.5664
10103TIP3   OH251723   2.597   0.811  15.781  0.2263  0.1000 -0.2968
10103TIP3    H151724   2.604   0.880  15.847 -0.1144 -2.1151  2.1862
10103TIP3    H251725   2.505   0.784  15.784  0.5791 -1.1737 -0.4188
10104TIP3   OH251726   4.243   2.113  11.416 -0.3242  0.1850  0.5954
10104TIP3    H151727   4.297   2.044  11.376  0.5752  1.2122 -0.0387
10104TIP3    H251728   4.163   2.115  11.363  0.0391  0.2387  0.0343
10105TIP3   OH251729   6.264   3.258   0.230  0.2434  0.0327  0.2108
10105TIP3    H151730   6.320   3.238   0.155 -0.5478 -0.0756 -0.3668
10105TIP3    H251731   6.311   3.221   0.305  1.0291  0.1028 -0.2285
10106TIP3   OH251732   2.759   3.703   1.673 -0.3125  0.0851  0.0600
10106TIP3    H151733   2.845   3.745   1.660 -0.3420  0.5993  1.3746
10106TIP3    H251734   2.715   3.713   1.589  0.3022  1.2714 -0.1450
10107TIP3   OH251735   0.837   3.246   0.826  0.0306 -0.0957 -0.1283
10107TIP3    H151736   0.794   3.178   0.774  0.9225 -1.2388  0.5544
10107TIP3    H251737   0.872   3.308   0.762  0.7831 -1.2733 -0.9065
10108TIP3   OH251738   1.505   0.663   6.485 -0.0046  0.3112 -0.0553
10108TIP3    H151739   1.597   0.638   6.481 -0.2324 -0.6915  0.6580
10108TIP3    H251740   1.463   0.591   6.532 -0.7696  1.8551  1.7279
10109TIP3   OH251741   6.004   4.656  16.125 -0.0310 -0.3716  0.2216
10109TIP3    H151742   6.015   4.751  16.121 -3.7156  0.1538 -1.1201
10109TIP3    H251743   6.034   4.625  16.040 -1.3249 -0.0167 -0.3812
10110TIP3   OH251744   0.039   3.475  13.618 -0.1000 -0.5090  0.7346
10110TIP3    H151745  -0.030   3.412  13.598 -0.0401 -0.4590  0.3567
10110TIP3    H251746   0.077   3.444  13.701  1.4802 -2.3479 -0.5800
10111TIP3   OH251747   4.951   6.605  14.766 -0.2408  0.0398  0.0410
10111TIP3    H151748   4.992   6.602  14.852 -1.0619  0.3465  0.4479
10111TIP3    H251749   4.920   6.516  14.750  1.4282 -0.4612 -0.7139
10112TIP3   OH251750   0.346   5.731   0.176  0.3238 -0.2233  0.1889
10112TIP3    H151751   0.387   5.703   0.258 -0.0808  1.4939  1.0150
10112TIP3    H251752   0.360   5.657   0.117  2.1230 -0.8416  1.2791
10113TIP3   OH251753   4.294   3.261  13.462  0.1674  0.3065  0.1857
10113TIP3    H151754   4.332   3.266  13.374 -0.9180 -0.3003 -0.3490
10113TIP3    H251755   4.325   3.178  13.498  0.9905  0.7745  0.5715
10114TIP3   OH251756   4.932   6.454   2.927  0.1932  0.0157 -0.1422
10114TIP3    H151757   4.984   6.392   2.876  0.2467  0.0805 -0.1662
10114TIP3    H251758   4.997   6.508   2.972  0.1743 -1.4082  1.6957
10115TIP3   OH251759   2.707   4.712  10.989 -0.1235  0.1637  0.1623
10115TIP3    H151760   2.745   4.626  10.970 -0.7060 -0.3066  1.0507
10115TIP3    H251761   2.776   4.774  10.965 -0.3068 -0.4201 -2.1385
10116TIP3   OH251762   6.682   2.627  15.569 -0.0651 -0.2640 -0.1068
10116TIP3    H151763   6.643   2.606  15.654  2.3554 -0.0229  1.1775
10116TIP3    H251764   6.668   2.548  15.516 -0.0791 -1.1229  1.1334
10117TIP3   OH251765   2.199   0.584  15.828  0.0133 -0.1704  0.2258
10117TIP3    H151766   2.135   0.618  15.766  0.2287  1.7478  1.0065
10117TIP3    H251767   2.246   0.516  15.778 -1.7720 -0.7650 -0.7295
10118TIP3   OH251768   2.982   2.409  16.299  0.3707  0.3996 -0.0629
10118TIP3    H151769   2.978   2.415  16.394  0.2341 -1.2462  0.0590
10118TIP3    H251770   2.906   2.358  16.274  0.4707  0.7012 -1.0618
10119TIP3   OH251771   2.587   0.656  12.727 -0.0603 -0.2179  0.1777
10119TIP3    H151772   2.532   0.579  12.746 -1.6619  0.8032 -0.1540
10119TIP3    H251773   2.677   0.622  12.732 -0.7108 -2.4400 -1.2377
10120TIP3   OH251774   3.608   6.280  13.762 -0.2797 -0.2578 -0.0362
10120TIP3    H151775   3.637   6.300  13.674 -1.2279  0.3236 -0.2339
10120TIP3    H251776   3.535   6.219  13.750 -0.9175  0.4212  0.2900
10121TIP3   OH251777   2.356   0.629   6.109  0.4589  0.2025  0.0291
10121TIP3    H151778   2.377   0.711   6.064 -0.9177 -0.2453 -1.5235
10121TIP3    H251779   2.397   0.561   6.056  0.2865 -0.2321  0.4491
10122TIP3   OH251780   4.472   0.835  12.979 -0.1394  0.1562  0.3727
10122TIP3    H151781   4.434   0.819  12.893 -0.8314  0.7578  0.5575
10122TIP3    H251782   4.397   0.849  13.036  0.3032 -0.5671  1.1478
10123TIP3   OH251783   1.356   2.839   2.969 -0.0565  0.3068  0.1036
10123TIP3    H151784   1.308   2.862   2.889  1.3768  1.3330 -0.4915
10123TIP3    H251785   1.378   2.747   2.958 -2.0952 -0.2956  0.5359
10124TIP3   OH251786   0.984   5.524  11.972  1.1275 -0.5859 -0.1280
10124TIP3    H151787   0.971   5.606  11.924 -0.2792 -0.4177  0.4682
10124TIP3    H251788   1.045   5.474  11.919 -2.5088 -1.7142 -3.7914
10125TIP3   OH251789   1.202   0.959  16.485  0.5009 -0.0886 -0.5663
10125TIP3    H151790   1.239   0.925  16.403  1.5733  0.4078 -0.3094
10125TIP3    H251791   1.228   0.895  16.551  0.0873 -0.2193 -0.5288
10126TIP3   OH251792   0.879   1.188  14.179  0.4599  0.3038 -0.0770
10126TIP3    H151793   0.799   1.236  14.155  0.3548  0.0125 -0.3259
10126TIP3    H251794   0.847   1.102  14.207  0.5370  0.8006  1.6182
10127TIP3   OH251795   6.074   0.164  16.444  0.3570 -0.7064  0.2082
10127TIP3    H151796   6.131   0.124  16.378 -0.4368 -1.1528 -0.2280
10127TIP3    H251797   6.020   0.092  16.476 -0.2358 -0.2232  0.3205
10128TIP3   OH251798   1.957   0.191   1.784  0.4182 -0.1036  0.7817
10128TIP3    H151799   2.011   0.139   1.724  1.3189 -1.6441  2.7945
10128TIP3    H251800   2.018   0.221   1.851 -0.2660  2.9170  0.1814
10129TIP3   OH251801   1.140   0.853  11.739  0.6219  0.5187 -0.3329
10129TIP3    H151802   1.093   0.898  11.669  0.5034 -0.2988 -0.7847
10129TIP3    H251803   1.096   0.882  11.819 -0.1782  0.3404 -0.6980
10130TIP3   OH251804   6.354   4.326   0.901 -0.2715  0.4152 -0.8718
10130TIP3    H151805   6.429   4.326   0.961  0.0965 -0.8749 -1.3110
10130TIP3    H251806   6.326   4.235   0.897 -1.6358  0.8180 -1.0274
10131TIP3   OH251807   5.058   3.689  12.972  0.3620 -0.1597 -0.0754
10131TIP3    H151808   5.053   3.734  13.056  0.2575 -1.9436  0.9208
10131TIP3    H251809   5.079   3.598  12.995  1.7146 -0.4060 -2.0508
10132TIP3   OH251810   1.979   4.007   0.380  0.2136 -0.3785 -0.6435
10132TIP3    H151811   1.981   3.924   0.427 -0.2256  0.1688  0.3685
10132TIP3    H251812   1.908   3.997   0.317 -0.1713 -0.5998 -0.1838
10133TIP3   OH251813   6.658   3.950   2.295 -0.1978  0.2489  0.1808
10133TIP3    H151814   6.732   3.957   2.355 -0.3818 -0.5158  0.5028
10133TIP3    H251815   6.594   4.013   2.328 -0.4543 -0.4375  1.0278
10134TIP3   OH251816   6.562   1.944  14.257  0.0936  0.4137  0.8140
10134TIP3    H151817   6.512   1.983  14.329 -1.1912  2.2730 -0.9610
10134TIP3    H251818   6.580   2.017  14.198  1.6066 -0.9339 -0.4874
10135TIP3   OH251819   2.357   4.973   5.287  0.2220 -0.3870 -0.2017
10135TIP3    H151820   2.334   5.024   5.365 -2.2914 -0.7203 -0.6462
10135TIP3    H251821   2.388   5.038   5.224  1.5108 -0.0203  0.7682
10136TIP3   OH251822   4.578   2.088   5.077 -0.2632 -0.3677 -0.0976
10136TIP3    H151823   4.495   2.096   5.124 -0.4729 -0.4396 -0.4466
10136TIP3    H251824   4.620   2.011   5.114  0.1105  0.2473  0.7830
10137TIP3   OH251825   4.481   4.777  14.271 -0.2323  0.3554  0.0720
10137TIP3    H151826   4.428   4.813  14.199  0.5370 -0.5112 -0.9546
10137TIP3    H251827   4.535   4.710  14.230  0.2565 -0.1393  1.4702
10138TIP3   OH251828   4.235   4.326  16.294 -0.0339  0.3948  0.0267
10138TIP3    H151829   4.153   4.299  16.334 -0.4725  0.9685 -0.4704
10138TIP3    H251830   4.214   4.340  16.202  0.8274 -0.3363 -0.3018
10139TIP3   OH251831   0.150   0.138  11.224 -0.1861  1.1230  0.6049
10139TIP3    H151832   0.237   0.172  11.203  0.0807  0.8976  1.3187
10139TIP3    H251833   0.119   0.100  11.142 -1.0508  4.1874 -0.6095
10140TIP3   OH251834   0.076   5.792   1.690  0.1767  0.0894  0.3708
10140TIP3    H151835   0.046   5.762   1.776  0.4308  0.8252  0.7248
10140TIP3    H251836  -0.003   5.798   1.637  0.2619 -2.6532 -0.1949
10141TIP3   OH251837   5.458   0.893  17.516  0.1192  0.4724  0.0100
10141TIP3    H151838   5.541   0.872  17.474 -0.0956  0.5186 -0.4420
10141TIP3    H251839   5.455   0.989  17.517  0.1331  0.4713  0.1453
10142TIP3   OH251840   3.211   2.564   0.027 -0.1015 -0.0332  0.4542
10142TIP3    H151841   3.135   2.508   0.014 -0.6883  0.9167 -0.4359
10142TIP3    H251842   3.214   2.579   0.121 -1.5541  0.6017  0.4311
10143TIP3   OH251843   5.661   1.872  11.915  0.3959 -0.1773 -0.2366
10143TIP3    H151844   5.662   1.968  11.920 -1.6136 -0.1056 -0.3186
10143TIP3    H251845   5.695   1.853  11.827  1.6498  0.3995  0.1076
10144TIP3   OH251846   5.636   1.574   0.629  0.0283  0.7027 -0.1423
10144TIP3    H151847   5.723   1.534   0.636 -0.8880 -1.2756  0.6841
10144TIP3    H251848   5.635   1.615   0.542  1.1091 -0.9873 -0.9997
10145TIP3   OH251849   5.243   4.990  16.053  0.0837  0.2087  0.0694
10145TIP3    H151850   5.171   5.037  16.012  0.3567  1.6715  1.1822
10145TIP3    H251851   5.269   4.924  15.989  0.2207  2.1117 -1.9430
10146TIP3   OH251852   4.886   1.441  15.444 -0.7464  0.0248  0.5623
10146TIP3    H151853   4.977   1.429  15.415 -0.6104  0.5208  0.7610
10146TIP3    H251854   4.891   1.514  15.507 -1.0998 -0.7463  1.5086
10147TIP3   OH251855   1.757   1.660   3.905 -0.0547 -0.4022  0.4653
10147TIP3    H151856   1.673   1.625   3.934 -0.4560  0.2615  0.1212
10147TIP3    H251857   1.799   1.587   3.860 -0.6947 -0.5728  0.1352
10148TIP3   OH251858   2.392   1.852  11.807  0.0578 -0.0237  0.2867
10148TIP3    H151859   2.411   1.815  11.893 -1.7740 -2.5265 -0.2696
10148TIP3    H251860   2.453   1.809  11.748  1.1751  1.5377  0.2339
10149TIP3   OH251861   0.327   1.574  11.589 -0.5208  0.3416  0.0103
10149TIP3    H151862   0.315   1.598  11.497 -1.5820  1.1013  0.3326
10149TIP3    H251863   0.254   1.516  11.608  1.7004 -2.9899 -0.6167
10150TIP3   OH251864   0.133   5.054   6.456  0.4255 -0.0871  0.5951
10150TIP3    H151865   0.219   5.026   6.425 -0.5685 -0.4870 -2.0913
10150TIP3    H251866   0.134   5.149   6.449  0.0392 -0.1976 -1.3498
10151TIP3   OH251867   2.023   2.890  13.346  0.7710 -0.1533 -0.0889
10151TIP3    H151868   1.994   2.802  13.371  0.1711 -0.0689 -0.4527
10151TIP3    H251869   2.016   2.891  13.250 -0.2767  0.6353 -0.0246
10152TIP3   OH251870   1.386   1.283  15.162  0.1914 -0.0256  0.3914
10152TIP3    H151871   1.328   1.222  15.208  1.3365 -1.3685  0.1098
10152TIP3    H251872   1.466   1.233  15.146  2.1314  2.2504  2.2380
10153TIP3   OH251873   2.672   4.986  13.427  0.4354 -0.1213 -0.2644
10153TIP3    H151874   2.642   5.008  13.339  0.1110 -0.1013 -0.1512
10153TIP3    H251875   2.610   4.920  13.458  1.3532 -1.1646 -0.5833
10154TIP3   OH251876   3.786   0.095   5.407  0.2885  0.2813 -0.4023
10154TIP3    H151877   3.691   0.098   5.424  0.2555 -1.1144 -0.2220
10154TIP3    H251878   3.792   0.070   5.315  0.4905  0.4601 -0.4375
10155TIP3   OH251879   0.368   1.942  14.165  0.5609 -0.2401 -0.3806
10155TIP3    H151880   0.340   1.983  14.247  0.2898  0.1943 -0.6836
10155TIP3    H251881   0.443   1.888  14.189 -0.6416 -1.6167  0.5153
10156TIP3   OH251882   2.996   5.071  14.299 -0.5559 -0.2789 -0.1678
10156TIP3    H151883   2.967   5.153  14.260 -0.5995 -0.3207 -0.2238
10156TIP3    H251884   3.072   5.095  14.352  0.6152 -0.4998 -1.6762
10157TIP3   OH251885   1.995   6.036   2.240  0.1511  0.6079  0.4062
10157TIP3    H151886   1.974   6.129   2.238 -1.2603  0.3713 -3.0752
10157TIP3    H251887   2.082   6.030   2.200 -0.6839  0.3468 -1.4630
10158TIP3   OH251888   0.549   2.672  14.197  0.7871 -0.7670  0.4124
10158TIP3    H151889   0.589   2.654  14.282  0.5261 -0.7126  0.5485
10158TIP3    H251890   0.622   2.697  14.141  1.2156 -2.5142  0.1402
10159TIP3   OH251891   1.046   2.846  11.984 -0.2724 -0.4608 -0.5170
10159TIP3    H151892   0.955   2.867  11.964 -0.5892  0.1613  1.3228
10159TIP3    H251893   1.041   2.787  12.059  0.8266 -1.1440 -0.9657
10160TIP3   OH251894   5.160   4.100  10.918  0.6673 -0.9531  1.0555
10160TIP3    H151895   5.079   4.052  10.899  0.5370 -0.4615  0.3066
10160TIP3    H251896   5.131   4.189  10.939  1.0438 -0.6068  0.1527
10161TIP3   OH251897   2.586   3.735  11.336  0.7414  0.6232 -0.5256
10161TIP3    H151898   2.648   3.690  11.279 -1.5459 -1.8127 -1.2888
10161TIP3    H251899   2.522   3.668  11.360 -1.4986  2.9144  0.3847
10162TIP3   OH251900   2.667   5.962   4.211  0.6551 -0.2404 -0.5004
10162TIP3    H151901   2.754   5.941   4.246  0.3223 -1.9036 -0.5667
10162TIP3    H251902   2.684   5.982   4.119  1.0991  0.6143 -0.2444
10163TIP3   OH251903   3.174   1.963  16.849  0.0004  0.0951  0.2810
10163TIP3    H151904   3.078   1.964  16.859 -0.0382 -1.1610  0.1703
10163TIP3    H251905   3.207   1.992  16.934 -0.4567 -1.8825  1.1841
10164TIP3   OH251906   1.692   0.333   4.554 -0.0381  0.2789  0.5778
10164TIP3    H151907   1.606   0.299   4.578  0.9578 -2.0307  1.1898
10164TIP3    H251908   1.730   0.363   4.637  0.2318  0.0721  0.5324
10165TIP3   OH251909   1.851   3.991  13.600  0.0268 -0.5426  0.0181
10165TIP3    H151910   1.857   4.010  13.694  0.5885  3.6397 -0.6838
10165TIP3    H251911   1.939   3.963  13.576  0.0766 -0.9016  0.5879
10166TIP3   OH251912   0.041   5.349   1.936  0.4581 -0.0239 -0.2429
10166TIP3    H151913   0.122   5.383   1.896  0.0130  0.7023 -0.5401
10166TIP3    H251914  -0.005   5.427   1.967  0.3598 -0.5082  0.8905
10167TIP3   OH251915   1.164   3.567  15.940  0.5613 -0.2885 -0.0832
10167TIP3    H151916   1.234   3.632  15.930 -0.5266  0.7259 -1.5459
10167TIP3    H251917   1.182   3.502  15.872 -1.0111  1.0914 -1.9410
10168TIP3   OH251918   2.621   6.557   1.822  0.0470 -0.1743 -0.0984
10168TIP3    H151919   2.560   6.509   1.878  0.6140  0.4523  1.1009
10168TIP3    H251920   2.585   6.548   1.734 -1.2491 -0.6224  0.4529
10169TIP3   OH251921   5.385   5.908  11.473 -0.0201  0.7438 -0.5572
10169TIP3    H151922   5.406   5.872  11.387  0.4065  1.4203 -0.7428
10169TIP3    H251923   5.328   5.983  11.455 -0.9943  0.1178 -0.1696
10170TIP3   OH251924   6.711   2.503   6.377 -0.4833  0.0395 -0.4787
10170TIP3    H151925   6.695   2.492   6.471 -0.4100  0.9539 -0.3486
10170TIP3    H251926   6.643   2.452   6.335 -0.9954  0.2450  0.0802
10171TIP3   OH251927   5.045   4.501   1.954 -0.0225 -0.1285 -0.0806
10171TIP3    H151928   5.119   4.531   2.006  0.0875 -0.4288 -0.0647
10171TIP3    H251929   4.991   4.452   2.016 -0.5703  0.6414  0.0674
10172TIP3   OH251930   2.381   6.111   2.381 -0.0090  0.0729  0.3024
10172TIP3    H151931   2.469   6.139   2.356 -0.3420 -0.0252 -1.0409
10172TIP3    H251932   2.336   6.191   2.408 -0.4653  0.6452 -2.0081
10173TIP3   OH251933   4.402   5.084   5.720 -0.3383 -0.7635 -0.1816
10173TIP3    H151934   4.382   5.151   5.655  1.1789  1.4018  1.4328
10173TIP3    H251935   4.344   5.011   5.698 -0.0210 -0.1314 -3.8132
10174TIP3   OH251936   2.709   6.057   2.865 -0.1874 -0.3271 -0.5059
10174TIP3    H151937   2.764   5.991   2.821  0.0756 -0.5703  0.1697
10174TIP3    H251938   2.723   6.137   2.815  1.0426 -0.3090 -0.1624
10175TIP3   OH251939   5.143   2.517  11.332 -0.1430 -0.5574 -0.5094
10175TIP3    H151940   5.065   2.500  11.384  0.6845  1.8188  1.7794
10175TIP3    H251941   5.127   2.603  11.292  1.2479  0.0347  0.1042
10176TIP3   OH251942   4.308   0.807   2.962  0.8847 -0.2109  0.2496
10176TIP3    H151943   4.357   0.759   2.896  0.6034  0.8004 -0.7267
10176TIP3    H251944   4.316   0.899   2.936  0.5568  0.1859  1.4847
10177TIP3   OH251945   4.216   4.661   0.742  0.0474  0.2600  0.8178
10177TIP3    H151946   4.269   4.594   0.784 -1.1613 -2.5192 -1.6919
10177TIP3    H251947   4.279   4.716   0.695  0.9387 -1.0145  0.4740
10178TIP3   OH251948   1.510   4.292  15.211  0.2637 -0.6937  0.3987
10178TIP3    H151949   1.464   4.371  15.236 -1.2374 -2.1656  2.6199
10178TIP3    H251950   1.475   4.270  15.125 -0.7888 -0.0359  0.6497
10179TIP3   OH251951   1.734   4.539   5.160  0.1195  0.1913  0.3888
10179TIP3    H151952   1.678   4.612   5.188 -0.7798  0.7012 -2.4385
10179TIP3    H251953   1.683   4.461   5.180 -0.2388  0.4836  0.6383
10180TIP3   OH251954   5.792   5.284   5.078 -0.3027  0.4769 -0.2832
10180TIP3    H151955   5.809   5.243   4.993  2.6427  0.8807  0.0031
10180TIP3    H251956   5.712   5.241   5.110  1.2194 -3.3634 -1.0743
10181TIP3   OH251957   5.162   2.547   3.122  0.0586 -0.3662  0.1964
10181TIP3    H151958   5.215   2.599   3.182 -0.3055 -0.1966  0.3731
10181TIP3    H251959   5.085   2.602   3.103  0.2153 -0.3750 -0.4983
10182TIP3   OH251960   6.308   1.962  13.792  0.2096 -0.5345  0.0385
10182TIP3    H151961   6.379   1.961  13.728  0.1001 -0.1885 -0.0890
10182TIP3    H251962   6.288   1.870  13.807 -0.1750 -0.6140 -0.8825
10183TIP3   OH251963   4.771   5.738  14.815  0.8010  0.2367 -0.4678
10183TIP3    H151964   4.744   5.684  14.889  1.3182 -0.0887 -0.5078
10183TIP3    H251965   4.736   5.825  14.835  1.2033  0.2348  0.3297
10184TIP3   OH251966   4.005   1.385   3.245  0.8599 -0.1382 -0.0337
10184TIP3    H151967   4.018   1.418   3.156  2.0069  1.0005  0.5108
10184TIP3    H251968   4.051   1.301   3.246  0.8312 -0.1637 -0.5208
10185TIP3   OH251969   5.921   6.067   4.519 -0.2283  0.1243  1.0069
10185TIP3    H151970   5.840   6.021   4.494 -0.2997  0.8377 -0.1487
10185TIP3    H251971   5.891   6.139   4.575 -0.7039  1.7288 -1.1678
10186TIP3   OH251972   1.931   1.265   2.014 -0.9580 -0.1438  0.1853
10186TIP3    H151973   1.982   1.312   2.079 -0.0121 -0.9446  0.0439
10186TIP3    H251974   1.855   1.232   2.062 -1.3307  1.0126  0.4059
10187TIP3   OH251975   2.519   2.264   1.399  0.5412  0.2102 -0.4157
10187TIP3    H151976   2.500   2.355   1.376 -1.5697  0.0807  0.5713
10187TIP3    H251977   2.456   2.212   1.349 -2.9838 -0.1705  3.8286
10188TIP3   OH251978   5.751   1.904   6.230 -0.1290  0.5252  0.0361
10188TIP3    H151979   5.733   1.870   6.318 -0.9665 -0.5280 -0.5161
10188TIP3    H251980   5.743   1.827   6.173 -1.7691  1.5589 -1.2293
10189TIP3   OH251981   0.939   2.769   5.822  0.2416 -0.7381  0.3900
10189TIP3    H151982   0.967   2.702   5.885  0.0670  2.3320  4.1080
10189TIP3    H251983   0.855   2.800   5.857 -0.8394 -0.0942 -2.5269
10190TIP3   OH251984   6.508   1.152   5.390 -0.1932 -0.0751  0.1581
10190TIP3    H151985   6.459   1.232   5.372 -0.4044 -0.5730 -1.6008
10190TIP3    H251986   6.497   1.098   5.312  4.2180  0.2944 -0.9767
10191TIP3   OH251987   5.146   1.522  13.670  0.1329  0.5019  0.3719
10191TIP3    H151988   5.232   1.565  13.668  1.6990 -2.3162 -2.4471
10191TIP3    H251989   5.090   1.579  13.617 -0.0981  2.7198  2.7809
10192TIP3   OH251990   3.063   2.210   3.629 -0.3108 -0.7129  0.0156
10192TIP3    H151991   3.089   2.118   3.639 -0.1765 -0.7105 -0.2858
10192TIP3    H251992   3.055   2.222   3.534 -0.7670 -0.5328  0.0727
10193TIP3   OH251993   0.396   3.763   5.770  0.6285 -0.1012  0.0857
10193TIP3    H151994   0.490   3.760   5.785  0.8744  0.3652 -1.1676
10193TIP3    H251995   0.380   3.853   5.740  0.0046 -0.5101 -0.8750
10194TIP3   OH251996   3.598   3.243   5.341  0.5432  0.4685 -0.1743
10194TIP3    H151997   3.503   3.240   5.335  0.6138 -0.1893 -1.1486
10194TIP3    H251998   3.617   3.202   5.426 -0.0240  0.4411 -0.0540
10195TIP3   OH251999   2.981   2.185  12.976 -0.1794 -0.4361  0.2737
10195TIP3    H152000   3.028   2.230  13.046  2.3147 -1.2890 -0.7410
10195TIP3    H252001   3.049   2.139  12.927 -2.1162 -1.8170 -1.2905
10196TIP3   OH252002   0.181   2.570   1.051  0.4192  0.4021  0.2678
10196TIP3    H152003   0.101   2.564   0.999  0.2811 -2.2209  0.6705
10196TIP3    H252004   0.235   2.498   1.020  2.2377  1.5136  0.7168
10197TIP3   OH252005   0.208   3.687  13.860  0.0658  0.0688 -0.3597
10197TIP3    H152006   0.143   3.662  13.926  0.2070  0.9668  0.1439
10197TIP3    H252007   0.275   3.619  13.866 -0.2876 -0.2588 -0.0886
10198TIP3   OH252008   6.039   2.607  11.598  0.1924 -0.3944 -0.5028
10198TIP3    H152009   6.122   2.600  11.550  1.7294  1.1943  1.6994
10198TIP3    H252010   6.061   2.577  11.687 -1.5161  0.3924  0.2222
10199TIP3   OH252011   1.814   1.209   7.009  0.0640  0.1246 -0.4810
10199TIP3    H152012   1.865   1.290   7.003  0.2948  0.2696  2.1274
10199TIP3    H252013   1.743   1.220   6.946 -0.6325  2.9442  0.6223
10200TIP3   OH252014   4.334   0.173   5.889 -0.5250  0.4904 -0.1058
10200TIP3    H152015   4.265   0.211   5.944 -1.5453  1.8552 -2.2044
10200TIP3    H252016   4.294   0.095   5.851 -0.4661  0.5574 -0.3084
10201TIP3   OH252017   4.202   4.106   1.979  0.2206 -0.0564 -0.3548
10201TIP3    H152018   4.107   4.110   1.988  0.1994 -0.2093 -0.5103
10201TIP3    H252019   4.218   4.119   1.886  0.2876 -1.0470 -0.5006
10202TIP3   OH252020   4.490   5.633  16.532  0.0303 -0.3457  0.4786
10202TIP3    H152021   4.487   5.586  16.615 -1.6279  1.4369  1.5192
10202TIP3    H252022   4.516   5.722  16.556 -1.5230  0.4764 -0.7175
10203TIP3   OH252023   1.290   4.457  13.091 -0.2521 -0.0888 -0.6281
10203TIP3    H152024   1.350   4.425  13.158 -0.4293 -0.3104 -0.5727
10203TIP3    H252025   1.347   4.488  13.020 -0.0324  1.4327  0.1974
10204TIP3   OH252026   4.165   1.050   2.532 -0.3042  0.0584 -0.0566
10204TIP3    H152027   4.178   0.955   2.533  1.0768  0.2137 -0.7534
10204TIP3    H252028   4.119   1.068   2.451 -1.3871 -0.0869  0.5060
10205TIP3   OH252029   6.707   5.531  12.327  0.0685 -0.5060 -0.0274
10205TIP3    H152030   6.648   5.533  12.402  1.0717  1.6458  0.7776
10205TIP3    H252031   6.668   5.593  12.264  0.8938  0.1324  0.0759
10206TIP3   OH252032   3.645   6.521   1.253  0.1225 -0.3122  0.3587
10206TIP3    H152033   3.693   6.560   1.326  2.9828 -0.3711 -1.3522
10206TIP3    H252034   3.712   6.475   1.202 -1.9936 -1.4808 -1.5503
10207TIP3   OH252035   1.108   3.321   0.915  0.0910  0.0230  0.9296
10207TIP3    H152036   1.047   3.256   0.949 -1.6173  0.5213 -0.9834
10207TIP3    H252037   1.141   3.282   0.833 -0.7121  1.3756 -0.0731
10208TIP3   OH252038   0.390   1.738   2.343  0.0256  0.4231 -0.2944
10208TIP3    H152039   0.451   1.727   2.270  1.4729  0.2163  0.9020
10208TIP3    H252040   0.314   1.686   2.318  1.2480 -1.1843 -0.8665
10209TIP3   OH252041   4.328   3.521   1.373 -0.4492  0.3096  0.1717
10209TIP3    H152042   4.249   3.468   1.379  0.4649 -1.0391  0.8020
10209TIP3    H252043   4.394   3.472   1.422  1.0556  0.8731 -1.1828
10210TIP3   OH252044   0.584   0.050   2.011 -0.1703 -0.6519 -0.0258
10210TIP3    H152045   0.650  -0.000   2.059  0.0010 -2.0604 -1.6262
10210TIP3    H252046   0.635   0.114   1.961 -0.3758  1.0895  1.8656
10211TIP3   OH252047   1.869   6.193   5.208 -0.2960  0.1607 -0.4272
10211TIP3    H152048   1.888   6.276   5.164  0.0821  0.9865  1.2302
10211TIP3    H252049   1.912   6.127   5.153 -2.1978  0.7720 -2.8482
10212TIP3   OH252050   5.211   1.455   0.336 -0.6360  0.8085 -0.1619
10212TIP3    H152051   5.267   1.532   0.328  0.5319  0.4069  2.7410
10212TIP3    H252052   5.122   1.489   0.332 -0.1748  1.9974 -0.9249
10213TIP3   OH252053   0.363   5.896  17.037 -1.0407 -0.2058 -0.0861
10213TIP3    H152054   0.436   5.957  17.026 -0.9635 -0.4818 -1.1624
10213TIP3    H252055   0.314   5.902  16.955 -1.5419 -0.9254  0.1551
10214TIP3   OH252056   6.112   1.627   6.647 -0.3413 -0.3128  0.3375
10214TIP3    H152057   6.171   1.698   6.669  0.1203 -0.9577  1.2273
10214TIP3    H252058   6.093   1.584   6.730 -0.5953 -1.2449 -0.1834
10215TIP3   OH252059   3.634   5.178   1.096  0.1127  0.0515 -0.7311
10215TIP3    H152060   3.669   5.108   1.152 -0.2573  0.9339  0.6500
10215TIP3    H252061   3.555   5.140   1.058  0.6715 -0.7558 -1.1189
10216TIP3   OH252062   4.530   3.979  13.726 -0.3281  0.2721 -0.7202
10216TIP3    H152063   4.453   4.001  13.778  2.6525  0.8794  4.0393
10216TIP3    H252064   4.567   4.063  13.700  1.0262  0.2669  1.0148
10217TIP3   OH252065   2.548   5.831   3.266  0.5380  0.0702 -0.7274
10217TIP3    H152066   2.507   5.812   3.181  1.2512 -1.0846 -0.8356
10217TIP3    H252067   2.497   5.781   3.329  1.2433 -0.7151 -0.7583
10218TIP3   OH252068   1.111   0.216   3.518  0.0896 -0.9034 -0.0679
10218TIP3    H152069   1.163   0.295   3.504  0.6834 -1.0446  1.2545
10218TIP3    H252070   1.129   0.162   3.441 -0.0183  0.0662 -0.7983
10219TIP3   OH252071   6.271   3.515   5.722  0.3681  0.1833 -0.5954
10219TIP3    H152072   6.272   3.516   5.627  1.3375 -0.3825 -0.6037
10219TIP3    H252073   6.340   3.453   5.747  0.3323  0.5386  0.4737
10220TIP3   OH252074   1.258   2.550   7.260  0.1798  0.4422 -1.1706
10220TIP3    H152075   1.301   2.634   7.280  1.4347  0.0107 -1.9478
10220TIP3    H252076   1.179   2.574   7.212 -0.5088  1.2606  0.3107
10221TIP3   OH252077   3.904   6.118   5.626  0.1029  0.1123  0.1233
10221TIP3    H152078   3.983   6.125   5.680  1.0408  0.7353 -1.2712
10221TIP3    H252079   3.911   6.033   5.582  0.1433  0.2970 -0.2288
10222TIP3   OH252080   2.444   5.801   4.226 -0.9378 -0.1078  0.2718
10222TIP3    H152081   2.375   5.852   4.183 -0.8464 -1.2832 -1.3711
10222TIP3    H252082   2.519   5.859   4.229 -1.9862  1.2440  2.2121
10223TIP3   OH252083   4.960   1.018  12.837  0.4297  0.0557 -0.1693
10223TIP3    H152084   4.893   0.963  12.877 -0.5061  0.8088 -0.6666
10223TIP3    H252085   4.973   1.090  12.899  0.1709  0.3522 -0.4573
10224TIP3   OH252086   1.358   0.438   1.372  0.3396 -0.1047 -0.0681
10224TIP3    H152087   1.331   0.480   1.290 -0.3885  0.5240  0.4678
10224TIP3    H252088   1.452   0.421   1.361  0.8018  2.1646 -0.1375
10225TIP3   OH252089   4.932   0.569   0.405 -0.3058  0.2611 -0.2513
10225TIP3    H152090   5.017   0.545   0.370 -0.3934  1.1864 -1.1792
10225TIP3    H252091   4.881   0.593   0.327 -1.2849  0.0845  0.3247
10226TIP3   OH252092   1.722   4.900   0.625  0.3871  0.2367 -0.0032
10226TIP3    H152093   1.724   4.819   0.575 -2.8177 -1.3173  2.0503
10226TIP3    H252094   1.678   4.963   0.568 -0.4364 -0.5799 -0.2818
10227TIP3   OH252095   5.980   6.475  14.462  0.8754 -0.2893 -0.4407
10227TIP3    H152096   6.025   6.441  14.385  1.2155  1.3868 -1.0281
10227TIP3    H252097   6.044   6.465  14.533  0.6294 -1.6588 -0.3895
10228TIP3   OH252098   2.517   5.634   4.995  0.4953  0.4248  0.4274
10228TIP3    H152099   2.570   5.620   4.917 -0.2573  1.2331 -0.2639
10228TIP3    H252100   2.479   5.548   5.015  1.2243  0.0706  0.3176
10229TIP3   OH252101   3.737   1.189  12.276  0.0080  0.0517  0.1343
10229TIP3    H152102   3.798   1.208  12.347 -1.2948  0.1767  1.2589
10229TIP3    H252103   3.705   1.275  12.247  1.8438  0.1572 -1.8860
10230TIP3   OH252104   4.197   6.068  13.483 -0.0888  0.3240 -0.5261
10230TIP3    H152105   4.223   6.072  13.391 -1.1425  1.8688 -0.7824
10230TIP3    H252106   4.146   6.148  13.498 -0.0750  0.0329  1.3612
10231TIP3   OH252107   4.908   2.438  13.734 -0.5143 -0.4871 -0.0389
10231TIP3    H152108   4.834   2.499  13.730 -0.9814 -1.0217  0.3857
10231TIP3    H252109   4.953   2.449  13.649  0.0005  1.1751  0.4039
10232TIP3   OH252110   0.855   2.253  15.792  0.4852  0.1932 -0.5369
10232TIP3    H152111   0.930   2.194  15.780  0.0668 -0.9131  1.7783
10232TIP3    H252112   0.789   2.219  15.731  0.1646 -1.9760  0.9145
10233TIP3   OH252113   3.142   5.831  11.965 -0.2676  0.0761 -0.7815
10233TIP3    H152114   3.188   5.915  11.972 -0.0270 -0.0144 -1.2174
10233TIP3    H252115   3.171   5.782  12.041  0.8176 -0.1925 -1.3383
10234TIP3   OH252116   3.270   5.342   2.088 -0.1060  0.4574  0.3530
10234TIP3    H152117   3.252   5.275   2.022  2.0773  0.9076 -0.7970
10234TIP3    H252118   3.185   5.381   2.107 -1.2028 -1.6176 -0.0451
10235TIP3   OH252119   2.556   3.847   3.286  0.0460  0.1120  0.3331
10235TIP3    H152120   2.506   3.848   3.368  0.2046 -0.9393  0.4654
10235TIP3    H252121   2.535   3.762   3.246 -0.9490  1.0860 -1.3086
10236TIP3   OH252122   6.083   1.652   0.367 -0.3598  0.3541  0.3555
10236TIP3    H152123   6.162   1.663   0.421 -0.3786  0.0117  0.4582
10236TIP3    H252124   6.042   1.739   0.365  0.6958  0.8583 -0.7632
10237TIP3   OH252125   0.484   1.198   1.138  0.1394  0.1023  0.4848
10237TIP3    H152126   0.498   1.129   1.203 -0.7356 -1.1256 -0.5922
10237TIP3    H252127   0.399   1.235   1.160  0.3901  0.5193  0.7661
10238TIP3   OH252128   4.470   4.456  12.865  0.1358 -0.4179  0.3473
10238TIP3    H152129   4.545   4.478  12.921  0.0906 -1.7954  0.9840
10238TIP3    H252130   4.395   4.456  12.924 -0.1087 -0.6535  0.0398
10239TIP3   OH252131   2.329   5.076  12.174  0.4425  0.5811 -0.3009
10239TIP3    H152132   2.292   5.164  12.162  1.4363  0.9873 -0.5201
10239TIP3    H252133   2.366   5.055  12.088 -2.6315 -1.4750 -1.2854
10240TIP3   OH252134   1.531   0.755  14.384  0.0400  0.1439  0.1012
10240TIP3    H152135   1.598   0.823  14.384  2.3154 -1.9087  0.7343
10240TIP3    H252136   1.505   0.747  14.293  1.0497  0.6810 -0.2562
10241TIP3   OH252137   5.950   4.212   5.696  0.3419 -0.6980 -0.5652
10241TIP3    H152138   5.994   4.157   5.631  0.7334 -1.5605  0.4053
10241TIP3    H252139   5.870   4.164   5.718  1.6669 -2.0093  1.8152
10242TIP3   OH252140   1.705   1.332   4.053  0.8716  0.2191  0.1868
10242TIP3    H152141   1.791   1.359   4.021  0.5335  0.6835 -0.3488
10242TIP3    H252142   1.662   1.294   3.976  0.3384  0.6382  0.2731
10243TIP3   OH252143   0.510   5.298   1.129 -0.2674 -0.5847 -0.4666
10243TIP3    H152144   0.517   5.378   1.181  0.0593 -0.8982 -0.0232
10243TIP3    H252145   0.552   5.320   1.046 -2.4859  0.5469 -1.3825
10244TIP3   OH252146   5.908   1.763  17.174  0.3028 -0.1821 -0.0280
10244TIP3    H152147   5.994   1.750  17.214  1.0803 -0.9439 -1.8385
10244TIP3    H252148   5.927   1.788  17.084 -1.3716 -1.1572 -0.6882
10245TIP3   OH252149   3.487   5.024  16.660 -0.2434 -0.0554  0.1137
10245TIP3    H152150   3.396   5.053  16.665 -0.9821 -2.2900  1.3879
10245TIP3    H252151   3.510   5.002  16.751  0.9309 -1.2510 -0.4409
10246TIP3   OH252152   2.611   1.057   2.605  0.0651 -0.0678 -0.0482
10246TIP3    H152153   2.611   1.149   2.631  0.0938  0.1493 -0.7775
10246TIP3    H252154   2.676   1.052   2.535 -0.1457 -0.5837 -0.2136
10247TIP3   OH252155   5.954   2.307  13.080 -0.4840  0.4370 -0.0100
10247TIP3    H152156   6.010   2.384  13.086  1.8139 -0.8005 -3.0357
10247TIP3    H252157   5.886   2.330  13.017 -0.3487  0.3050 -0.2056
10248TIP3   OH252158   1.047   3.783  12.947  0.3397  0.0120 -0.0015
10248TIP3    H152159   1.050   3.825  12.861  0.7333 -0.7805 -0.3874
10248TIP3    H252160   1.117   3.825  12.997  0.4186  0.1520 -0.2292
10249TIP3   OH252161   3.189   2.003  15.060  0.5429 -0.9000 -0.0569
10249TIP3    H152162   3.100   2.037  15.053  0.3290 -1.7063 -1.9520
10249TIP3    H252163   3.184   1.937  15.130  0.3484  0.9544  1.7532
10250TIP3   OH252164   4.923   1.287  11.186  0.2615 -0.4781 -0.5161
10250TIP3    H152165   4.997   1.347  11.182  0.1685 -0.4489 -2.0373
10250TIP3    H252166   4.885   1.287  11.098  0.6823 -3.2606 -0.8173
10251TIP3   OH252167   5.007   1.550  12.359  0.5848  0.3325 -0.1659
10251TIP3    H152168   4.980   1.482  12.297 -1.5116  0.1841  0.8497
10251TIP3    H252169   4.954   1.535  12.437  3.2609  0.3887  1.8277
10252TIP3   OH252170   5.726   2.192  14.354 -0.0893 -0.0032  0.5769
10252TIP3    H152171   5.783   2.156  14.422 -1.5964 -0.8331  1.4326
10252TIP3    H252172   5.787   2.227  14.288  1.3999  0.0971  1.9523
10253TIP3   OH252173   1.697   4.025   5.973 -0.4408  0.5401  0.4466
10253TIP3    H152174   1.787   4.056   5.987  0.7544 -1.5556 -1.8714
10253TIP3    H252175   1.705   3.930   5.970 -2.4434  0.3724 -1.5350
10254TIP3   OH252176   5.381   4.803  13.780 -0.2998 -0.0779  0.0989
10254TIP3    H152177   5.347   4.859  13.709  1.2370  2.5987  1.3123
10254TIP3    H252178   5.472   4.787  13.756  0.6512  1.9822  1.9547
10255TIP3   OH252179   2.225   1.654   4.925 -0.0614  0.4519  0.3091
10255TIP3    H152180   2.278   1.646   5.004 -0.7539 -0.6156  0.6757
10255TIP3    H252181   2.140   1.617   4.949 -0.9066  1.8793 -0.3520
10256TIP3   OH252182   2.007   1.856   5.669 -0.6373 -0.1356 -0.3409
10256TIP3    H152183   1.941   1.842   5.737  1.0265 -0.2119  1.3324
10256TIP3    H252184   1.956   1.867   5.588 -2.9150  2.7273  1.2610
10257TIP3   OH252185   6.168   6.621  17.294 -0.4214 -0.5802 -0.0964
10257TIP3    H152186   6.139   6.646  17.207 -1.0677 -0.5461  0.1253
10257TIP3    H252187   6.243   6.563  17.279  0.0560  0.1627 -0.6518
10258TIP3   OH252188   3.339   0.147  15.992 -0.6016 -0.7210 -0.1112
10258TIP3    H152189   3.410   0.199  15.954  0.8594 -1.4827  1.4392
10258TIP3    H252190   3.329   0.182  16.081 -1.4409 -1.3260  0.0432
10259TIP3   OH252191   3.780   5.157   2.845  0.2537  0.1173 -0.2300
10259TIP3    H152192   3.755   5.086   2.904 -0.8625 -0.8344 -1.7962
10259TIP3    H252193   3.809   5.114   2.765  3.1819  1.3294  0.0439
10260TIP3   OH252194   6.132   3.420  14.501 -0.2882  0.1976  0.1886
10260TIP3    H152195   6.142   3.504  14.546 -1.5555  0.1477  0.6035
10260TIP3    H252196   6.054   3.431  14.447 -0.9670 -0.9593  0.8801
10261TIP3   OH252197   2.351   3.956  10.984 -0.0765  0.3367 -0.8969
10261TIP3    H152198   2.401   3.888  10.938 -0.6175 -1.1359  0.5903
10261TIP3    H252199   2.293   3.907  11.043  0.0716  2.1043  0.8092
10262TIP3   OH252200   6.170   4.098   0.819 -0.2571 -0.1451 -0.1623
10262TIP3    H152201   6.237   4.032   0.801  0.2554  0.4158 -0.3553
10262TIP3    H252202   6.117   4.060   0.889 -0.0346 -0.8018 -0.3440
10263TIP3   OH252203   4.720   4.785   1.070 -0.4108  0.5583  0.3949
10263TIP3    H152204   4.810   4.758   1.049 -1.1501 -1.0659 -0.9008
10263TIP3    H252205   4.722   4.803   1.164  0.7565 -1.7101  0.8783
10264TIP3   OH252206   1.014   0.662  11.519  0.3982  0.1287 -0.0532
10264TIP3    H152207   1.092   0.621  11.482  0.4975 -2.0008  2.1939
10264TIP3    H252208   1.038   0.682  11.609 -1.4213  0.0061  0.5085
10265TIP3   OH252209   0.919   3.233   1.690 -0.0616 -0.5338  0.3246
10265TIP3    H152210   0.845   3.265   1.742  0.2202  0.0656  0.3544
10265TIP3    H252211   0.883   3.224   1.601  0.1682  1.0336  0.0476
10266TIP3   OH252212   2.282   1.659  12.705  0.3999 -0.5015  0.2017
10266TIP3    H152213   2.213   1.616  12.756  0.7275 -0.0215  1.0668
10266TIP3    H252214   2.287   1.748  12.741  1.2698 -0.4339 -0.0560
10267TIP3   OH252215   4.801   4.824  15.624 -0.1404  0.3372  0.2599
10267TIP3    H152216   4.828   4.799  15.713 -0.9562 -0.2529  0.3456
10267TIP3    H252217   4.791   4.919  15.629  1.1143  0.4730  0.4411
10268TIP3   OH252218   6.583   0.033  15.102  0.7297  0.1531  0.2144
10268TIP3    H152219   6.655  -0.024  15.074  0.0282  0.0893 -1.5022
10268TIP3    H252220   6.572   0.096  15.031 -0.0387  1.0172  1.0595
10269TIP3   OH252221   4.777   1.921  13.309 -0.0603 -0.1398 -0.4431
10269TIP3    H152222   4.852   1.894  13.255 -0.6809 -0.3501 -1.2358
10269TIP3    H252223   4.702   1.914  13.249 -0.3561  2.8079 -0.5198
10270TIP3   OH252224   4.988   0.862   3.824 -0.2007  0.0628  0.1978
10270TIP3    H152225   4.992   0.845   3.918  1.8443 -2.5305 -0.2295
10270TIP3    H252226   4.987   0.957   3.817  0.6199  0.3567  2.8497
10271TIP3   OH252227   1.720   2.689   5.297 -0.2122  0.4711  0.7984
10271TIP3    H152228   1.655   2.711   5.230  0.0951  0.5759  0.5340
10271TIP3    H252229   1.677   2.709   5.380 -0.2390  1.2788  0.5911
10272TIP3   OH252230   3.241   4.800  17.217 -0.6708 -0.2338 -0.1122
10272TIP3    H152231   3.188   4.723  17.199  0.3892 -1.7165  2.4822
10272TIP3    H252232   3.234   4.812  17.312  0.6880  1.7352 -0.1992
10273TIP3   OH252233   6.484   3.799   3.387  0.3650  0.5996  0.4379
10273TIP3    H152234   6.570   3.780   3.425 -0.4955 -1.2225  1.6173
10273TIP3    H252235   6.425   3.738   3.431 -1.7200  2.4562  0.3776
10274TIP3   OH252236   5.463   1.270  13.557  0.5085 -0.5636 -0.0623
10274TIP3    H152237   5.432   1.354  13.593  0.7142 -0.8288  0.7587
10274TIP3    H252238   5.419   1.204  13.611  2.0234 -0.9601  0.7472
10275TIP3   OH252239   2.445   6.237  16.347  0.0225 -0.1429 -0.5897
10275TIP3    H152240   2.515   6.255  16.283  1.3601 -0.7115  0.6419
10275TIP3    H252241   2.437   6.319  16.397 -1.7376  0.6504 -2.0716
10276TIP3   OH252242   5.627   2.475  12.728  0.0467 -0.0492 -0.0858
10276TIP3    H152243   5.582   2.391  12.724 -0.2775  0.1694 -1.4362
10276TIP3    H252244   5.558   2.540  12.740  0.2718  0.0610  0.6840
10277TIP3   OH252245   6.358   2.709  14.551 -0.4217 -0.2866  0.0409
10277TIP3    H152246   6.279   2.758  14.527 -0.3522 -0.1440  0.1034
10277TIP3    H252247   6.415   2.717  14.475 -0.1580  0.2563  0.2912
10278TIP3   OH252248   0.441   0.569  13.809  0.0475  0.7280  0.1692
10278TIP3    H152249   0.500   0.543  13.879  0.9104 -0.3620 -0.9177
10278TIP3    H252250   0.499   0.597  13.738 -0.8163  2.5062  0.1182
10279TIP3   OH252251   2.056   5.712  17.378  0.3214  0.6535  0.1221
10279TIP3    H152252   2.023   5.797  17.348 -0.0358  0.4110 -0.1789
10279TIP3    H252253   1.980   5.670  17.419 -0.2322 -0.6182 -2.0706
10280TIP3   OH252254   1.160   4.008   3.312 -0.1820  0.0120  0.0291
10280TIP3    H152255   1.229   3.944   3.290 -0.2378 -0.4809  1.2422
10280TIP3    H252256   1.081   3.972   3.273  0.4615  1.4209 -2.8874
10281TIP3   OH252257   6.156   2.936  11.308 -0.2215 -0.0954  0.2693
10281TIP3    H152258   6.115   2.984  11.236  0.3145 -1.1241 -0.7533
10281TIP3    H252259   6.099   2.860  11.322 -0.4453  0.2142  1.0993
10282TIP3   OH252260   3.194   1.380  17.239  0.3257 -0.3257 -0.0256
10282TIP3    H152261   3.211   1.395  17.332  2.0612 -1.6014 -0.0805
10282TIP3    H252262   3.132   1.307  17.238 -0.1201  0.0455  0.1258
10283TIP3   OH252263   0.490   2.499  16.319  0.2525  0.1762 -0.0828
10283TIP3    H152264   0.513   2.582  16.278 -0.2475 -0.4154 -1.6208
10283TIP3    H252265   0.555   2.488  16.389  1.5049  0.9372 -1.0859
10284TIP3   OH252266   1.766   3.305   5.169 -0.0082  0.0554  0.3540
10284TIP3    H152267   1.841   3.354   5.136  0.5768 -0.9044  0.2106
10284TIP3    H252268   1.701   3.371   5.191  1.0177  0.9286  0.8258
10285TIP3   OH252269   3.214   6.621   3.975 -0.5462  0.0667  0.1400
10285TIP3    H152270   3.295   6.644   4.018 -0.6276 -1.3084  1.0989
10285TIP3    H252271   3.182   6.703   3.937  2.0173  0.3974 -1.5887
10286TIP3   OH252272   0.953   5.650  12.934  0.0747  0.0416  0.0183
10286TIP3    H152273   0.992   5.587  12.995  2.1646  0.6474 -0.6278
10286TIP3    H252274   0.872   5.609  12.906 -0.4391 -0.7356  2.3698
10287TIP3   OH252275   6.707   1.074   3.390  0.6889 -0.1669 -0.3193
10287TIP3    H152276   6.650   1.137   3.347  1.0393 -0.5339 -1.3522
10287TIP3    H252277   6.679   0.989   3.355  1.4990 -0.3971 -0.4165
10288TIP3   OH252278   1.637   5.596   6.152  0.1370 -0.6287  0.5256
10288TIP3    H152279   1.673   5.537   6.217  1.9244 -0.6120 -0.3888
10288TIP3    H252280   1.550   5.560   6.133  0.0796 -1.3293  1.9804
10289TIP3   OH252281   6.243   4.285   3.219  0.0142 -0.4687 -0.6314
10289TIP3    H152282   6.256   4.204   3.268 -0.1237 -1.0569 -1.5635
10289TIP3    H252283   6.317   4.290   3.159  0.3956  0.4524 -0.1088
10290TIP3   OH252284   1.904   4.870   4.978  0.8246 -0.0938  0.0046
10290TIP3    H152285   1.981   4.816   4.994 -0.0230 -0.9072  1.7018
10290TIP3    H252286   1.898   4.877   4.883  1.8476 -1.6988 -0.2108
10291TIP3   OH252287   0.343   1.292   3.929  0.6392  0.7200  0.2596
10291TIP3    H152288   0.334   1.310   4.023 -1.0842 -1.6768  0.6629
10291TIP3    H252289   0.253   1.286   3.897  1.1289 -0.8300 -1.0082
10292TIP3   OH252290   5.061   0.673  11.592 -0.2155 -0.6326 -0.3333
10292TIP3    H152291   4.975   0.705  11.622 -0.0534 -0.8581  0.3964
10292TIP3    H252292   5.124   0.718  11.649  0.0891 -1.2119 -0.2047
10293TIP3   OH252293   2.129   6.629  15.655 -0.0522 -0.2925 -0.4780
10293TIP3    H152294   2.099   6.557  15.600 -0.6109 -0.5361  0.1358
10293TIP3    H252295   2.214   6.654  15.618 -0.2221 -0.7320 -1.1805
10294TIP3   OH252296   3.472   3.746   6.391  0.5111 -0.0373 -0.1468
10294TIP3    H152297   3.504   3.700   6.313  0.7504 -0.7624  0.3736
10294TIP3    H252298   3.543   3.805   6.414  0.8569 -0.5517  0.1146
10295TIP3   OH252299   6.560   3.364  11.388 -0.1682  0.1724  1.0461
10295TIP3    H152300   6.646   3.324  11.400  0.1670  0.5430 -0.0492
10295TIP3    H252301   6.539   3.349  11.296 -1.8008 -0.9323  1.5676
10296TIP3   OH252302   0.834   4.032   4.314 -0.4588  0.6169  0.0646
10296TIP3    H152303   0.851   3.941   4.341  0.4383  1.2241  1.6882
10296TIP3    H252304   0.842   4.030   4.218  0.8656 -0.7803  0.1507
10297TIP3   OH252305   2.427   5.301  13.305  0.1882  0.5817 -0.6497
10297TIP3    H152306   2.419   5.396  13.294 -1.3496  0.7281  1.1080
10297TIP3    H252307   2.356   5.279  13.365  1.3917 -1.4888  0.0876
10298TIP3   OH252308   6.317   4.406  16.298  0.2531 -0.5068 -0.3578
10298TIP3    H152309   6.263   4.482  16.319 -0.5178 -0.6866 -1.5670
10298TIP3    H252310   6.403   4.442  16.276  0.0292 -0.0344 -0.4563
10299TIP3   OH252311   1.798   0.900   4.009 -0.3395 -0.7845  0.1873
10299TIP3    H152312   1.849   0.977   3.984  0.5500 -0.8055  1.7560
10299TIP3    H252313   1.827   0.880   4.098 -2.3746 -1.4162  0.7867
10300TIP3   OH252314   4.064   4.107   1.227  0.2909  0.1230 -0.2061
10300TIP3    H152315   4.136   4.044   1.228  0.0317 -0.2665 -2.2531
10300TIP3    H252316   4.047   4.126   1.320  1.8524 -1.0976  0.3645
10301TIP3   OH252317   5.522   0.867   6.573  0.0830  0.3124 -0.0250
10301TIP3    H152318   5.601   0.919   6.564 -0.2916  1.2096  1.4288
10301TIP3    H252319   5.552   0.778   6.587  0.9397  0.8962  2.2022
10302TIP3   OH252320   2.384   5.778  15.144  0.0386 -0.6529  0.2833
10302TIP3    H152321   2.473   5.769  15.177 -0.1651 -0.6300  0.8598
10302TIP3    H252322   2.376   5.870  15.120  0.1958 -0.6743  0.1462
10303TIP3   OH252323   4.672   2.413  15.611  0.1244  0.2559 -0.1959
10303TIP3    H152324   4.710   2.346  15.668 -0.5400 -0.4947 -0.6147
10303TIP3    H252325   4.683   2.495  15.660  0.6958 -0.1897  0.4470
10304TIP3   OH252326   1.401   1.603  17.298  0.4328  0.4357 -0.6602
10304TIP3    H152327   1.325   1.594  17.355  0.7480 -0.6353 -0.3768
10304TIP3    H252328   1.373   1.663  17.229 -0.6191  0.1670 -0.4822
10305TIP3   OH252329   2.193   2.018   7.005 -0.0035  0.4489  0.4347
10305TIP3    H152330   2.121   1.991   6.948 -0.2320  0.3349  0.7771
10305TIP3    H252331   2.178   1.971   7.087 -0.3699  1.5766  1.0253
10306TIP3   OH252332   1.964   6.532   1.600  0.4722 -0.3606  0.0853
10306TIP3    H152333   1.985   6.620   1.567  0.9278 -0.1690  0.8510
10306TIP3    H252334   2.049   6.490   1.612  0.4042 -0.0820  1.8841
10307TIP3   OH252335   3.557   5.977   3.087 -0.3798 -0.3552  0.0081
10307TIP3    H152336   3.626   6.010   3.144 -0.7084  0.8718 -0.2738
10307TIP3    H252337   3.476   5.993   3.136 -0.6741  0.7994 -0.8146
10308TIP3   OH252338   3.240   5.439   5.875  0.4477 -0.4740 -0.3126
10308TIP3    H152339   3.305   5.508   5.860  0.0540  0.7250  2.7228
10308TIP3    H252340   3.244   5.423   5.970 -1.6116 -2.4988 -0.4893
10309TIP3   OH252341   0.519   4.641   4.274  0.3192  0.4557 -0.0071
10309TIP3    H152342   0.501   4.649   4.367 -0.2432  0.3660 -0.1037
10309TIP3    H252343   0.597   4.695   4.260  1.6932 -1.1985  0.8941
10310TIP3   OH252344   5.614   2.516  13.902  0.0589  0.2504  0.0373
10310TIP3    H152345   5.575   2.530  13.989 -1.9314 -2.1613 -0.3339
10310TIP3    H252346   5.540   2.521  13.842  0.7377 -1.6742 -1.0447
10311TIP3   OH252347   2.777   5.892   0.117  0.1655  0.5259 -0.7540
10311TIP3    H152348   2.702   5.941   0.150 -0.1054 -0.2398 -0.2168
10311TIP3    H252349   2.851   5.952   0.129 -0.2787  1.1135 -0.8767
10312TIP3   OH252350   5.431   2.372   1.310 -0.2516 -0.9083  0.0876
10312TIP3    H152351   5.513   2.368   1.261 -0.3417 -1.2929 -0.0411
10312TIP3    H252352   5.446   2.438   1.377 -1.3194  2.3982 -2.6348
10313TIP3   OH252353   0.717   5.488  12.888 -0.1929 -0.5296 -0.2106
10313TIP3    H152354   0.732   5.457  12.799 -1.4483  1.1848 -1.0554
10313TIP3    H252355   0.632   5.530  12.885  1.4703  3.3198  0.7329
10314TIP3   OH252356   0.061   3.803   3.505 -0.9037  0.2483 -0.0109
10314TIP3    H152357   0.127   3.871   3.515 -2.2356  1.5496  0.3345
10314TIP3    H252358   0.004   3.814   3.581 -1.6677 -0.6512 -0.4377
10315TIP3   OH252359   2.842   4.773   2.938  0.0051  0.2172  0.2221
10315TIP3    H152360   2.793   4.829   2.878  1.9825  0.5426 -1.2143
10315TIP3    H252361   2.865   4.696   2.886  3.3596  1.3281 -0.2037
10316TIP3   OH252362   1.504   1.255   2.992 -0.7278  0.3352  0.0854
10316TIP3    H152363   1.579   1.195   2.994  0.6032  1.7374 -2.7179
10316TIP3    H252364   1.428   1.197   2.981  0.2140 -0.9919  0.2921
10317TIP3   OH252365   2.919   1.642  11.891  0.0037 -0.0347 -0.0720
10317TIP3    H152366   2.856   1.675  11.955  3.0947  0.9531  2.7842
10317TIP3    H252367   2.908   1.547  11.893 -2.0637  0.1679 -0.4996
10318TIP3   OH252368   4.721   5.219  14.444  0.3131 -0.2391 -0.0032
10318TIP3    H152369   4.738   5.308  14.413  0.7553 -0.9491 -1.9175
10318TIP3    H252370   4.626   5.212  14.446  0.2687 -0.2423 -1.4890
10319TIP3   OH252371   0.215   5.338   2.945  0.3236 -0.0182  0.1163
10319TIP3    H152372   0.297   5.364   2.903  1.1349  0.2458  1.8254
10319TIP3    H252373   0.218   5.242   2.946  0.8759  0.0078  0.7076
10320TIP3   OH252374   0.218   1.889   0.445 -0.1446  0.1874 -0.5489
10320TIP3    H152375   0.302   1.850   0.424  0.8437  1.9727 -0.0779
10320TIP3    H252376   0.201   1.950   0.373 -0.8244  0.1509 -0.4267
10321TIP3   OH252377   6.554   1.209   3.680  0.5651  0.5268 -0.1104
10321TIP3    H152378   6.540   1.129   3.629 -1.5357  0.5870  0.3103
10321TIP3    H252379   6.499   1.274   3.638  1.4151  1.4854  0.2207
10322TIP3   OH252380   1.131   2.677  14.208  0.5291  0.5697  0.4282
10322TIP3    H152381   1.116   2.736  14.134  0.1660  0.0715  0.0997
10322TIP3    H252382   1.044   2.640  14.227  1.0548 -1.2621 -0.5565
10323TIP3   OH252383   5.754   6.561   5.820  0.0800 -0.7239 -0.0578
10323TIP3    H152384   5.784   6.628   5.882  0.6552 -1.6891  0.7376
10323TIP3    H252385   5.658   6.566   5.824 -0.0053  2.0575 -2.2567
10324TIP3   OH252386   3.198   3.784  15.015  0.4440 -0.1770  0.0330
10324TIP3    H152387   3.229   3.814  14.930  1.2085 -1.1384 -0.0434
10324TIP3    H252388   3.235   3.697  15.025  3.5964  1.2392  2.9696
10325TIP3   OH252389   4.827   1.920  11.106  0.1640 -0.0374 -0.1410
10325TIP3    H152390   4.834   1.988  11.038 -0.2385  1.1316  0.9387
10325TIP3    H252391   4.826   1.838  11.057  0.5276  0.7287 -1.5093
10326TIP3   OH252392   1.995   1.356   0.185 -0.2821 -0.3449  0.0833
10326TIP3    H152393   2.050   1.424   0.224  0.3236 -0.8104  0.0669
10326TIP3    H252394   1.921   1.347   0.245  1.1222 -1.7415  1.7104
10327TIP3   OH252395   2.990   5.974  14.334 -0.1168 -0.1444 -0.8086
10327TIP3    H152396   2.898   5.984  14.308 -0.4026  0.0406  0.2233
10327TIP3    H252397   3.036   6.043  14.286 -1.1832  2.6036  1.7696
10328TIP3   OH252398   5.429   5.524  16.089 -0.5859  0.0943  0.2227
10328TIP3    H152399   5.474   5.523  16.174 -0.3835  1.3362  0.1395
10328TIP3    H252400   5.418   5.431  16.068  0.4661 -0.2421  1.0236
10329TIP3   OH252401   0.563   5.557   2.800  0.1080  0.6394 -0.6240
10329TIP3    H152402   0.502   5.579   2.869  1.1762 -1.2937  1.0302
10329TIP3    H252403   0.597   5.642   2.770 -2.3089  1.6566 -0.6673
10330TIP3   OH252404   1.489   4.364  11.543  0.4417 -0.2331  0.4552
10330TIP3    H152405   1.481   4.269  11.544 -1.1273 -0.2006 -1.4046
10330TIP3    H252406   1.553   4.383  11.474  1.2502  0.0488  1.2756
10331TIP3   OH252407   5.929   6.483  12.071 -0.4140  0.5736 -0.1549
10331TIP3    H152408   5.842   6.471  12.109 -0.0609  0.4336  0.6307
10331TIP3    H252409   5.928   6.574  12.041 -1.1418  0.3051 -1.0027
10332TIP3   OH252410   4.774   5.120   0.188 -0.1528 -0.0012  0.3084
10332TIP3    H152411   4.715   5.195   0.181  0.3083  0.3358 -0.0329
10332TIP3    H252412   4.848   5.143   0.132  1.8177  1.0077  3.0758
10333TIP3   OH252413   0.471   0.726  14.976 -0.3473 -0.2031  0.1285
10333TIP3    H152414   0.550   0.679  14.949 -1.4068 -0.4548 -2.9922
10333TIP3    H252415   0.468   0.803  14.919 -2.0582  0.0732  0.5408
10334TIP3   OH252416   2.388   2.007   5.665  0.2728 -0.2341  0.5539
10334TIP3    H152417   2.328   1.957   5.721  1.6504  1.6037  3.9197
10334TIP3    H252418   2.372   1.972   5.577 -1.9103 -3.4711  2.0253
10335TIP3   OH252419   3.042   2.750   5.884  0.7072  0.8894 -0.2561
10335TIP3    H152420   3.098   2.694   5.831 -1.0737 -0.9938 -0.2675
10335TIP3    H252421   3.083   2.750   5.971  0.9388 -0.1756 -0.3507
10336TIP3   OH252422   2.946   2.350  12.314 -0.3787 -0.0652 -0.2796
10336TIP3    H152423   2.865   2.319  12.274  0.5689 -1.6804 -1.0116
10336TIP3    H252424   3.006   2.276  12.308  1.6500  1.5577 -1.1350
10337TIP3   OH252425   3.178   2.442  16.816  0.3144  0.1756 -0.1307
10337TIP3    H152426   3.104   2.387  16.790 -0.9879  1.8237 -0.0926
10337TIP3    H252427   3.251   2.381  16.827 -0.7551 -1.3773 -1.2261
10338TIP3   OH252428   2.656   1.605  16.590  0.2451 -0.1611  0.2401
10338TIP3    H152429   2.675   1.697  16.575 -0.0143  0.1005  1.3879
10338TIP3    H252430   2.616   1.575  16.509 -3.1847  1.6989  1.0736
10339TIP3   OH252431   4.637   3.269   3.829 -0.0378 -0.3229 -0.0131
10339TIP3    H152432   4.622   3.339   3.893  1.6147  0.7252 -0.7182
10339TIP3    H252433   4.689   3.204   3.876  0.4696  0.0542 -0.0576
10340TIP3   OH252434   1.049   1.925   0.451 -0.2932  0.2589 -0.1488
10340TIP3    H152435   1.066   1.913   0.358 -1.7228  1.0029 -0.5407
10340TIP3    H252436   1.116   1.987   0.480  1.8571 -1.9874 -0.0185
10341TIP3   OH252437   3.431   0.534  17.259  0.1277 -0.0602  0.4311
10341TIP3    H152438   3.338   0.512  17.257  0.3406 -0.9302 -0.6724
10341TIP3    H252439   3.474   0.463  17.213  1.4651 -0.1797  1.7632
10342TIP3   OH252440   1.652   2.924   3.940 -0.7414 -0.4019  0.4481
10342TIP3    H152441   1.658   2.829   3.951  1.0868 -0.2677  0.9639
10342TIP3    H252442   1.593   2.953   4.009 -3.5858 -1.3999 -1.4078
10343TIP3   OH252443   1.573   5.767   2.495 -0.0332  0.2457  0.3190
10343TIP3    H152444   1.651   5.714   2.509  1.0324  1.4580 -0.7336
10343TIP3    H252445   1.556   5.762   2.401 -1.2163  0.0478  0.5183
10344TIP3   OH252446   1.027   1.569  15.246 -0.9022  0.3358  0.4991
10344TIP3    H152447   1.013   1.475  15.259 -1.4086  0.1057 -1.4802
10344TIP3    H252448   1.122   1.578  15.232 -1.1342 -0.2653 -1.8017
10345TIP3   OH252449   0.229   5.170  13.914 -0.1182 -0.0415  0.1581
10345TIP3    H152450   0.156   5.109  13.915  0.3197 -0.5774  0.3723
10345TIP3    H252451   0.191   5.254  13.940 -0.8558 -0.0612 -0.7866
10346TIP3   OH252452   2.338   5.921   0.695  0.0688 -0.3134  0.0689
10346TIP3    H152453   2.347   5.859   0.768 -1.1956 -1.9121 -1.0492
10346TIP3    H252454   2.256   5.966   0.712 -0.0022 -0.3690 -0.1175
10347TIP3   OH252455   6.403   4.275   1.480 -0.3962  0.8378  0.1731
10347TIP3    H152456   6.371   4.249   1.566  1.1071  0.1892  0.5660
10347TIP3    H252457   6.437   4.363   1.492  0.0684  0.6404  0.3153
10348TIP3   OH252458   3.465   4.077   6.655 -0.2791  0.5077 -0.1536
10348TIP3    H152459   3.560   4.081   6.662 -0.4039  1.6005  1.7426
10348TIP3    H252460   3.439   4.167   6.635 -0.9779  0.5049  0.6980
10349TIP3   OH252461   4.744   0.728  16.116  0.3841  0.2010  0.5341
10349TIP3    H152462   4.675   0.793  16.131  0.6325  0.6882 -0.3755
10349TIP3    H252463   4.698   0.653  16.076 -0.0360 -0.5323  2.2855
10350TIP3   OH252464   4.194   2.897  11.886 -0.1131  0.2624  0.0720
10350TIP3    H152465   4.116   2.913  11.940 -1.4670  0.6027 -1.8717
10350TIP3    H252466   4.190   2.803  11.867  1.3715 -0.2484  1.9425
10351TIP3   OH252467   1.739   5.360  15.462  0.2294 -0.2956 -0.2139
10351TIP3    H152468   1.804   5.316  15.407  1.3115  0.2674  0.5704
10351TIP3    H252469   1.731   5.303  15.538 -1.1675 -1.0076 -0.8638
10352TIP3   OH252470   2.524   5.388   4.317  0.6168  0.5995 -0.0937
10352TIP3    H152471   2.466   5.464   4.307  1.2123  0.9898 -0.6627
10352TIP3    H252472   2.612   5.426   4.320  1.0068 -0.1339 -1.4890
10353TIP3   OH252473   3.264   0.791  14.413 -0.0037 -1.3630 -0.5738
10353TIP3    H152474   3.351   0.789  14.372  0.6626 -0.3374  0.7427
10353TIP3    H252475   3.282   0.784  14.507 -1.2537  0.1207 -0.1911
10354TIP3   OH252476   2.555   2.153  11.801  0.2204 -0.4980 -0.3358
10354TIP3    H152477   2.629   2.193  11.756  1.3248 -2.0191  0.0630
10354TIP3    H252478   2.510   2.102  11.734  0.4135 -0.7895 -0.2409
10355TIP3   OH252479   0.380   0.589   0.788  0.0808 -0.0031 -0.1332
10355TIP3    H152480   0.386   0.645   0.710  0.7537  0.5648  0.3236
10355TIP3    H252481   0.470   0.578   0.817 -0.2258  0.5559  1.1012
10356TIP3   OH252482   1.524   5.860   1.292  0.0638 -0.0518 -0.0835
10356TIP3    H152483   1.536   5.955   1.303 -0.1283 -0.1496  1.1738
10356TIP3    H252484   1.454   5.852   1.227 -1.0174  0.7242  0.9215
10357TIP3   OH252485   5.734   3.119   2.962  0.0220 -0.0668 -0.2831
10357TIP3    H152486   5.647   3.143   2.928 -1.3718  0.1244  3.0226
10357TIP3    H252487   5.775   3.203   2.983 -0.1191 -0.2247  0.6501
10358TIP3   OH252488   1.887   5.727  16.364 -0.1866 -0.2529 -0.0131
10358TIP3    H152489   1.858   5.641  16.332 -2.4614  0.4246 -0.0050
10358TIP3    H252490   1.979   5.715  16.387  0.8423 -1.5691 -3.9950
10359TIP3   OH252491   0.044   1.796  11.616  0.0047 -0.7110 -0.2291
10359TIP3    H152492   0.111   1.785  11.683 -0.3142 -0.3415  0.1506
10359TIP3    H252493   0.051   1.716  11.563  0.1557 -1.0756  0.3293
10360TIP3   OH252494   4.065   0.126  13.474 -0.2441 -0.3737 -0.3660
10360TIP3    H152495   4.028   0.041  13.498 -0.5945 -0.6764 -1.8609
10360TIP3    H252496   4.083   0.169  13.557 -1.3602 -1.3544  0.4168
10361TIP3   OH252497   1.275   2.622  12.120 -0.0272 -0.1138  0.2908
10361TIP3    H152498   1.204   2.664  12.072  0.4050  1.1743  0.7452
10361TIP3    H252499   1.336   2.592  12.052 -0.8671 -1.0303 -0.0854
10362TIP3   OH252500   1.128   2.658  10.757 -0.0029  0.3690 -0.7726
10362TIP3    H152501   1.162   2.710  10.830 -1.2083  1.3086 -0.8399
10362TIP3    H252502   1.043   2.698  10.737 -0.7170 -1.2889 -1.2119
10363TIP3   OH252503   4.970   6.214  16.691  0.0027  0.0970  0.2249
10363TIP3    H152504   5.019   6.136  16.668 -1.9687 -0.8934 -0.8741
10363TIP3    H252505   5.003   6.282  16.633  1.1971 -0.0839  0.6651
10364TIP3   OH252506   6.663   0.349  14.377  0.3547 -0.2612 -0.4032
10364TIP3    H152507   6.744   0.306  14.404  1.0003  0.5441 -1.0217
10364TIP3    H252508   6.691   0.419  14.319 -0.5657  1.8192  1.5306
10365TIP3   OH252509   5.063   1.415  14.335 -0.2026 -0.5852  0.3623
10365TIP3    H152510   5.044   1.388  14.425  0.9103 -1.2201  0.4286
10365TIP3    H252511   5.112   1.341  14.297 -0.6676 -0.3388 -0.7705
10366TIP3   OH252512   5.045   0.660   6.371 -0.5142 -0.3750 -0.7911
10366TIP3    H152513   4.965   0.632   6.327 -0.1370  2.4426 -3.5958
10366TIP3    H252514   5.116   0.631   6.314  0.2134  0.7194 -0.4783
10367TIP3   OH252515   5.459   0.083   2.229 -0.2578 -0.5621  0.2057
10367TIP3    H152516   5.368   0.096   2.258 -1.3325 -0.8578 -2.7123
10367TIP3    H252517   5.501   0.167   2.247 -1.3128 -0.1557  0.9199
10368TIP3   OH252518   0.695   5.607   0.906  0.3447 -0.1925  0.8488
10368TIP3    H152519   0.611   5.561   0.898  0.7285 -1.0021  1.3664
10368TIP3    H252520   0.670   5.699   0.917 -0.4141 -0.1363 -0.9929
10369TIP3   OH252521   2.835   2.841   2.798 -0.1783  0.2050  0.6727
10369TIP3    H152522   2.766   2.904   2.819  0.5476  0.7071  1.6579
10369TIP3    H252523   2.788   2.759   2.785 -1.2003  1.0294 -1.2195
10370TIP3   OH252524   1.290   1.902   1.368 -0.5698  0.0308  0.6376
10370TIP3    H152525   1.335   1.948   1.438 -1.5375  1.3731  0.4255
10370TIP3    H252526   1.222   1.850   1.412 -0.8710  0.5038  0.7396
10371TIP3   OH252527   0.375   2.863  14.019 -0.1171 -0.0756  0.5678
10371TIP3    H152528   0.381   2.826  13.931 -1.0591  0.5494  0.2256
10371TIP3    H252529   0.395   2.790  14.077  1.9443 -0.1636 -0.1750
10372TIP3   OH252530   6.204   4.016   6.031  0.4206 -0.0855  0.1128
10372TIP3    H152531   6.214   4.111   6.033 -0.0828 -0.0070 -0.6638
10372TIP3    H252532   6.281   3.985   5.984  0.4010 -0.0263  0.0406
10373TIP3   OH252533   4.815   1.658  11.796  0.0697  0.1691  0.0116
10373TIP3    H152534   4.804   1.656  11.701  0.3037  0.9365 -0.0410
10373TIP3    H252535   4.767   1.582  11.828  0.2231 -0.2553 -0.7442
10374TIP3   OH252536   4.997   6.315  14.926  0.9082  0.2040 -0.1381
10374TIP3    H152537   5.051   6.381  14.969  0.1740  0.4488  0.4271
10374TIP3    H252538   4.941   6.281  14.995 -1.3484  1.6655 -1.1172
10375TIP3   OH252539   5.299   4.784   1.525  0.8272 -0.1139 -0.3544
10375TIP3    H152540   5.219   4.790   1.578  0.4214 -0.9825 -0.8434
10375TIP3    H252541   5.355   4.854   1.559 -0.5983  1.3198 -0.7863
10376TIP3   OH252542   1.294   1.127  14.868 -0.8101 -0.4351 -0.1193
10376TIP3    H152543   1.317   1.220  14.863  1.2096 -0.8721  0.1574
10376TIP3    H252544   1.232   1.114  14.797 -1.1838  1.1447 -0.1113
10377TIP3   OH252545   1.233   1.606   3.172 -0.1004  0.7110  0.1471
10377TIP3    H152546   1.306   1.563   3.127  0.0010  0.7373  0.2843
10377TIP3    H252547   1.162   1.607   3.108  0.1239  0.9738 -0.1018
10378TIP3   OH252548   2.930   4.810  17.170 -0.1340 -0.3548 -0.0315
10378TIP3    H152549   2.842   4.842  17.154 -0.4164 -0.0253  1.9854
10378TIP3    H252550   2.951   4.759  17.091 -2.9292 -2.2415  0.3028
10379TIP3   OH252551   1.182   1.041  11.016 -0.0010 -0.1136  0.1535
10379TIP3    H152552   1.120   1.112  11.032  0.2350 -0.0242  0.6960
10379TIP3    H252553   1.264   1.072  11.054  0.3820 -0.2251 -0.5736
10380TIP3   OH252554   0.751   4.285   6.289 -0.1474  0.1906  0.1572
10380TIP3    H152555   0.760   4.347   6.217 -1.5645 -0.1221 -0.3159
10380TIP3    H252556   0.839   4.277   6.325  0.0598  2.5562  0.3094
10381TIP3   OH252557   3.254   3.071  12.710 -0.5070  0.1691  0.0427
10381TIP3    H152558   3.238   3.074  12.615 -0.8785  0.0299  0.0987
10381TIP3    H252559   3.169   3.092  12.749  0.3941  4.0317  0.3304
10382TIP3   OH252560   4.382   4.936  12.078 -0.3942  0.2620 -0.1750
10382TIP3    H152561   4.462   4.886  12.063  0.6556  1.2954  1.5913
10382TIP3    H252562   4.330   4.925  11.998  2.5848  1.6112 -2.4688
10383TIP3   OH252563   3.592   0.983  15.387 -0.0104  0.1854  0.1357
10383TIP3    H152564   3.617   0.902  15.432  0.8068 -0.0674 -0.7383
10383TIP3    H252565   3.506   1.005  15.423 -0.0160 -0.7902  0.7534
10384TIP3   OH252566   4.816   5.438   5.257 -0.4651  0.0545 -0.2255
10384TIP3    H152567   4.817   5.418   5.351 -1.5580  0.5087 -0.1078
10384TIP3    H252568   4.847   5.357   5.215 -1.7707 -0.8235  0.4310
10385TIP3   OH252569   1.287   0.548   1.121  0.4021 -0.2524  0.5020
10385TIP3    H152570   1.216   0.607   1.096 -0.4053 -0.3506  2.4220
10385TIP3    H252571   1.280   0.474   1.060 -0.6224  0.1203  0.1537
10386TIP3   OH252572   3.635   2.362  17.218 -0.7045  0.4187 -0.6675
10386TIP3    H152573   3.688   2.420  17.163 -0.9965 -0.1490 -1.5601
10386TIP3    H252574   3.685   2.280  17.222  1.2170  1.5281  3.0022
10387TIP3   OH252575   0.654   5.522   3.125  0.2789 -0.0818  0.1175
10387TIP3    H152576   0.638   5.428   3.127 -1.9814  0.2208 -1.1987
10387TIP3    H252577   0.582   5.559   3.074  2.4318  2.1278 -1.5631
10388TIP3   OH252578   5.363   4.230   2.834 -0.1530  0.5862 -0.2741
10388TIP3    H152579   5.415   4.184   2.768 -1.7964 -0.8594 -0.6571
10388TIP3    H252580   5.353   4.166   2.905  1.0300  1.8850  1.1405
10389TIP3   OH252581   1.064   3.465  11.056 -0.4359  0.1206 -0.4123
10389TIP3    H152582   0.996   3.406  11.087 -1.2462  1.8269  1.2709
10389TIP3    H252583   1.143   3.410  11.051 -1.5543 -1.5170 -0.8311
10390TIP3   OH252584   5.453   0.815  11.593 -0.0304  0.2436 -0.4742
10390TIP3    H152585   5.543   0.796  11.620 -0.2360 -1.2379 -0.7424
10390TIP3    H252586   5.448   0.781  11.503 -1.2095 -0.9068 -0.0035
10391TIP3   OH252587   5.122   0.599  17.394  0.4252 -0.1146  0.1984
10391TIP3    H152588   5.175   0.533  17.350  0.9383  0.9683 -0.8653
10391TIP3    H252589   5.175   0.679  17.390  0.2812  0.1414  2.3783
10392TIP3   OH252590   0.295   5.763  16.505 -0.3995  0.2468  0.1248
10392TIP3    H152591   0.384   5.747  16.474 -0.6150  0.0583 -0.4107
10392TIP3    H252592   0.258   5.825  16.441 -0.4777  0.7418  0.6424
10393TIP3   OH252593   3.322   1.163   0.939 -0.4656 -0.2550 -0.3867
10393TIP3    H152594   3.374   1.240   0.914  0.5033 -0.2780  1.3344
10393TIP3    H252595   3.318   1.168   1.035 -0.2479 -2.4160 -0.2186
10394TIP3   OH252596   3.494   6.353  15.535 -0.1138 -0.1616 -0.5320
10394TIP3    H152597   3.532   6.439  15.517  2.8529 -1.7323 -2.7077
10394TIP3    H252598   3.489   6.349  15.631  1.6565  1.6630 -0.2921
10395TIP3   OH252599   0.705   4.750  16.285  0.1274 -0.4598 -0.4087
10395TIP3    H152600   0.620   4.718  16.255 -0.8949  2.0385 -0.3766
10395TIP3    H252601   0.726   4.693  16.360 -1.5872 -1.0287 -0.3112
10396TIP3   OH252602   4.093   1.693  12.961 -0.1283  0.1000  0.1599
10396TIP3    H152603   4.176   1.679  12.915  0.2592 -0.2458  0.9476
10396TIP3    H252604   4.032   1.720  12.892  1.2659  3.1121 -0.0496
10397TIP3   OH252605   3.712   4.810   1.781  0.3317 -0.2891 -0.0735
10397TIP3    H152606   3.634   4.756   1.795 -0.6931  1.4297  1.1343
10397TIP3    H252607   3.780   4.766   1.831  0.0721 -1.5901 -0.8090
10398TIP3   OH252608   1.658   5.474   3.762 -0.0010  0.3940 -0.0546
10398TIP3    H152609   1.611   5.532   3.702 -1.1535  1.2291  1.6043
10398TIP3    H252610   1.655   5.389   3.718  1.1054  1.3744 -2.1994
10399TIP3   OH252611   2.886   6.599  17.450 -0.0247  0.6602  0.2992
10399TIP3    H152612   2.824   6.666  17.422 -0.3644  1.2729  2.3182
10399TIP3    H252613   2.972   6.639  17.439 -0.1834  1.1128  0.6514
10400TIP3   OH252614   2.674   1.555  13.672  0.6071 -0.0070  0.0234
10400TIP3    H152615   2.722   1.516  13.746 -0.0976  2.3133  1.8297
10400TIP3    H252616   2.629   1.630  13.710 -2.3243 -0.4823 -2.1517
10401TIP3   OH252617   6.289   4.973   0.012 -0.1795 -0.0202 -0.1357
10401TIP3    H152618   6.350   4.991  -0.060 -1.9558  1.7272 -1.3080
10401TIP3    H252619   6.345   4.961   0.089  1.6787  0.2242 -1.3898
10402TIP3   OH252620   5.594   6.149  16.727 -0.0237 -0.2517  0.1562
10402TIP3    H152621   5.589   6.231  16.679  0.0473 -0.5103 -0.3003
10402TIP3    H252622   5.674   6.155  16.778 -0.3675  0.2407  0.6503
10403TIP3   OH252623   3.837   2.505   2.470 -0.4274  0.2382 -0.7858
10403TIP3    H152624   3.853   2.598   2.454  2.3185  0.3708  1.8767
10403TIP3    H252625   3.909   2.461   2.425  0.2552 -0.2722  0.7405
10404TIP3   OH252626   4.246   0.682   4.803  0.2472 -0.2299  0.7223
10404TIP3    H152627   4.189   0.605   4.802  1.2288 -0.9870 -0.4744
10404TIP3    H252628   4.327   0.652   4.762 -0.8919  2.5975 -4.4983
10405TIP3   OH252629   5.689   2.022  13.504  0.9388  0.3325 -0.4610
10405TIP3    H152630   5.667   1.990  13.416 -2.4970  0.1516  0.3005
10405TIP3    H252631   5.738   2.102  13.490  0.5013  0.2787 -2.5574
10406TIP3   OH252632   0.173   3.027  14.079 -0.1405  0.3221  0.0546
10406TIP3    H152633   0.202   3.033  13.988  3.0595  1.5197  0.9997
10406TIP3    H252634   0.238   2.970  14.121 -0.8371  0.7468  1.8162
10407TIP3   OH252635   5.215   1.888   5.289  0.1313 -0.4812  0.2311
10407TIP3    H152636   5.240   1.915   5.201 -2.1425 -0.2761 -0.4062
10407TIP3    H252637   5.255   1.954   5.346 -0.4730  0.8943 -0.8588
10408TIP3   OH252638   1.565   2.474  16.853  0.2524  0.3833 -0.2702
10408TIP3    H152639   1.603   2.560  16.835 -2.1777  1.4519 -0.7023
10408TIP3    H252640   1.534   2.480  16.944 -0.4315  0.1856 -0.4817
10409TIP3   OH252641   4.637   4.336  11.637 -0.0720  0.3281 -0.0895
10409TIP3    H152642   4.601   4.261  11.683  1.7355 -0.6163 -0.1220
10409TIP3    H252643   4.624   4.316  11.544 -0.5499  0.5692 -0.0765
10410TIP3   OH252644   4.325   0.528  10.869 -0.4862 -0.1434  0.6097
10410TIP3    H152645   4.324   0.621  10.847 -1.2669 -0.2870 -0.0036
10410TIP3    H252646   4.396   0.519  10.933 -0.4927  0.8912  0.7780
10411TIP3   OH252647   5.912   4.762   4.601  0.2292 -0.4190 -0.3439
10411TIP3    H152648   5.999   4.798   4.585 -0.0582  0.5818  0.2125
10411TIP3    H252649   5.927   4.673   4.631  1.0860 -0.1103  0.1663
10412TIP3   OH252650   3.246   5.620  11.803  0.0649  0.1561 -0.4025
10412TIP3    H152651   3.184   5.684  11.837  0.2141  2.2350 -3.5710
10412TIP3    H252652   3.322   5.628  11.861 -0.8869  0.9835  0.7900
10413TIP3   OH252653   3.276   5.288  16.310 -0.2499  0.8116  0.5518
10413TIP3    H152654   3.337   5.229  16.355 -0.4125 -0.5520 -0.9663
10413TIP3    H252655   3.289   5.372  16.354  1.5308  0.1691  1.3631
10414TIP3   OH252656   2.434   5.684  11.927  0.4350  0.1780  0.2828
10414TIP3    H152657   2.507   5.630  11.896  0.1219 -0.2001  0.1934
10414TIP3    H252658   2.388   5.628  11.990  1.4135  1.1482  1.9072
10415TIP3   OH252659   0.019   5.800   3.677 -0.6004 -0.9106  0.0528
10415TIP3    H152660  -0.068   5.823   3.645 -1.1082 -0.5610  1.5907
10415TIP3    H252661   0.017   5.704   3.684 -1.2300 -0.8506  0.9843
10416TIP3   OH252662   2.525   3.654   6.046 -0.7390 -0.1485  0.2177
10416TIP3    H152663   2.467   3.653   6.123 -0.3608 -0.7070  0.4988
10416TIP3    H252664   2.612   3.633   6.081 -0.3614  0.6841 -0.2044
10417TIP3   OH252665   1.008   6.147   1.537 -0.3352 -0.0616  0.0309
10417TIP3    H152666   0.951   6.108   1.470  0.4073 -0.1706 -0.5464
10417TIP3    H252667   1.048   6.073   1.582  0.2989  0.0156 -0.3935
10418TIP3   OH252668   6.154   5.077   2.249 -0.3857  0.0305  0.1403
10418TIP3    H152669   6.167   5.076   2.344 -0.1563 -0.7838  0.1103
10418TIP3    H252670   6.075   5.025   2.235 -0.7979  0.7150 -0.0644
10419TIP3   OH252671   2.419   5.065   2.316  0.2049  0.2950 -0.0101
10419TIP3    H152672   2.430   4.984   2.367 -1.9434  0.2774  0.5462
10419TIP3    H252673   2.500   5.114   2.331  0.8740 -1.0399  0.9689
10420TIP3   OH252674   5.231   2.486  15.494 -0.0324 -0.4974 -0.6594
10420TIP3    H152675   5.238   2.566  15.546 -0.0853  0.4392 -2.0448
10420TIP3    H252676   5.141   2.487  15.462 -0.0867 -1.2252 -0.5405
10421TIP3   OH252677   1.520   5.005   1.507 -0.4682 -0.0874  0.1385
10421TIP3    H152678   1.526   5.099   1.493  0.7348 -0.1457  0.1539
10421TIP3    H252679   1.426   4.988   1.520 -0.9633  0.8014 -1.9136
10422TIP3   OH252680   5.038   0.991   1.921 -0.1110  0.5118  0.2888
10422TIP3    H152681   5.122   1.031   1.897  0.6243 -1.0172  0.1611
10422TIP3    H252682   4.987   1.062   1.958  1.7758  1.2102  1.6770
10423TIP3   OH252683   3.933   2.860   0.524 -0.3330 -0.0611  0.0966
10423TIP3    H152684   3.998   2.872   0.594 -0.3339 -0.4922  0.1773
10423TIP3    H252685   3.884   2.941   0.522 -1.0175 -0.4247  1.3090
10424TIP3   OH252686   1.977   5.406  13.789  0.8761  0.0776  0.4754
10424TIP3    H152687   1.975   5.320  13.832  0.8659 -0.5652 -0.7645
10424TIP3    H252688   2.034   5.459  13.845  1.4985 -0.9638  0.8620
10425TIP3   OH252689   5.506   2.589   0.534 -0.1295  0.0954 -0.1701
10425TIP3    H152690   5.511   2.496   0.514  3.0654  0.5458 -2.2490
10425TIP3    H252691   5.416   2.614   0.514 -0.0587 -1.8193 -3.4432
10426TIP3   OH252692   3.755   1.283   3.270  0.2220 -0.8480 -0.4453
10426TIP3    H152693   3.848   1.304   3.258  0.1340  0.3216  0.7214
10426TIP3    H252694   3.751   1.187   3.262  1.7630 -1.0611  0.8533
10427TIP3   OH252695   6.049   4.934   1.877 -0.5219  0.0538  0.2379
10427TIP3    H152696   6.133   4.967   1.845 -0.5067  0.6353  0.8565
10427TIP3    H252697   5.992   5.011   1.876 -0.9998 -0.2987 -0.0107
10428TIP3   OH252698   2.388   6.705   2.103  0.5997 -0.0023  0.2956
10428TIP3    H152699   2.360   6.648   2.174 -1.9746  0.8292  0.0576
10428TIP3    H252700   2.461   6.755   2.140 -1.9891  1.9994  3.3250
10429TIP3   OH252701   4.249   3.598   0.026  0.2133 -0.2189  0.2807
10429TIP3    H152702   4.328   3.598  -0.027  0.2065 -2.4374  0.2018
10429TIP3    H252703   4.276   3.565   0.111 -0.7229 -1.7761  0.0185
10430TIP3   OH252704   1.175   4.906   2.408  0.0775  0.1381 -0.5469
10430TIP3    H152705   1.102   4.921   2.347 -0.5408 -1.9566 -0.4039
10430TIP3    H252706   1.146   4.947   2.490 -1.4144 -1.3963 -0.2306
10431TIP3   OH252707   2.171   1.057  16.501 -0.0616 -0.6006 -0.6278
10431TIP3    H152708   2.204   0.977  16.460  0.7777 -0.7890  0.3827
10431TIP3    H252709   2.190   1.046  16.594  0.1605  0.8236 -0.4840
10432TIP3   OH252710   4.584   5.913  14.822 -0.2160  0.3766  0.2989
10432TIP3    H152711   4.525   5.875  14.757  0.3856  0.8599 -0.5472
10432TIP3    H252712   4.526   5.960  14.882 -0.7884 -0.1848  0.1906
10433TIP3   OH252713   2.588   2.812   2.653  0.0797 -0.2476 -0.3255
10433TIP3    H152714   2.596   2.893   2.702 -0.0385 -0.0431 -0.6435
10433TIP3    H252715   2.521   2.829   2.587  0.4838 -0.4037 -0.7897
10434TIP3   OH252716   1.779   2.741  13.448 -0.3920  0.4037  0.0283
10434TIP3    H152717   1.749   2.817  13.397  0.8669  2.0313  1.5756
10434TIP3    H252718   1.699   2.698  13.477 -1.1499  1.3297 -0.6297
10435TIP3   OH252719   6.277   2.610   1.270  0.1519  0.3610  0.1537
10435TIP3    H152720   6.200   2.585   1.219  0.1397 -0.4850  0.5790
10435TIP3    H252721   6.243   2.632   1.357  0.6105 -2.7400  1.2586
10436TIP3   OH252722   2.923   2.108   0.967  0.1288  0.2339  1.0446
10436TIP3    H152723   3.016   2.086   0.966  0.7045  2.3983 -0.5311
10436TIP3    H252724   2.889   2.070   0.887 -0.8387 -2.0712  2.4405
10437TIP3   OH252725   1.856   1.147   0.497  0.3501  0.0832 -0.4104
10437TIP3    H152726   1.858   1.216   0.431  1.1737 -1.3117 -1.8912
10437TIP3    H252727   1.773   1.101   0.482  0.2071  0.2023  0.0018
10438TIP3   OH252728   3.195   5.148   1.881  0.3592  0.2468  0.4104
10438TIP3    H152729   3.224   5.078   1.823 -0.4644  0.5491 -0.3707
10438TIP3    H252730   3.108   5.172   1.850  1.0023  2.2926  0.0245
10439TIP3   OH252731   1.169   2.778  15.614  0.1602 -0.0414  0.2374
10439TIP3    H152732   1.190   2.685  15.615 -0.9357 -0.3932 -2.2639
10439TIP3    H252733   1.249   2.821  15.585  0.4488 -0.2579  0.6984
10440TIP3   OH252734   4.433   2.257  13.623  0.2293 -0.0791 -0.3907
10440TIP3    H152735   4.431   2.342  13.579 -0.2622 -0.8006 -1.8066
10440TIP3    H252736   4.517   2.219  13.598  0.8296  0.3044  0.9261
10441TIP3   OH252737   5.776   4.201   4.549 -0.2460  0.2229  0.3513
10441TIP3    H152738   5.830   4.194   4.470  0.3088  0.4849  0.7066
10441TIP3    H252739   5.721   4.278   4.533 -0.4047  0.0559  0.0649
10442TIP3   OH252740   1.655   1.433   6.254 -0.1958 -0.1250  0.6514
10442TIP3    H152741   1.732   1.378   6.240  0.5637  0.7589  1.2629
10442TIP3    H252742   1.602   1.384   6.317 -1.0501 -1.5896 -1.0858
10443TIP3   OH252743   0.700   1.260   4.164 -0.2262 -0.3503  0.3606
10443TIP3    H152744   0.727   1.170   4.182  0.9340 -0.3633 -1.2252
10443TIP3    H252745   0.684   1.298   4.251  1.3931 -1.4427  1.2013
10444TIP3   OH252746   2.995   3.106  12.207  0.0078  0.0438 -0.4298
10444TIP3    H152747   2.939   3.108  12.130 -0.3207  1.2791 -0.1792
10444TIP3    H252748   2.942   3.062  12.274  0.7313 -2.1152 -1.1988
10445TIP3   OH252749   0.767   0.042  15.992 -0.4225 -0.6175  0.4660
10445TIP3    H152750   0.734  -0.048  15.994  0.9428 -1.1533  0.4560
10445TIP3    H252751   0.806   0.054  16.079 -0.1688 -0.2152  0.2953
10446TIP3   OH252752   1.323   2.663  13.383 -0.1521 -0.4685 -0.1824
10446TIP3    H152753   1.249   2.602  13.382 -1.5885  1.1741  0.6172
10446TIP3    H252754   1.346   2.675  13.291 -2.4424  0.7433 -0.6612
10447TIP3   OH252755   1.274   3.119  14.094 -0.1584 -0.1215 -0.4060
10447TIP3    H152756   1.334   3.048  14.069 -0.5347 -1.3849  1.9399
10447TIP3    H252757   1.244   3.156  14.011  0.9907 -1.9246 -1.6979
10448TIP3   OH252758   1.242   5.016   3.631  0.2541  0.0857  0.0358
10448TIP3    H152759   1.239   4.920   3.627  2.3223 -0.0069 -0.4923
10448TIP3    H252760   1.310   5.035   3.696 -0.0181  1.1967  0.0118
10449TIP3   OH252761   2.878   1.012  15.861  0.5378 -0.4210  0.3443
10449TIP3    H152762   2.876   0.953  15.937  1.0304 -0.0461  0.6579
10449TIP3    H252763   2.925   1.089  15.893 -0.4377  0.3039  0.0575
10450TIP3   OH252764   2.619   4.335   1.431  0.0532 -0.2387 -0.2404
10450TIP3    H152765   2.553   4.305   1.493  0.2042  0.7501  0.4349
10450TIP3    H252766   2.627   4.264   1.368 -1.2814 -0.5901 -0.0500
10451TIP3   OH252767   6.601   3.858   5.272 -0.1579  0.1313 -0.3268
10451TIP3    H152768   6.575   3.950   5.272  1.1637  0.5323  0.0429
10451TIP3    H252769   6.616   3.837   5.364 -1.4246 -0.7600 -0.3119
10452TIP3   OH252770   1.261   0.054   5.232 -0.3729 -0.2208  0.5745
10452TIP3    H152771   1.331   0.051   5.297 -0.1903  0.0628  0.3922
10452TIP3    H252772   1.305   0.040   5.148 -0.3915  0.9022  0.3601
10453TIP3   OH252773   1.526   2.154   3.879 -0.1720  0.1739 -0.3668
10453TIP3    H152774   1.496   2.111   3.800 -3.4439  3.3121 -1.1116
10453TIP3    H252775   1.452   2.148   3.940  1.9991 -1.5718  2.3303
10454TIP3   OH252776   1.084   2.861   2.513 -0.1426 -0.1505  0.5727
10454TIP3    H152777   1.014   2.797   2.499 -0.0453  0.3893 -4.0698
10454TIP3    H252778   1.041   2.946   2.503  0.6871  0.3013  0.7580
10455TIP3   OH252779   1.421   6.013  12.022 -0.0632  1.0992 -0.4793
10455TIP3    H152780   1.378   6.032  11.939 -1.7912  0.0144  0.1052
10455TIP3    H252781   1.356   6.035  12.089  0.4296 -0.1749  0.4784
10456TIP3   OH252782   0.604   3.411  13.702  0.4153  0.1980  0.1085
10456TIP3    H152783   0.643   3.496  13.683  1.5779 -0.3381  0.0010
10456TIP3    H252784   0.560   3.386  13.621 -2.9336  2.1734  1.1020
10457TIP3   OH252785   3.598   2.818  16.502 -0.3267  0.5911  0.3849
10457TIP3    H152786   3.514   2.816  16.549 -0.3973  1.2534  0.2887
10457TIP3    H252787   3.649   2.747  16.542 -0.2847  1.3067  1.6548
10458TIP3   OH252788   5.732   6.296   2.880  0.3664 -0.5956  0.2805
10458TIP3    H152789   5.694   6.275   2.966  1.8244  0.1374  1.1370
10458TIP3    H252790   5.770   6.213   2.851 -1.0934 -1.1266 -0.2001
10459TIP3   OH252791   1.465   1.587  14.895  0.4458  0.2490  0.0864
10459TIP3    H152792   1.432   1.677  14.886 -0.9765 -0.0609  1.6461
10459TIP3    H252793   1.559   1.594  14.878  0.6254  2.3181  1.5389
10460TIP3   OH252794   3.934   0.833   6.757  0.0682  0.1176  0.4381
10460TIP3    H152795   4.026   0.853   6.741  0.1303  1.0903  1.8073
10460TIP3    H252796   3.936   0.767   6.827 -0.2495 -1.5717 -1.0853
10461TIP3   OH252797   1.974   0.522   0.786  0.2481 -0.4703 -0.0380
10461TIP3    H152798   2.041   0.588   0.771  0.4334 -0.7168 -0.2904
10461TIP3    H252799   1.991   0.489   0.874 -0.3928  0.4533  0.4472
10462TIP3   OH252800   1.074   0.412   6.950  0.6265  0.1614  0.5210
10462TIP3    H152801   1.089   0.495   6.996  1.5662  0.2822  0.0087
10462TIP3    H252802   1.149   0.402   6.892 -0.4402 -0.0553 -0.8919
10463TIP3   OH252803   1.344   4.959  17.587 -0.1484 -0.0789 -0.0036
10463TIP3    H152804   1.331   5.030  17.524  3.0795  3.1274  2.5391
10463TIP3    H252805   1.402   4.897  17.542  0.5143  1.1313 -0.8440
10464TIP3   OH252806   1.252   4.164  17.014  0.1152  0.1368 -0.0069
10464TIP3    H152807   1.246   4.078  17.057  1.5136  0.4035  0.7718
10464TIP3    H252808   1.300   4.148  16.933 -1.9397 -0.2456 -1.2214
10465TIP3   OH252809   6.344   4.650  16.728 -0.0349 -0.3369  0.4853
10465TIP3    H152810   6.267   4.701  16.702 -0.5489 -0.9351  0.8396
10465TIP3    H252811   6.310   4.566  16.757  0.7919 -0.7998  0.1647
10466TIP3   OH252812   6.380   5.013   1.408 -0.3946 -0.2736 -0.2205
10466TIP3    H152813   6.362   4.921   1.388 -1.2418  0.4101 -3.1171
10466TIP3    H252814   6.329   5.062   1.343  1.0565  2.2186  0.3839
10467TIP3   OH252815   5.530   0.391  14.321  0.3566  0.3399  0.3426
10467TIP3    H152816   5.566   0.463  14.373 -0.1181  0.8210  0.0108
10467TIP3    H252817   5.435   0.400  14.330  0.2996 -0.9275  1.2192
10468TIP3   OH252818   4.668   2.635  12.892  0.4702  0.4604 -0.1537
10468TIP3    H152819   4.625   2.587  12.822 -0.4519  3.1630 -1.5974
10468TIP3    H252820   4.608   2.707  12.912  2.7319  2.4071  0.1595
10469TIP3   OH252821   6.575   5.813  14.274 -0.1336 -0.6936  0.0172
10469TIP3    H152822   6.593   5.868  14.197 -2.6658  1.4222  0.7869
10469TIP3    H252823   6.498   5.763  14.250  0.1113 -1.3487  0.5756
10470TIP3   OH252824   0.112   4.565   2.292 -0.1836 -0.2103 -0.6081
10470TIP3    H152825   0.123   4.633   2.226 -1.3120  0.6640  0.0467
10470TIP3    H252826   0.017   4.563   2.309  0.1691  0.5069  1.8657
10471TIP3   OH252827   3.629   0.825  17.527 -1.1983  0.6358 -0.4582
10471TIP3    H152828   3.602   0.816  17.619 -2.3537  1.1681 -0.7205
10471TIP3    H252829   3.620   0.919  17.509  0.0863  0.7024 -0.8127
10472TIP3   OH252830   0.528   4.500   4.838  0.5034  0.1825 -0.0113
10472TIP3    H152831   0.446   4.487   4.791  0.2200 -1.5202  0.8931
10472TIP3    H252832   0.532   4.595   4.852 -2.7730  0.1594  2.3900
10473TIP3   OH252833   3.388   6.613   5.652 -0.2131  0.1907  0.5812
10473TIP3    H152834   3.341   6.610   5.569 -0.6533  1.2599  0.7713
10473TIP3    H252835   3.475   6.646   5.629  0.0941 -0.7295  0.3824
10474TIP3   OH252836   3.925   6.628  13.621 -0.3747  0.1653 -0.6878
10474TIP3    H152837   3.868   6.559  13.587  0.4103 -0.6488 -0.3829
10474TIP3    H252838   3.891   6.646  13.709  1.4547 -2.2918  0.6247
10475TIP3   OH252839   4.361   5.739   1.933 -0.4961  0.0149  0.2741
10475TIP3    H152840   4.328   5.687   1.860 -0.5048  1.0617 -0.4898
10475TIP3    H252841   4.295   5.731   2.001 -0.5339 -0.8946  0.1319
10476TIP3   OH252842   5.001   4.237   4.664  0.1499 -0.2305  0.1663
10476TIP3    H152843   5.081   4.185   4.669 -0.5822 -1.5681 -0.9384
10476TIP3    H252844   4.945   4.201   4.733 -0.0601 -0.3761 -0.0759
10477TIP3   OH252845   6.240   4.899  17.272 -0.1966 -0.1283  0.7669
10477TIP3    H152846   6.166   4.842  17.295 -0.1550 -1.0280 -1.1089
10477TIP3    H252847   6.292   4.847  17.211  0.0122  1.7868 -0.7811
10478TIP3   OH252848   4.854   5.241   2.219  0.0127 -0.2253  0.0767
10478TIP3    H152849   4.816   5.251   2.307 -0.9070 -1.4841 -0.1432
10478TIP3    H252850   4.945   5.217   2.234 -0.4711 -1.7680  0.7465
10479TIP3   OH252851   6.057   1.292  13.209 -0.1910  0.4206 -0.0637
10479TIP3    H152852   6.129   1.279  13.271 -0.6905  0.0732  0.4602
10479TIP3    H252853   6.099   1.292  13.123  0.2466 -1.7270  0.0772
10480TIP3   OH252854   2.492   2.685   6.791  0.2488 -0.4692 -0.1306
10480TIP3    H152855   2.580   2.717   6.812  0.3237  0.4838 -1.7596
10480TIP3    H252856   2.435   2.729   6.854  0.8524 -0.6153  0.5357
10481TIP3   OH252857   4.747   0.473   0.599  0.0716  0.3099  0.0957
10481TIP3    H152858   4.821   0.511   0.552  0.1484  0.4534  0.3300
10481TIP3    H252859   4.766   0.491   0.691  0.1264 -0.3228  0.2137
10482TIP3   OH252860   0.757   1.994  11.014  0.3445  0.5107 -0.0617
10482TIP3    H152861   0.679   1.950  11.047 -0.3892  1.5692 -0.3310
10482TIP3    H252862   0.804   1.927  10.965 -1.7895  0.4672 -2.2605
10483TIP3   OH252863   2.698   5.749   1.317 -0.0900 -0.4455  0.4261
10483TIP3    H152864   2.724   5.789   1.400 -1.1299 -0.6267  0.8560
10483TIP3    H252865   2.650   5.670   1.342 -2.9429  0.9417 -0.1697
10484TIP3   OH252866   1.295   3.672   3.160 -0.2620 -0.0546  0.3219
10484TIP3    H152867   1.219   3.724   3.134  0.0371  0.0337 -0.4031
10484TIP3    H252868   1.357   3.736   3.195  0.9720  0.4326 -2.5396
10485TIP3   OH252869   1.560   0.955  13.081 -0.2497 -0.0798  0.3336
10485TIP3    H152870   1.548   1.045  13.051 -0.7583  0.3551  1.7777
10485TIP3    H252871   1.646   0.929  13.045  0.3705  1.3394  0.7401
10486TIP3   OH252872   4.466   0.399   5.836 -0.0574 -0.8527  0.9843
10486TIP3    H152873   4.497   0.372   5.749 -0.9798 -0.8465  0.6362
10486TIP3    H252874   4.410   0.327   5.864 -0.8144 -0.2663  0.9996
10487TIP3   OH252875   1.080   3.004   5.984  0.8244 -0.4211 -0.3204
10487TIP3    H152876   1.037   2.927   5.945 -0.3357  0.9670 -1.9229
10487TIP3    H252877   1.126   3.045   5.911 -0.9426  1.9649 -0.1845
10488TIP3   OH252878   2.692   1.654   5.188 -0.4115 -0.2020  0.0375
10488TIP3    H152879   2.641   1.643   5.108  0.3176 -1.6022 -0.2778
10488TIP3    H252880   2.726   1.566   5.207 -0.5627  0.1063  1.8909
10489TIP3   OH252881   0.082   6.029  17.145 -0.1555 -0.4819 -0.3374
10489TIP3    H152882   0.006   6.074  17.109 -0.9923  0.1954  2.0863
10489TIP3    H252883   0.057   5.937  17.147 -1.1335 -0.2162  0.8421
10490TIP3   OH252884   5.239   4.158  16.410  0.0993  0.2090 -0.2091
10490TIP3    H152885   5.331   4.173  16.432 -0.7008  1.1198  3.0798
10490TIP3    H252886   5.210   4.242  16.373  0.0117  0.8496  1.2359
10491TIP3   OH252887   5.361   5.369   2.541 -0.4989  0.2646  0.7469
10491TIP3    H152888   5.420   5.320   2.598 -0.9407  1.2665  2.1505
10491TIP3    H252889   5.388   5.461   2.553 -0.6501  0.5061 -0.6312
10492TIP3   OH252890   6.706   3.251   4.869  0.5663 -0.0587  0.3090
10492TIP3    H152891   6.751   3.207   4.941  1.1491  0.6664  0.4058
10492TIP3    H252892   6.777   3.294   4.820  0.2362 -0.9307 -0.9875
10493TIP3   OH252893   6.706   3.570  14.292  0.1415  0.0623 -0.6183
10493TIP3    H152894   6.740   3.556  14.204 -1.0992  1.0574 -1.2905
10493TIP3    H252895   6.617   3.603  14.279 -0.2534 -0.2345  1.0227
10494TIP3   OH252896   0.722   4.614   1.593 -0.3806  0.3105 -0.4122
10494TIP3    H152897   0.643   4.639   1.545 -0.0467  0.1155 -1.0755
10494TIP3    H252898   0.742   4.690   1.647 -0.1270  0.9785 -1.4151
10495TIP3   OH252899   1.022   0.638   2.041 -0.2758  0.0189  0.2410
10495TIP3    H152900   1.025   0.549   2.008  1.2473  0.2947 -0.4247
10495TIP3    H252901   1.038   0.693   1.965  0.9931  0.7655  1.0039
10496TIP3   OH252902   5.716   1.963  12.498  0.3691  0.5678  0.3204
10496TIP3    H152903   5.627   1.929  12.501 -0.4108  2.4801  0.3205
10496TIP3    H252904   5.740   1.976  12.589  1.5200 -1.8866  0.4618
10497TIP3   OH252905   0.392   5.830  17.406  0.0175 -0.1365  0.3425
10497TIP3    H152906   0.325   5.822  17.337 -0.2726  0.2762  0.5677
10497TIP3    H252907   0.427   5.919  17.395 -0.7683  0.3313  1.3689
10498TIP3   OH252908   1.323   4.976  12.807  0.4110  0.6709  0.6535
10498TIP3    H152909   1.305   5.070  12.813  1.3482  0.8650  0.6347
10498TIP3    H252910   1.250   4.941  12.756 -0.1432  1.3227  0.9822
10499TIP3   OH252911   5.809   6.461   4.392 -0.6466  0.4830 -0.0916
10499TIP3    H152912   5.890   6.510   4.406 -0.3630 -0.0623  0.1813
10499TIP3    H252913   5.796   6.413   4.473 -1.6077  1.0793  0.1221
10500TIP3   OH252914   2.488   6.456  11.735  0.1455 -0.0803 -0.5025
10500TIP3    H152915   2.474   6.531  11.793 -0.0184 -0.2034 -0.3844
10500TIP3    H252916   2.548   6.400  11.783 -1.5762 -1.1765  0.4458
10501TIP3   OH252917   3.833   1.616  17.289  0.3214 -0.2481 -0.0561
10501TIP3    H152918   3.918   1.619  17.245  0.5730 -1.3022  0.3288
10501TIP3    H252919   3.845   1.668  17.368  0.9242 -1.1830  0.4902
10502TIP3   OH252920   6.306   4.592   2.762  0.1187  0.5246  0.5699
10502TIP3    H152921   6.328   4.653   2.692  0.4763  0.3044  0.4846
10502TIP3    H252922   6.270   4.516   2.716 -0.6351  0.8002  0.6966
10503TIP3   OH252923   5.153   0.727  12.546 -0.6546  0.0746 -0.1948
10503TIP3    H152924   5.096   0.688  12.612 -2.1574  0.1413 -1.3943
10503TIP3    H252925   5.200   0.653  12.508 -1.8303 -0.3396 -0.9102
10504TIP3   OH252926   4.491   4.704   1.001  0.1658 -1.0718 -0.2300
10504TIP3    H152927   4.461   4.785   0.961 -1.3430  0.0370  2.8192
10504TIP3    H252928   4.576   4.726   1.038 -0.9173 -0.2926  1.9495
10505TIP3   OH252929   0.605   3.053  12.732  0.2077  0.0230 -0.3027
10505TIP3    H152930   0.599   3.009  12.648 -1.4800  0.8225 -0.6287
10505TIP3    H252931   0.697   3.080  12.738  0.4131 -0.2746 -1.7726
10506TIP3   OH252932   2.908   2.667  16.234 -0.3710 -0.0002  0.6099
10506TIP3    H152933   2.912   2.665  16.139  0.4224  1.9309  0.5676
10506TIP3    H252934   2.953   2.587  16.261 -0.6910 -0.6197 -0.6223
10507TIP3   OH252935   4.373   6.539  12.671 -0.0043  0.5937  0.7403
10507TIP3    H152936   4.371   6.458  12.722 -1.3039 -0.8756 -1.4718
10507TIP3    H252937   4.407   6.604  12.732 -0.2718 -1.2770  3.0700
10508TIP3   OH252938   1.100   2.765  14.774  0.2285  0.2768 -0.2016
10508TIP3    H152939   1.034   2.783  14.840  0.4312 -1.2966  0.4652
10508TIP3    H252940   1.183   2.764  14.822  0.3863 -0.8112 -0.4808
10509TIP3   OH252941   4.777   6.697   2.925  0.2251 -0.1871  0.5339
10509TIP3    H152942   4.713   6.686   2.996  1.5747  0.6548  1.9757
10509TIP3    H252943   4.834   6.621   2.933  0.9215  0.3723  0.9695
10510TIP3   OH252944   6.524   3.559   3.133 -0.3651  0.3170 -0.0517
10510TIP3    H152945   6.510   3.485   3.193 -2.4602  1.0754  0.4743
10510TIP3    H252946   6.597   3.607   3.172  1.1741 -1.5333 -0.5143
10511TIP3   OH252947   2.639   4.417   4.519 -0.2624 -0.3490  0.6672
10511TIP3    H152948   2.599   4.449   4.600 -1.6378 -1.2024  0.3486
10511TIP3    H252949   2.733   4.426   4.534 -0.5237  1.9118  1.3607
10512TIP3   OH252950   3.373   0.840   5.818  0.1387 -0.2451  0.4158
10512TIP3    H152951   3.320   0.869   5.743 -0.1542  3.3245  1.7915
10512TIP3    H252952   3.309   0.820   5.886  0.4344  1.4274  1.2277
10513TIP3   OH252953   0.059   3.970   5.862  0.0235 -0.4378 -0.1588
10513TIP3    H152954   0.118   3.989   5.934  0.0392 -0.8692 -0.0569
10513TIP3    H252955   0.045   3.875   5.866  1.1881 -0.7082 -1.6134
10514TIP3   OH252956   6.525   3.023  15.916  0.3599 -0.3843  0.0011
10514TIP3    H152957   6.458   3.088  15.893  1.1275  0.6298  0.5245
10514TIP3    H252958   6.505   2.948  15.861 -0.1212  0.5684 -1.1884
10515TIP3   OH252959   0.013   5.144  15.615  0.1121  0.0112 -0.1249
10515TIP3    H152960   0.010   5.126  15.521 -0.6396 -1.7477  0.1808
10515TIP3    H252961   0.107   5.149  15.635  0.2793  0.5220 -0.9722
10516TIP3   OH252962   2.468   3.626  13.526  0.7152 -0.0063  0.3549
10516TIP3    H152963   2.387   3.588  13.493  0.8360 -0.3740  0.4757
10516TIP3    H252964   2.503   3.560  13.586  1.7688 -0.4248 -0.6790
10517TIP3   OH252965   4.326   6.316  17.019  0.7175 -0.3415 -0.7767
10517TIP3    H152966   4.285   6.387  17.069  1.1424 -0.3700 -0.3895
10517TIP3    H252967   4.402   6.357  16.978  0.8534 -0.5314 -0.7134
10518TIP3   OH252968   0.705   1.136  14.824  0.4024  0.4963 -0.7000
10518TIP3    H152969   0.723   1.160  14.915 -0.1549 -1.4359 -0.0344
10518TIP3    H252970   0.654   1.209  14.789 -1.3012  0.3004  1.2293
10519TIP3   OH252971   4.514   2.315   0.946 -0.1302 -0.5218  0.1503
10519TIP3    H152972   4.524   2.223   0.919 -0.2874  0.0594 -2.1444
10519TIP3    H252973   4.496   2.361   0.864  0.5771  1.6593  1.1576
10520TIP3   OH252974   1.363   4.348  15.591  0.1391  0.5565  0.2668
10520TIP3    H152975   1.349   4.327  15.683 -0.0986  1.3004  0.4044
10520TIP3    H252976   1.291   4.407  15.568  1.1074  1.6998  0.0585
10521TIP3   OH252977   5.703   0.925  12.153  0.2814  0.3548 -0.2180
10521TIP3    H152978   5.794   0.904  12.175  0.2272  1.3089  1.0161
10521TIP3    H252979   5.663   0.948  12.237 -1.3354 -0.8678 -0.6090
10522TIP3   OH252980   2.521   0.164   2.766  0.1168 -0.2715 -0.0699
10522TIP3    H152981   2.565   0.088   2.727  0.4386 -0.4003  0.5253
10522TIP3    H252982   2.528   0.233   2.700 -0.8664 -0.9815 -0.9414
10523TIP3   OH252983   1.663   4.361   0.816  0.2398 -0.1125  0.3271
10523TIP3    H152984   1.569   4.348   0.803 -0.4304  2.7282  1.5185
10523TIP3    H252985   1.674   4.363   0.911  1.1873  1.2263  0.2193
10524TIP3   OH252986   3.903   6.471  11.215  0.2765 -0.0481  0.1051
10524TIP3    H152987   3.808   6.476  11.229  0.2017 -0.9539  0.0191
10524TIP3    H252988   3.927   6.385  11.250  0.5343 -1.2326 -2.7119
10525TIP3   OH252989   1.648   1.132   3.387  0.1624  0.7706 -0.1072
10525TIP3    H152990   1.569   1.086   3.415  1.3570 -0.6387  1.1452
10525TIP3    H252991   1.702   1.139   3.466  1.2700  1.7668 -0.9012
10526TIP3   OH252992   4.884   0.262   6.437 -0.8656  0.0142  0.4492
10526TIP3    H152993   4.939   0.278   6.514  0.6422 -0.9738 -0.3646
10526TIP3    H252994   4.795   0.259   6.471 -0.4336  1.5410  1.8489
10527TIP3   OH252995   2.192   4.047   4.817  0.2505 -0.0258 -0.0878
10527TIP3    H152996   2.242   4.110   4.765  1.8674 -1.1207  0.0573
10527TIP3    H252997   2.201   4.078   4.907 -2.6652  1.9484 -0.3421
10528TIP3   OH252998   3.143   2.104  10.461  0.2730 -0.4274 -0.2235
10528TIP3    H152999   3.216   2.043  10.470  0.1987 -0.6554 -1.1200
10528TIP3    H253000   3.119   2.125  10.552  0.6976 -1.2391  0.0923
10529TIP3   OH253001   3.045   4.647   6.068 -0.0657 -0.0733  0.1284
10529TIP3    H153002   3.097   4.657   6.148 -0.3620 -2.0099  0.6274
10529TIP3    H253003   2.976   4.585   6.093 -0.3808 -0.4215 -1.5234
10530TIP3   OH253004   2.250   3.577   0.432 -0.2227  0.6137  0.7951
10530TIP3    H153005   2.223   3.550   0.344  0.1937  3.2096 -0.2322
10530TIP3    H253006   2.344   3.558   0.434 -0.7629 -2.5694  2.0379
10531TIP3   OH253007   5.327   3.677   6.149  0.2516 -0.2289  0.3016
10531TIP3    H153008   5.294   3.692   6.060  1.2180 -0.5021 -0.1174
10531TIP3    H253009   5.250   3.650   6.199 -0.2175 -0.5458 -0.5696
10532TIP3   OH253010   6.052   3.218  11.833 -0.4939  0.2745  0.4127
10532TIP3    H153011   6.099   3.135  11.841 -1.1535 -0.4786 -2.3281
10532TIP3    H253012   6.018   3.236  11.920 -2.4414 -3.6781  0.6525
10533TIP3   OH253013   1.170   3.972   3.918  0.1962  0.1053 -0.3793
10533TIP3    H153014   1.181   3.959   3.824  0.6168 -0.3007 -0.2763
10533TIP3    H253015   1.259   3.972   3.953  0.0593  0.5854 -0.0221
10534TIP3   OH253016   2.101   5.347  16.367 -0.8882  0.4060  0.2366
10534TIP3    H153017   2.079   5.274  16.309 -0.3513  1.4273 -1.3080
10534TIP3    H253018   2.151   5.307  16.438 -0.3234 -0.6921 -0.7427
10535TIP3   OH253019   6.260   3.955   6.280 -0.2135 -0.7695 -0.9695
10535TIP3    H153020   6.233   3.863   6.288 -1.3847 -0.3263  0.4698
10535TIP3    H253021   6.246   3.976   6.188 -1.0052 -1.7117 -1.0824
10536TIP3   OH253022   4.110   4.796   2.779 -0.7529  0.6605 -0.8720
10536TIP3    H153023   4.158   4.778   2.698 -3.3774  0.5446 -2.4960
10536TIP3    H253024   4.084   4.710   2.812  1.6078  0.5643  1.0865
10537TIP3   OH253025   2.687   6.263  12.452 -0.1337 -0.0176  0.1370
10537TIP3    H153026   2.681   6.239  12.545 -1.0906 -0.0616  0.0706
10537TIP3    H253027   2.780   6.255  12.432  0.4222  1.9755  1.6021
10538TIP3   OH253028   3.966   0.766  16.997 -0.2580  0.2577  0.2240
10538TIP3    H153029   4.044   0.715  17.016  2.0359  2.5305 -2.2014
10538TIP3    H253030   3.962   0.831  17.068  0.6135  0.6719 -0.0912
10539TIP3   OH253031   1.308   1.268   4.465 -0.1722 -0.8081 -0.0761
10539TIP3    H153032   1.400   1.293   4.473  0.0109 -0.5284 -2.3933
10539TIP3    H253033   1.297   1.247   4.372 -2.5070 -0.6040  0.1059
10540TIP3   OH253034   0.388   5.489  16.857 -0.3185 -0.2883  0.3417
10540TIP3    H153035   0.332   5.433  16.804  0.7869 -0.4807 -0.6653
10540TIP3    H253036   0.345   5.575  16.854 -0.8739 -0.5693  0.0964
10541TIP3   OH253037   4.548   0.601   4.715  0.3536  0.0183 -0.1220
10541TIP3    H153038   4.535   0.657   4.638  1.2472  2.4663  1.3660
10541TIP3    H253039   4.643   0.599   4.726  0.3104 -1.5692  0.0772
10542TIP3   OH253040   5.072   2.878  12.594  0.0939  0.0146  0.2288
10542TIP3    H153041   5.060   2.785  12.577 -0.0331 -0.1407  1.1356
10542TIP3    H253042   5.031   2.922  12.519  0.1612 -0.6484 -0.2053
10543TIP3   OH253043   1.442   1.140  16.630 -0.1861 -0.1058  0.3021
10543TIP3    H153044   1.460   1.227  16.667  1.3346 -0.8269  1.3427
10543TIP3    H253045   1.354   1.119  16.662  0.4788 -0.0498  2.3119
10544TIP3   OH253046   6.635   0.436   1.656  0.4787  0.2860  0.2133
10544TIP3    H153047   6.598   0.456   1.742  0.6407  0.7798  0.1686
10544TIP3    H253048   6.692   0.360   1.672  2.0956  1.6021  0.9558
10545TIP3   OH253049   2.880   5.611  12.467 -0.1896  0.0551 -0.3995
10545TIP3    H153050   2.908   5.699  12.441 -0.1740 -0.3834 -1.9677
10545TIP3    H253051   2.954   5.577  12.517 -0.0859  0.8363 -0.0022
10546TIP3   OH253052   0.803   0.217   3.393 -0.1272 -0.0531  0.2665
10546TIP3    H153053   0.870   0.153   3.417 -1.3205 -1.8903 -1.0391
10546TIP3    H253054   0.723   0.184   3.434 -0.4790  1.5077  0.8845
10547TIP3   OH253055   0.376   0.474  12.041  0.4358  0.3444 -0.1560
10547TIP3    H153056   0.288   0.508  12.058  0.3978 -0.1267  0.6588
10547TIP3    H253057   0.433   0.550  12.049 -0.0719  1.1054 -2.7640
10548TIP3   OH253058   1.009   0.528  16.674  0.7075  0.4510  0.2568
10548TIP3    H153059   0.948   0.534  16.600 -1.0196  2.9479  1.7289
10548TIP3    H253060   1.094   0.511  16.634  0.0945  3.0411 -2.4597
10549TIP3   OH253061   6.644   6.536   3.925  0.3067  0.6050 -0.2502
10549TIP3    H153062   6.666   6.493   3.843 -0.5444 -0.3670  0.0132
10549TIP3    H253063   6.635   6.629   3.902  0.1567  0.3590 -1.2242
10550TIP3   OH253064   6.617   0.133   4.311 -0.3798  0.0787 -0.5342
10550TIP3    H153065   6.694   0.096   4.268 -1.4937 -1.1364 -1.5727
10550TIP3    H253066   6.570   0.179   4.241 -1.0975 -0.0223 -0.1290
10551TIP3   OH253067   0.654   1.584  15.700  0.1380  0.4296 -0.0514
10551TIP3    H153068   0.599   1.549  15.630  0.8592 -0.5000 -0.1690
10551TIP3    H253069   0.594   1.635  15.755 -0.6965  0.0223 -0.5687
10552TIP3   OH253070   4.490   1.593   4.051  0.1110  0.2043 -0.6607
10552TIP3    H153071   4.416   1.578   3.992  0.9158 -0.7422 -1.4689
10552TIP3    H253072   4.484   1.523   4.116  0.9759 -0.6492 -1.4605
10553TIP3   OH253073   3.034   4.690  11.961 -0.9289  0.4246 -0.0347
10553TIP3    H153074   3.054   4.625  11.894 -0.6773 -0.8845  1.2529
10553TIP3    H253075   2.941   4.679  11.978 -1.2940  1.6924 -1.0958
10554TIP3   OH253076   3.468   5.925  15.798  0.1095  0.0194  0.2179
10554TIP3    H153077   3.461   5.981  15.875  1.0499 -0.2406  0.5023
10554TIP3    H253078   3.541   5.961  15.747 -0.3475  0.0481 -0.4362
10555TIP3   OH253079   1.766   4.966   2.882  0.4766  0.1142 -0.9722
10555TIP3    H153080   1.832   5.033   2.897 -1.0107  1.3677  0.4288
10555TIP3    H253081   1.797   4.890   2.932  1.5119  0.2106 -1.4521
10556TIP3   OH253082   3.727   1.336   1.734  0.1246 -0.0459 -0.0296
10556TIP3    H153083   3.725   1.262   1.796  4.4169  0.0438  0.5158
10556TIP3    H253084   3.693   1.410   1.784 -1.1178 -0.9605  0.5265
10557TIP3   OH253085   2.018   3.322   1.938  0.0394 -0.5952  0.3842
10557TIP3    H153086   1.978   3.347   1.855 -1.7129 -1.5127  0.9053
10557TIP3    H253087   2.022   3.226   1.935  1.3127 -0.5685  0.7728
10558TIP3   OH253088   5.627   4.445   1.447 -0.4928 -0.8203 -0.2481
10558TIP3    H153089   5.648   4.537   1.432  1.0460 -0.8970  1.1313
10558TIP3    H253090   5.582   4.443   1.531 -0.5610 -1.3167 -0.2898
10559TIP3   OH253091   5.280   6.571  13.134  0.3435 -0.2262  0.2109
10559TIP3    H153092   5.354   6.598  13.078  0.8708 -2.4211 -0.2616
10559TIP3    H253093   5.203   6.586  13.080  0.5084  1.1464  0.3233
10560TIP3   OH253094   5.892   5.250   6.193 -0.2645 -0.0149  0.9319
10560TIP3    H153095   5.972   5.241   6.246  1.5497  1.0743 -1.4549
10560TIP3    H253096   5.858   5.336   6.215 -0.1152  0.0073  1.0811
10561TIP3   OH253097   2.984   0.637   3.099 -0.1119 -0.4618  0.7605
10561TIP3    H153098   2.902   0.686   3.101  0.3298  0.2617  2.2770
10561TIP3    H253099   2.962   0.551   3.136 -0.1046 -0.1185  1.5792
10562TIP3   OH253100   5.331   4.407   5.676 -0.5648 -0.2571 -0.5955
10562TIP3    H153101   5.302   4.320   5.702  0.7848 -0.8727 -1.0865
10562TIP3    H253102   5.370   4.395   5.589  2.3753  0.2363  0.5452
10563TIP3   OH253103   4.375   2.516  15.289 -0.4606 -0.2640  0.1454
10563TIP3    H153104   4.280   2.521  15.292 -0.5621 -1.2756 -0.8772
10563TIP3    H253105   4.398   2.445  15.350 -0.4075 -0.4731 -0.1183
10564TIP3   OH253106   2.668   5.460   1.375 -0.1218 -0.6077  0.1810
10564TIP3    H153107   2.748   5.414   1.403  0.0842  0.0609  0.7277
10564TIP3    H253108   2.644   5.418   1.293  0.1712 -1.5655  0.5624
10565TIP3   OH253109   3.077   6.405   2.864  0.7079 -0.2899  0.3078
10565TIP3    H153110   3.111   6.405   2.953  2.3006 -1.8442 -0.2431
10565TIP3    H253111   3.120   6.479   2.821  0.1638  0.2784  0.7166
10566TIP3   OH253112   3.164   1.472   5.540 -0.0494  0.5236 -0.1260
10566TIP3    H153113   3.101   1.487   5.469  1.3171  0.1520 -1.4702
10566TIP3    H253114   3.220   1.550   5.539  0.1457  0.3949  0.3780
10567TIP3   OH253115   5.926   1.690   2.089  0.6557 -0.6316 -0.1612
10567TIP3    H153116   5.959   1.688   2.179  2.1427 -1.9048 -0.6812
10567TIP3    H253117   5.861   1.620   2.086 -0.8696  0.6902  0.3848
10568TIP3   OH253118   0.137   4.478   6.586  0.1248  0.0377  0.2365
10568TIP3    H153119   0.133   4.410   6.518 -2.8852  3.1520 -3.1878
10568TIP3    H253120   0.071   4.452   6.650 -3.2336  0.9150 -2.5886
10569TIP3   OH253121   0.087   5.260   3.723 -0.3647  0.0005  0.9393
10569TIP3    H153122   0.174   5.227   3.747 -0.5753 -0.3012  1.2976
10569TIP3    H253123   0.061   5.314   3.798  1.1696  3.4116 -0.7344
10570TIP3   OH253124   1.273   2.519   5.633  0.2041  0.4520 -0.4624
10570TIP3    H153125   1.262   2.523   5.728  0.3120  3.1393 -0.4856
10570TIP3    H253126   1.184   2.508   5.599  0.0597  0.4415 -0.0901
10571TIP3   OH253127   4.725   4.242  13.581 -0.0762  0.0719  0.3582
10571TIP3    H153128   4.772   4.159  13.596 -0.6252 -0.2552  0.3045
10571TIP3    H253129   4.757   4.272  13.496  0.5953  0.2448  0.6600
10572TIP3   OH253130   4.205   6.159   4.328 -0.2331 -0.4884  0.1357
10572TIP3    H153131   4.166   6.229   4.276  0.0811  0.9899  1.8077
10572TIP3    H253132   4.149   6.083   4.312 -0.2967 -0.0452 -2.1012
10573TIP3   OH253133   3.025   3.333  12.527 -0.8894  0.3044 -0.1024
10573TIP3    H153134   3.088   3.390  12.571  1.3123 -0.4160 -2.0783
10573TIP3    H253135   2.952   3.391  12.505  0.0716  1.7280  0.3265
10574TIP3   OH253136   3.767   3.963  12.187 -0.1128  0.0590 -0.2133
10574TIP3    H153137   3.756   3.883  12.238 -0.0356  0.4978  0.5100
10574TIP3    H253138   3.794   4.029  12.251  3.1424 -0.0554 -1.2868
10575TIP3   OH253139   5.252   6.632   4.122  0.4136 -0.4948  0.0318
10575TIP3    H153140   5.324   6.655   4.064 -1.1791 -0.8927 -2.2535
10575TIP3    H253141   5.263   6.538   4.139  0.6796 -0.4552  0.0819
10576TIP3   OH253142   5.392   2.906  15.916 -0.3239  0.0258 -0.6698
10576TIP3    H153143   5.347   2.988  15.900 -1.1971 -0.1530  0.7375
10576TIP3    H253144   5.402   2.901  16.011  2.2534 -0.1807 -0.8560
10577TIP3   OH253145   0.012   1.832  16.358 -0.3174 -0.4576 -0.5326
10577TIP3    H153146   0.043   1.824  16.268  1.5977 -1.8507  0.1916
10577TIP3    H253147   0.003   1.742  16.388  1.5061 -0.0646  1.4198
10578TIP3   OH253148   0.544   4.623  11.168 -0.6509 -0.4060  0.2468
10578TIP3    H153149   0.619   4.564  11.173  1.2874  1.6104 -2.2125
10578TIP3    H253150   0.568   4.697  11.224 -0.5267  0.4590 -0.9126
10579TIP3   OH253151   3.095   4.331   0.433 -0.0358  0.0714  0.0022
10579TIP3    H153152   3.001   4.323   0.449 -0.2962 -4.2716 -2.3391
10579TIP3    H253153   3.104   4.336   0.338  2.1680  1.6973  0.1902
10580TIP3   OH253154   2.552   1.188   0.938 -0.4788  0.4993 -0.0537
10580TIP3    H153155   2.573   1.274   0.901 -1.2053  0.8037  0.2365
10580TIP3    H253156   2.543   1.131   0.862  2.5484  0.0390 -0.2114
10581TIP3   OH253157   3.958   2.564  17.371 -0.2862 -0.2462 -0.6192
10581TIP3    H153158   3.974   2.476  17.337  1.2126 -0.1821 -0.1283
10581TIP3    H253159   3.932   2.550  17.462 -0.3207 -0.1976 -0.6214
10582TIP3   OH253160   2.997   1.396   0.013  0.1112  0.3400  0.1685
10582TIP3    H153161   2.924   1.337  -0.005  1.4099 -1.9590  1.8897
10582TIP3    H253162   3.020   1.433  -0.073 -1.7921 -0.3934 -0.7067
10583TIP3   OH253163   4.760   4.002  15.228  0.0919  0.0468 -0.0169
10583TIP3    H153164   4.731   3.963  15.146 -0.6939  0.6161 -0.0199
10583TIP3    H253165   4.839   4.052  15.205  0.4751 -0.6432 -0.2164
10584TIP3   OH253166   6.371   2.375   6.764  0.3440 -0.3368 -0.7293
10584TIP3    H153167   6.304   2.325   6.811  1.2530 -0.4006  0.5763
10584TIP3    H253168   6.437   2.309   6.741  1.0390  0.0686  0.0504
10585TIP3   OH253169   3.581   6.314   3.783  0.2872  0.3508 -0.6533
10585TIP3    H153170   3.640   6.278   3.716  1.3981  0.5433  0.1862
10585TIP3    H253171   3.500   6.263   3.774  1.2758 -1.3282 -0.5166
10586TIP3   OH253172   1.670   4.959  16.597 -0.0169  0.0476  0.2298
10586TIP3    H153173   1.576   4.974  16.591  0.4141  2.8695 -0.4789
10586TIP3    H253174   1.685   4.942  16.690 -1.2238 -0.7860  0.3019
10587TIP3   OH253175   0.363   3.923   0.517  0.5010 -0.0555  0.0200
10587TIP3    H153176   0.340   3.983   0.446  1.5468 -1.4071 -1.5177
10587TIP3    H253177   0.433   3.869   0.482  0.1372 -1.6767  1.6367
10588TIP3   OH253178   4.073   3.455  11.830 -0.1667  0.0687 -0.1841
10588TIP3    H153179   4.079   3.364  11.860 -1.1016 -0.1195 -0.5304
10588TIP3    H253180   3.997   3.456  11.771  0.6166  0.7835 -1.2248
10589TIP3   OH253181   0.422   1.715   1.056  0.1586  0.3317 -0.1124
10589TIP3    H153182   0.467   1.632   1.073  0.1084 -0.1559 -2.1674
10589TIP3    H253183   0.473   1.780   1.105  0.9679 -0.7116  0.4839
10590TIP3   OH253184   6.530   6.023   3.949 -0.7626  0.6918 -0.1945
10590TIP3    H153185   6.503   5.935   3.974 -1.3556  0.9319  0.0411
10590TIP3    H253186   6.459   6.056   3.894  0.3863  0.2908 -1.9902
10591TIP3   OH253187   6.051   2.331   5.803  0.2190  0.3073 -0.1766
10591TIP3    H153188   6.070   2.305   5.713 -0.4343  0.0383 -0.2418
10591TIP3    H253189   6.049   2.427   5.800 -3.2981  0.3341 -1.2508
10592TIP3   OH253190   4.414   3.465   5.022 -0.5415 -0.3362  0.1519
10592TIP3    H153191   4.487   3.516   4.988  0.4110 -2.2757 -0.8874
10592TIP3    H253192   4.337   3.497   4.974 -0.5000  1.9166  1.4519
10593TIP3   OH253193   1.523   1.221  13.027 -0.3978  0.3040  0.1636
10593TIP3    H153194   1.606   1.267  13.014  0.1707 -1.1381 -1.6693
10593TIP3    H253195   1.459   1.274  12.979  0.1218 -0.3554 -1.3171
10594TIP3   OH253196   3.801   3.364   5.212 -0.0334 -0.0841 -0.3861
10594TIP3    H153197   3.729   3.306   5.235  0.3546 -1.2636 -1.9937
10594TIP3    H253198   3.879   3.322   5.248  0.2340 -0.5372 -1.4546
10595TIP3   OH253199   6.161   5.648   2.484  0.2450  0.2487 -0.2777
10595TIP3    H153200   6.167   5.739   2.512  0.7786  0.2595 -0.4155
10595TIP3    H253201   6.105   5.651   2.406 -0.8309  0.2776  0.4742
10596TIP3   OH253202   0.397   0.310  13.225 -0.3610  0.3197  0.1541
10596TIP3    H153203   0.419   0.219  13.247  2.6482  0.2128 -2.4940
10596TIP3    H253204   0.434   0.362  13.297 -1.6425 -0.4599  1.4217
10597TIP3   OH253205   6.218   0.315  17.442 -0.3873  0.0654  0.2028
10597TIP3    H153206   6.168   0.284  17.367 -0.5021  0.3443  0.1647
10597TIP3    H253207   6.151   0.343  17.505 -0.2956  1.9347 -0.4638
10598TIP3   OH253208   3.101   0.162  15.001  0.1774 -0.2790 -0.2816
10598TIP3    H153209   3.059   0.079  15.024 -3.6235  1.1289 -1.3903
10598TIP3    H253210   3.079   0.175  14.908  1.1266  1.7148 -0.2698
10599TIP3   OH253211   4.945   0.224  16.679  0.5086 -0.3318 -0.0415
10599TIP3    H153212   4.898   0.286  16.622  1.7418  0.0607 -0.6673
10599TIP3    H253213   4.899   0.230  16.763 -1.0423 -0.5527 -0.8271
10600TIP3   OH253214   4.694   0.522   6.701 -0.5879  0.6836  0.3346
10600TIP3    H153215   4.635   0.449   6.719 -1.7194  0.9868 -1.8615
10600TIP3    H253216   4.684   0.579   6.778 -1.7994 -0.1369  0.8221
10601TIP3   OH253217   1.780   5.623  14.539  0.0241 -0.2090  0.6322
10601TIP3    H153218   1.784   5.703  14.486  1.2476 -0.1490  0.7794
10601TIP3    H253219   1.813   5.554  14.481  1.8245 -0.0623  1.4113
10602TIP3   OH253220   1.430   2.327  15.352 -0.1740 -0.4548  0.2885
10602TIP3    H153221   1.388   2.382  15.286 -1.3195 -1.7642 -0.1254
10602TIP3    H253222   1.379   2.245  15.351  0.2957 -0.8164  2.2181
10603TIP3   OH253223   4.835   1.128  17.453 -0.7415  0.3170  0.2667
10603TIP3    H153224   4.875   1.214  17.440 -0.8739  0.5760  1.4561
10603TIP3    H253225   4.864   1.101  17.540  0.4738 -1.5142 -0.6412
10604TIP3   OH253226   1.669   5.937  17.474 -0.0344  0.1555  0.0711
10604TIP3    H153227   1.761   5.924  17.493 -0.2541 -0.8654  0.4932
10604TIP3    H253228   1.643   6.012  17.529  0.5657  0.5526 -0.1744
10605TIP3   OH253229   0.395   0.616  16.875 -0.1024  0.1904  0.0576
10605TIP3    H153230   0.485   0.648  16.865 -0.4059  0.9981 -0.1886
10605TIP3    H253231   0.368   0.647  16.961  0.3363 -1.3042  0.7634
10606TIP3   OH253232   5.172   1.083   4.720 -0.2047  0.1609 -0.0395
10606TIP3    H153233   5.197   1.093   4.628  1.4775 -0.5529  0.2898
10606TIP3    H253234   5.124   1.000   4.723 -0.6143  0.3825 -0.3195
10607TIP3   OH253235   4.143   0.638  12.630  0.2143 -0.6888  0.4742
10607TIP3    H153236   4.082   0.637  12.557  1.2042  1.7796 -0.5079
10607TIP3    H253237   4.174   0.548  12.638  1.0728 -0.8242 -3.0444
10608TIP3   OH253238   3.198   2.189  16.248  0.2800 -0.0829  0.3454
10608TIP3    H153239   3.232   2.207  16.335 -0.2781 -0.0024  0.5501
10608TIP3    H253240   3.125   2.129  16.262  0.8112 -0.8719 -0.1577
10609TIP3   OH253241   3.179   6.073   1.716  0.4330 -0.7196  0.7212
10609TIP3    H153242   3.197   6.101   1.805  0.6553  1.8956 -0.0599
10609TIP3    H253243   3.093   6.032   1.720  0.3382 -0.4255  2.0871
10610TIP3   OH253244   0.211   1.895  16.676 -0.4017  0.3695 -0.0684
10610TIP3    H153245   0.201   1.809  16.636 -0.6273 -0.3761  1.4964
10610TIP3    H253246   0.122   1.920  16.703 -0.3676  1.1809 -0.6643
10611TIP3   OH253247   4.792   0.288  14.187 -0.0014  0.2736  0.6109
10611TIP3    H153248   4.838   0.273  14.105 -0.9590  1.7159 -0.2394
10611TIP3    H253249   4.729   0.216  14.192  0.3816 -0.0882  0.3317
10612TIP3   OH253250   5.578   6.580   1.507  0.5765 -0.1368  0.5567
10612TIP3    H153251   5.667   6.549   1.525  0.5210 -0.1473  0.8239
10612TIP3    H253252   5.524   6.501   1.513  0.4109  0.0271  1.4108
10613TIP3   OH253253   5.806   6.313  12.278 -0.6141 -0.0615 -0.4777
10613TIP3    H153254   5.778   6.392  12.323  0.8579  0.8671 -1.1055
10613TIP3    H253255   5.845   6.259  12.346 -0.6398  0.2376 -0.2233
10614TIP3   OH253256   4.049   3.709  17.490 -0.0991 -0.1310  0.0579
10614TIP3    H153257   4.114   3.686  17.557 -0.5196  1.9980  1.2829
10614TIP3    H253258   4.075   3.796  17.460 -2.5180  0.9465  0.8477
10615TIP3   OH253259   2.737   1.838   1.125 -0.1556  0.2575 -0.0909
10615TIP3    H153260   2.667   1.874   1.071  0.4874  2.8163  0.6400
10615TIP3    H253261   2.816   1.845   1.071 -0.3021 -2.0978 -0.7047
10616TIP3   OH253262   4.535   0.706   4.442 -0.3065 -0.1927  0.2234
10616TIP3    H153263   4.545   0.649   4.365  3.1330  1.7123 -0.9826
10616TIP3    H253264   4.540   0.795   4.406 -0.8821  0.8150  2.4735
10617TIP3   OH253265   0.763   3.740   5.773  0.0968 -0.2583  0.2713
10617TIP3    H153266   0.739   3.824   5.733 -0.7837 -0.4126  0.4608
10617TIP3    H253267   0.770   3.680   5.699 -0.7786 -0.3649  0.2644
10618TIP3   OH253268   4.047   0.767  11.635  0.8354  0.3920 -0.1906
10618TIP3    H153269   4.067   0.685  11.680 -0.0678  0.9511  1.3395
10618TIP3    H253270   3.963   0.751  11.593  0.5767  0.5745  0.2513
10619TIP3   OH253271   3.352   0.879   3.421  0.0782  0.5719  0.7530
10619TIP3    H153272   3.370   0.787   3.403  1.3735  1.5456 -4.5464
10619TIP3    H253273   3.257   0.887   3.413  0.1741  0.0412 -2.1718
10620TIP3   OH253274   6.527   6.340  14.533  0.5495  0.3606  0.6734
10620TIP3    H153275   6.475   6.393  14.472  0.6135 -1.6657 -1.2497
10620TIP3    H253276   6.611   6.385  14.538  0.5315  0.6020 -0.7572
10621TIP3   OH253277   6.078   4.239  15.907  0.1224 -0.2101 -0.3724
10621TIP3    H153278   6.028   4.286  15.974 -0.5751 -0.6458 -0.5719
10621TIP3    H253279   6.152   4.296  15.887  0.0981  0.1193  0.4560
10622TIP3   OH253280   2.615   4.709   3.994 -0.6822  0.2068  0.0066
10622TIP3    H153281   2.529   4.679   3.966  0.4348 -1.6730 -1.6258
10622TIP3    H253282   2.638   4.653   4.068 -0.4625  0.0575 -0.1736
10623TIP3   OH253283   3.894   5.167   4.540 -0.2030 -0.5579 -0.1832
10623TIP3    H153284   3.863   5.164   4.449  0.0520 -0.4697 -0.2738
10623TIP3    H253285   3.946   5.087   4.549 -0.3987 -0.6719 -0.0502
10624TIP3   OH253286   5.467   0.638   1.773  0.2326 -0.1812  0.3276
10624TIP3    H153287   5.525   0.698   1.818  0.3454  0.3629 -0.5255
10624TIP3    H253288   5.520   0.560   1.758  0.3929 -0.1126  0.5324
10625TIP3   OH253289   5.089   4.550   4.074 -0.2130 -0.0138  0.4999
10625TIP3    H153290   5.067   4.626   4.021 -0.3677 -0.0671  0.4843
10625TIP3    H253291   5.181   4.533   4.056 -0.6083 -0.8981 -0.8773
10626TIP3   OH253292   2.250   3.069  16.489  0.3443 -0.1421 -0.3061
10626TIP3    H153293   2.178   3.126  16.463  0.5470  0.1677 -0.1800
10626TIP3    H253294   2.271   3.019  16.410  0.3361  0.1325 -0.4785
10627TIP3   OH253295   1.043   3.627  16.925  0.3266 -0.2665  0.1460
10627TIP3    H153296   0.990   3.575  16.985 -0.4008  1.6842  1.2607
10627TIP3    H253297   1.133   3.612  16.953  0.4307 -2.9986 -1.2790
10628TIP3   OH253298   2.089   2.320   1.836 -0.4052  0.4246  0.4834
10628TIP3    H153299   2.137   2.394   1.873  1.3454 -0.7911  0.7563
10628TIP3    H253300   2.040   2.285   1.910 -0.7636  0.9335  0.4927
10629TIP3   OH253301   5.755   2.771  17.317  0.0538  0.1409 -0.0360
10629TIP3    H153302   5.687   2.772  17.385 -0.6823 -0.8606 -0.7306
10629TIP3    H253303   5.834   2.744  17.363 -0.8730 -2.6905  0.1212
10630TIP3   OH253304   0.526   5.851   2.184 -0.0699 -0.2615  0.1726
10630TIP3    H153305   0.598   5.911   2.200  0.3724 -0.1054 -2.0411
10630TIP3    H253306   0.515   5.804   2.267  1.6166  0.7056  1.0022
10631TIP3   OH253307   4.307   2.726   6.516 -0.1575 -0.7096  0.0504
10631TIP3    H153308   4.399   2.744   6.496 -0.5586  0.2138 -1.1016
10631TIP3    H253309   4.309   2.650   6.574  1.4637  0.9789  2.3725
10632TIP3   OH253310   5.479   6.397  17.105  0.3877 -0.1388 -0.1057
10632TIP3    H153311   5.428   6.459  17.158  0.1025 -2.0294  1.9844
10632TIP3    H253312   5.423   6.378  17.030  0.0486  1.3284 -0.2519
10633TIP3   OH253313   3.180   2.004   3.786  0.0232 -0.5071  0.0086
10633TIP3    H153314   3.258   1.957   3.756 -0.6978 -0.3032 -2.3292
10633TIP3    H253315   3.124   1.935   3.822  0.1269 -1.0744 -0.8777
10634TIP3   OH253316   5.538   5.754  15.537 -0.7162  0.0740 -0.1939
10634TIP3    H153317   5.575   5.668  15.555  1.3747  1.0188  0.3354
10634TIP3    H253318   5.589   5.788  15.463  0.6128  2.0050  1.4824
10635TIP3   OH253319   4.448   1.437   0.922  0.3026 -0.2091  0.7289
10635TIP3    H153320   4.397   1.511   0.954  1.0744  0.8053 -0.2848
10635TIP3    H253321   4.539   1.466   0.928  0.6717 -1.3467  0.9548
10636TIP3   OH253322   4.879   2.188  11.720 -0.2648 -0.0018  0.1409
10636TIP3    H153323   4.854   2.222  11.806  1.8714  1.0402  0.4208
10636TIP3    H253324   4.821   2.232  11.659 -0.4493  0.8096  0.8827
10637TIP3   OH253325   2.397   4.292   1.589  0.1071  0.5808 -0.7497
10637TIP3    H153326   2.429   4.261   1.674  1.6256  1.1581 -1.0672
10637TIP3    H253327   2.307   4.319   1.605  0.8295  2.0944  1.0622
10638TIP3   OH253328   2.087   4.866  14.283 -0.0535  0.1476  0.4892
10638TIP3    H153329   2.170   4.821  14.293 -0.6682 -0.8491  1.2635
10638TIP3    H253330   2.026   4.817  14.338 -1.5255 -0.1138 -1.2869
10639TIP3   OH253331   0.063   3.134   5.488 -0.5860 -0.1863 -0.1205
10639TIP3    H153332  -0.017   3.156   5.440  0.5433  2.3303 -1.0548
10639TIP3    H253333   0.033   3.100   5.572 -2.6243  0.6295 -0.4706
10640TIP3   OH253334   2.333   2.098   3.453  0.0589  0.0542  0.1362
10640TIP3    H153335   2.263   2.144   3.500 -0.3838 -0.9980  0.5399
10640TIP3    H253336   2.318   2.119   3.361 -0.4712  0.2605  0.2659
10641TIP3   OH253337   1.556   4.740   0.834 -0.2469 -0.7393  0.4946
10641TIP3    H153338   1.592   4.728   0.922 -1.1035 -0.9572  0.8326
10641TIP3    H253339   1.630   4.768   0.781  0.1721 -0.0706  1.4081
10642TIP3   OH253340   0.354   6.187   5.667 -0.0500  0.1305 -0.0401
10642TIP3    H153341   0.423   6.152   5.611  0.1625 -0.6026  0.6662
10642TIP3    H253342   0.362   6.282   5.657 -1.7434  0.0553 -3.3096
10643TIP3   OH253343   1.622   2.255  16.404 -0.0128  0.1795 -0.1709
10643TIP3    H153344   1.560   2.292  16.467  0.6455 -2.2440  2.0533
10643TIP3    H253345   1.608   2.306  16.324 -3.0402  1.3736  0.9915
10644TIP3   OH253346   0.859   2.368   2.109  0.4780  0.2145 -0.3678
10644TIP3    H153347   0.846   2.322   2.192  2.6212  0.9692  0.4595
10644TIP3    H253348   0.915   2.309   2.057 -1.2343 -0.4709 -1.5421
10645TIP3   OH253349   5.368   1.249   0.479  0.3515  0.3115 -0.3172
10645TIP3    H153350   5.389   1.321   0.538  0.3900 -0.1058  0.1895
10645TIP3    H253351   5.304   1.286   0.418  0.0854  0.6701  0.1701
10646TIP3   OH253352   4.383   2.417  16.322  0.4449  0.1161  0.1192
10646TIP3    H153353   4.418   2.438  16.235  1.6990 -0.2575  0.5109
10646TIP3    H253354   4.437   2.344  16.352  1.4999  1.6199  2.1078
10647TIP3   OH253355   5.737   5.683   3.469 -0.5518 -0.3926 -0.0185
10647TIP3    H153356   5.708   5.769   3.500  0.4018 -0.9473  2.7726
10647TIP3    H253357   5.833   5.687   3.475 -0.5186 -2.1199  1.8618
10648TIP3   OH253358   6.312   1.125  16.314  0.0027 -0.2532  0.4708
10648TIP3    H153359   6.281   1.043  16.353  0.9492 -0.5297  0.6549
10648TIP3    H253360   6.242   1.151  16.253 -0.0679 -1.4760  0.0149
10649TIP3   OH253361   2.598   2.226   3.952  0.0270  0.8090  0.0830
10649TIP3    H153362   2.656   2.234   4.027  0.8834 -2.7045 -0.0445
10649TIP3    H253363   2.646   2.266   3.880  2.4390 -1.9339 -0.0023
10650TIP3   OH253364   5.835   3.980   3.119 -0.4467  0.0148 -0.2851
10650TIP3    H153365   5.927   3.969   3.092 -0.2769  0.8660 -0.0874
10650TIP3    H253366   5.840   4.023   3.204 -1.0232 -0.6161  0.0742
10651TIP3   OH253367   6.158   3.737  14.532  0.1990  0.3112  0.2630
10651TIP3    H153368   6.237   3.707  14.577 -0.4697 -1.2883  0.4293
10651TIP3    H253369   6.092   3.741  14.600 -0.6824 -1.5858 -0.4299
10652TIP3   OH253370   6.190   1.048   0.536 -0.4273 -0.0067 -0.0701
10652TIP3    H153371   6.241   0.976   0.573 -0.4295 -0.7795 -1.4956
10652TIP3    H253372   6.112   1.053   0.591  0.9326  0.9193  1.8959
10653TIP3   OH253373   3.104   3.302  12.954 -0.6976 -0.0975 -0.4576
10653TIP3    H153374   3.043   3.358  13.003 -0.3446  1.0545 -1.2716
10653TIP3    H253375   3.063   3.216  12.954 -0.7576 -0.1088  1.7268
10654TIP3   OH253376   5.144   6.065   1.423 -0.2006  0.1774 -0.0406
10654TIP3    H153377   5.148   5.971   1.442 -1.1509 -0.1173 -1.1668
10654TIP3    H253378   5.051   6.083   1.410 -0.1751  1.5487  1.3218
10655TIP3   OH253379   0.996   4.367  14.160 -0.1484 -0.0765  0.7611
10655TIP3    H153380   1.054   4.343  14.233 -1.5948  0.1396  2.0188
10655TIP3    H253381   0.912   4.387  14.201 -0.9364  0.3161 -0.9529
10656TIP3   OH253382   3.696   0.101  12.825  0.3919 -0.1152 -0.3007
10656TIP3    H153383   3.708   0.139  12.912  0.9112 -2.0517  0.5185
10656TIP3    H253384   3.653   0.170  12.775  0.7062  1.3010  1.2791
10657TIP3   OH253385   6.093   1.921  17.580 -0.1218  0.5260  0.3029
10657TIP3    H153386   6.144   1.877  17.647 -1.0142 -3.3570 -1.3225
10657TIP3    H253387   6.002   1.899  17.600 -0.3639 -1.7449 -2.5959
10658TIP3   OH253388   3.894   3.122   0.614  0.7924 -0.6891 -0.8055
10658TIP3    H153389   3.857   3.159   0.694  1.8610 -1.7163  0.2034
10658TIP3    H253390   3.835   3.151   0.545 -0.1491  0.2430  0.3445
10659TIP3   OH253391   6.665   0.190  13.957  0.2563  0.4034 -0.3240
10659TIP3    H153392   6.578   0.231  13.956  0.5727  1.2953  1.9468
10659TIP3    H253393   6.661   0.127  14.029  0.9730 -0.8784 -1.3627
10660TIP3   OH253394   1.406   6.083   3.943 -0.5062  0.2428  0.5012
10660TIP3    H153395   1.427   6.004   3.992  0.3414  0.3206  0.2658
10660TIP3    H253396   1.396   6.054   3.853  1.5954  0.6435  0.0826
10661TIP3   OH253397   5.454   4.022   5.460 -0.0964  0.0618  0.2737
10661TIP3    H153398   5.438   3.932   5.433  0.1562  0.1679 -0.2329
10661TIP3    H253399   5.549   4.026   5.473 -0.2353 -0.0667  1.4708
10662TIP3   OH253400   0.018   1.223   3.100 -0.2308 -0.0988  0.6056
10662TIP3    H153401   0.023   1.281   3.024 -1.3045 -0.7589 -0.0030
10662TIP3    H253402   0.098   1.240   3.149  1.3305 -0.8509 -1.5346
10663TIP3   OH253403   4.036   5.499   0.208  0.0980 -0.0106 -0.5212
10663TIP3    H153404   4.045   5.426   0.147  1.5381  0.4806 -0.9473
10663TIP3    H253405   4.110   5.556   0.187 -0.9498  1.5362 -0.1471
10664TIP3   OH253406   3.380   6.128  16.802  0.0864  0.3851  0.0302
10664TIP3    H153407   3.399   6.124  16.708 -2.4703  2.8123 -0.7124
10664TIP3    H253408   3.415   6.212  16.830 -1.0287  0.6448  0.7173
10665TIP3   OH253409   4.017   2.997   2.816 -0.4087 -1.0670 -0.1724
10665TIP3    H153410   4.038   2.907   2.793  0.1513 -1.1142  0.4982
10665TIP3    H253411   4.019   2.999   2.912  1.3119  0.0376 -0.1906
10666TIP3   OH253412   2.476   2.293  17.528  0.0697  0.3888  0.4637
10666TIP3    H153413   2.410   2.292  17.459  0.5102 -1.6588  0.0273
10666TIP3    H253414   2.431   2.334  17.603 -1.2052  0.3747 -0.2675
10667TIP3   OH253415   1.617   6.168  17.122  0.1778  0.3428  0.0229
10667TIP3    H153416   1.690   6.107  17.115  0.5780  0.8880 -0.6261
10667TIP3    H253417   1.638   6.239  17.061 -1.0398  0.3528 -0.4206
10668TIP3   OH253418   5.840   6.132  12.967  0.5556 -0.1085 -0.3532
10668TIP3    H153419   5.754   6.147  12.926  0.2337 -0.8924  0.0245
10668TIP3    H253420   5.872   6.052  12.926  1.4416  0.5638 -1.0141
10669TIP3   OH253421   2.313   5.108  15.904  0.8101  0.8594  0.5779
10669TIP3    H153422   2.304   5.104  15.999  0.9893  0.5281  0.5838
10669TIP3    H253423   2.393   5.157  15.889  0.8702  0.7680  0.6008
10670TIP3   OH253424   4.938   0.198   3.684  0.0988 -0.1508 -0.4810
10670TIP3    H153425   4.921   0.270   3.624  2.1825  1.3197  0.5772
10670TIP3    H253426   4.865   0.199   3.745  1.3182  2.9118  1.1366
10671TIP3   OH253427   0.491   1.175   2.749  0.2883 -0.3422  0.0888
10671TIP3    H153428   0.410   1.126   2.736 -0.1501  0.0721  1.1461
10671TIP3    H253429   0.551   1.112   2.789  1.8239 -1.7838 -3.9984
10672TIP3   OH253430   2.809   0.591  10.972 -0.1016  0.0092 -0.6999
10672TIP3    H153431   2.871   0.555  10.909 -0.2825  0.2988 -1.0549
10672TIP3    H253432   2.857   0.661  11.016 -0.3082  0.5533 -1.3093
10673TIP3   OH253433   0.272   0.927  12.856  0.2059 -0.1185  0.4564
10673TIP3    H153434   0.300   0.851  12.805  2.1201  0.4335  0.6307
10673TIP3    H253435   0.328   0.998  12.826 -1.7648  1.3467  0.0651
10674TIP3   OH253436   2.491   5.118  12.398 -0.1137  0.1394  0.1880
10674TIP3    H153437   2.414   5.098  12.343 -2.6680  1.9811  2.7975
10674TIP3    H253438   2.509   5.210  12.381  0.6974  0.0663  0.6116
10675TIP3   OH253439   2.057   5.869   0.991  0.1408  0.1014  0.3372
10675TIP3    H153440   2.144   5.909   0.986  0.6034 -0.6476  1.8174
10675TIP3    H253441   2.055   5.807   0.918  0.0292  1.5885 -0.9798
10676TIP3   OH253442   2.962   1.582  14.606  0.1242 -0.3739 -0.1482
10676TIP3    H153443   2.960   1.675  14.628 -2.1080 -0.2019 -0.8313
10676TIP3    H253444   3.026   1.576  14.535 -1.1678  1.0433 -1.5189
10677TIP3   OH253445   0.126   4.762  16.101 -0.5898 -0.2098  0.1627
10677TIP3    H153446   0.067   4.740  16.173  0.0809 -0.6042  0.6103
10677TIP3    H253447   0.174   4.681  16.083  0.1807  0.2279  0.1714
10678TIP3   OH253448   6.076   1.551  13.366 -0.3808 -0.0183 -0.1057
10678TIP3    H153449   6.002   1.490  13.374 -0.3394 -0.1777 -0.9164
10678TIP3    H253450   6.063   1.614  13.438 -2.2896  1.0087 -1.2760
10679TIP3   OH253451   2.827   1.859  15.992  0.4460 -0.4059  0.1556
10679TIP3    H153452   2.871   1.809  15.923 -1.9096 -1.3789 -0.7567
10679TIP3    H253453   2.876   1.839  16.072  3.2219  0.7375 -1.1644
10680TIP3   OH253454   0.228   0.637  14.245 -0.0459  0.0580  0.2831
10680TIP3    H153455   0.197   0.643  14.336 -0.5362 -0.6257  0.1664
10680TIP3    H253456   0.166   0.578  14.203  0.2832  0.2402 -0.4590
10681TIP3   OH253457   3.986   3.804  15.187  0.2500 -0.3343  0.2988
10681TIP3    H153458   4.013   3.805  15.095  0.5562  0.5269  0.3847
10681TIP3    H253459   4.059   3.762  15.233  1.5025  1.9499  0.5252
10682TIP3   OH253460   2.924   5.988   4.271 -0.0508 -0.6230 -0.5023
10682TIP3    H153461   2.927   6.084   4.273  1.8025 -0.6408 -0.9316
10682TIP3    H253462   2.999   5.960   4.323  0.0113 -1.8161 -1.1965
10683TIP3   OH253463   4.843   4.161  13.895  0.0779  0.4612 -0.1913
10683TIP3    H153464   4.752   4.180  13.919 -0.2024 -1.3956  0.3619
10683TIP3    H253465   4.895   4.218  13.952 -0.7144  0.1684  0.8684
10684TIP3   OH253466   4.076   4.572   2.948 -0.4611  0.4387  0.3127
10684TIP3    H153467   4.020   4.637   2.990 -0.9129 -1.2444  2.5204
10684TIP3    H253468   4.020   4.495   2.937  1.1120 -1.0109  1.8247
10685TIP3   OH253469   0.620   5.236   2.881  0.2044 -0.3494  0.2213
10685TIP3    H153470   0.696   5.214   2.828 -0.4315 -0.0687 -0.8413
10685TIP3    H253471   0.550   5.251   2.818 -1.1879 -2.1869  1.2125
10686TIP3   OH253472   6.335   5.898   2.970 -0.7393  0.0834 -0.4854
10686TIP3    H153473   6.370   5.941   2.892 -2.9538  2.0283 -0.5181
10686TIP3    H253474   6.289   5.822   2.937  0.3437 -0.4612 -0.7910
10687TIP3   OH253475   1.998   6.051   3.444  0.3399  0.1967  0.0164
10687TIP3    H153476   1.954   6.003   3.375  1.6297 -0.5524 -0.3118
10687TIP3    H253477   2.027   5.984   3.506  1.8284  0.5364 -0.2574
10688TIP3   OH253478   3.073   3.347  13.973 -0.0066  0.1573 -0.3535
10688TIP3    H153479   3.020   3.403  14.030 -1.5587 -0.6489 -0.9158
10688TIP3    H253480   3.058   3.259  14.007  1.0858 -0.0940 -0.4886
10689TIP3   OH253481   0.310   3.499  16.221  0.1190 -0.1477 -0.3022
10689TIP3    H153482   0.251   3.574  16.214  0.9098  0.7488  1.7734
10689TIP3    H253483   0.289   3.459  16.305 -0.1025 -2.1612 -1.2442
10690TIP3   OH253484   2.038   4.897   1.095  0.2264  0.2375  0.3671
10690TIP3    H153485   2.013   4.810   1.125 -0.5301  0.6248  0.8984
10690TIP3    H253486   1.968   4.924   1.036  1.8004 -0.5900 -1.9775
10691TIP3   OH253487   2.049   6.259   2.942  0.7929 -0.7420  0.2781
10691TIP3    H153488   2.063   6.165   2.935  0.2397 -0.8016 -0.0677
10691TIP3    H253489   2.084   6.282   3.028  1.0273 -1.2452  0.3179
10692TIP3   OH253490   3.339   4.748   1.001  0.6761  0.0294  0.0587
10692TIP3    H153491   3.417   4.751   1.057 -0.0408  2.3470  1.0507
10692TIP3    H253492   3.276   4.696   1.050  0.8132  0.1196  0.3318
10693TIP3   OH253493   5.051   5.754   0.315  0.2494  0.3550 -1.0599
10693TIP3    H153494   5.079   5.698   0.243  0.4637  0.0462 -0.7454
10693TIP3    H253495   5.132   5.774   0.363 -0.0917 -0.9109  0.1192
10694TIP3   OH253496   2.434   5.193   6.841 -0.2651  0.4040 -0.3068
10694TIP3    H153497   2.524   5.163   6.852  0.1438  1.4274 -0.7990
10694TIP3    H253498   2.411   5.231   6.926 -0.3240 -0.0826 -0.1025
10695TIP3   OH253499   0.449   5.534  12.936 -0.4549  0.2778 -0.3680
10695TIP3    H153500   0.456   5.526  13.031  1.3428  0.2564 -0.4714
10695TIP3    H253501   0.355   5.544  12.920 -0.9042 -0.8148  1.3139
10696TIP3   OH253502   6.138   5.066  15.706 -0.9017 -0.1391  0.7123
10696TIP3    H153503   6.046   5.065  15.730 -1.1784 -0.3816 -0.3007
10696TIP3    H253504   6.156   4.977  15.675 -0.3686 -0.0480  0.7405
10697TIP3   OH253505   4.519   0.421  11.636  0.1408  0.2999  0.4029
10697TIP3    H153506   4.614   0.427  11.644  0.6042 -0.4727 -3.1146
10697TIP3    H253507   4.499   0.328  11.644 -0.3874  0.4568  1.1453
10698TIP3   OH253508   1.273   0.958   4.335 -0.2024  0.4205  0.5475
10698TIP3    H153509   1.263   0.865   4.314 -0.5401  0.5275  0.2304
10698TIP3    H253510   1.362   0.980   4.304  0.5236 -0.1873  2.1077
10699TIP3   OH253511   5.384   5.514   5.482  0.2127 -0.0003 -0.2706
10699TIP3    H153512   5.417   5.428   5.453  0.0933  0.4257 -1.7881
10699TIP3    H253513   5.291   5.512   5.461  0.3149  0.6844 -0.8175
10700TIP3   OH253514   1.479   0.854  16.675 -0.1558 -0.7785 -0.0056
10700TIP3    H153515   1.454   0.946  16.664 -0.7909 -0.8675  0.6690
10700TIP3    H253516   1.543   0.839  16.605 -0.1233  0.1441 -0.1964
10701TIP3   OH253517   4.575   0.485   7.181  0.2094  0.4356 -0.0298
10701TIP3    H153518   4.541   0.573   7.165  0.3123  1.0344  2.5849
10701TIP3    H253519   4.508   0.427   7.143 -1.4689  1.6382  0.9316
10702TIP3   OH253520   4.092   2.533  15.404 -0.2919  0.3387  0.0323
10702TIP3    H153521   4.058   2.524  15.493 -0.3547 -0.3530 -0.0541
10702TIP3    H253522   4.017   2.513  15.348 -0.2988  0.9407 -0.1854
10703TIP3   OH253523   0.688   1.179   2.399 -0.3270 -0.2054  0.1438
10703TIP3    H153524   0.689   1.087   2.424 -0.4250  0.1283  1.4873
10703TIP3    H253525   0.619   1.217   2.454 -0.5285  0.6079 -0.6475
10704TIP3   OH253526   2.590   5.391  15.671  0.3310 -0.5940  0.5891
10704TIP3    H153527   2.680   5.416  15.648  0.6298 -0.7400  1.5765
10704TIP3    H253528   2.584   5.407  15.765 -1.0406  0.5062  0.3485
10705TIP3   OH253529   2.720   0.180  11.626  0.2148  0.8578 -0.3799
10705TIP3    H153530   2.815   0.192  11.616  0.7743 -2.1207  0.3968
10705TIP3    H253531   2.691   0.153  11.539  0.3372  0.4098 -0.2827
10706TIP3   OH253532   4.726   6.580   0.223  0.3321 -0.3213 -0.0287
10706TIP3    H153533   4.742   6.497   0.268 -0.5134  0.3501  1.5912
10706TIP3    H253534   4.731   6.646   0.292 -0.4428  0.8206 -1.0283
10707TIP3   OH253535   4.842   3.853   1.681  0.5544 -0.8212 -0.3335
10707TIP3    H153536   4.933   3.880   1.675  0.0787  0.6613 -1.3440
10707TIP3    H253537   4.804   3.875   1.596 -1.1263  0.1229  0.5882
10708TIP3   OH253538   5.508   5.737  13.113 -0.2145  0.0329 -0.0385
10708TIP3    H153539   5.470   5.761  13.198  1.1421 -1.2359  0.9766
10708TIP3    H253540   5.513   5.820  13.065 -1.0834  0.7663  1.0872
10709TIP3   OH253541   5.687   0.057  16.860  0.1988 -0.3604 -0.2124
10709TIP3    H153542   5.594   0.037  16.864  0.5445 -1.7791  2.4668
10709TIP3    H253543   5.708   0.092  16.946  2.3356 -0.9873 -0.4216
10710TIP3   OH253544   4.936   2.542   0.532 -0.0467 -0.1313  0.7502
10710TIP3    H153545   4.936   2.553   0.437 -2.1561 -1.7402  0.5055
10710TIP3    H253546   4.852   2.577   0.561 -0.1522 -1.1882  1.7953
10711TIP3   OH253547   5.548   5.662   4.822 -0.0354 -0.4002 -0.1789
10711TIP3    H153548   5.591   5.609   4.889 -0.5688 -0.8629 -0.1909
10711TIP3    H253549   5.598   5.744   4.820 -0.0436 -0.3636  0.8090
10712TIP3   OH253550   4.474   0.058   4.078  0.1066 -0.1153 -0.4546
10712TIP3    H153551   4.423   0.138   4.092 -1.0589 -1.0989  1.2087
10712TIP3    H253552   4.518   0.043   4.161 -2.2366 -2.9056  0.4445
10713TIP3   OH253553   2.225   4.866  16.059  0.0943  0.1327  0.1619
10713TIP3    H153554   2.224   4.843  15.966  0.3449  0.1508  0.1523
10713TIP3    H253555   2.285   4.803  16.098 -0.0765  0.0724  0.3261
10714TIP3   OH253556   1.377   4.416   1.893  0.3223 -0.2726  0.3840
10714TIP3    H153557   1.414   4.484   1.837  1.7516 -1.2901  0.0292
10714TIP3    H253558   1.325   4.362   1.832 -0.4088  0.2156  0.5721
10715TIP3   OH253559   1.583   4.739   5.003 -0.4157 -0.2515 -0.1892
10715TIP3    H153560   1.605   4.805   5.069  2.2832  0.6704 -1.8628
10715TIP3    H253561   1.489   4.749   4.990 -0.5141  1.5437  1.4004
10716TIP3   OH253562   2.884   0.612   2.381 -0.1953  0.4789  0.1689
10716TIP3    H153563   2.885   0.613   2.285  1.2169  2.7247  0.1396
10716TIP3    H253564   2.904   0.521   2.404  3.0439  0.5810 -1.7120
10717TIP3   OH253565   4.213   6.276  12.715  0.3293 -0.1473 -0.0012
10717TIP3    H153566   4.183   6.298  12.627 -0.0447 -2.1714 -0.4402
10717TIP3    H253567   4.182   6.187  12.729  2.2580 -0.6796  1.3216
10718TIP3   OH253568   2.437   1.142  17.017 -0.1673 -0.6628 -0.0633
10718TIP3    H153569   2.344   1.143  17.041 -0.8795  1.2030 -2.4796
10718TIP3    H253570   2.461   1.235  17.015  1.5035 -1.0801 -0.4075
10719TIP3   OH253571   1.258   5.678  12.938 -0.1735 -0.2334  0.1527
10719TIP3    H153572   1.184   5.700  12.881  0.6247  2.3317 -0.0149
10719TIP3    H253573   1.274   5.758  12.988  3.0461 -0.3821 -0.4555
10720TIP3   OH253574   0.512   5.034   0.965  0.3629  0.3726  0.8842
10720TIP3    H153575   0.495   5.119   0.926 -4.8432 -0.6181  0.2961
10720TIP3    H253576   0.469   5.038   1.050  2.8352 -0.8026  2.3269
10721TIP3   OH253577   1.423   1.838  17.110  0.2154  0.3117  0.4075
10721TIP3    H153578   1.336   1.853  17.146 -0.5784  0.2655 -1.3657
10721TIP3    H253579   1.457   1.925  17.091 -0.0887  0.2881 -0.2879
10722TIP3   OH253580   4.195   5.666  15.398 -0.3386 -0.3729 -0.0755
10722TIP3    H153581   4.125   5.654  15.462 -0.5695 -0.2873 -0.3104
10722TIP3    H253582   4.230   5.578  15.384 -2.0185 -0.8217 -1.7872
10723TIP3   OH253583   5.478   4.145  14.388 -0.4551 -0.0248  0.3708
10723TIP3    H153584   5.476   4.239  14.372 -1.3288 -0.1675 -0.5032
10723TIP3    H253585   5.409   4.129  14.452 -0.8001 -0.1473 -0.0235
10724TIP3   OH253586   1.352   2.209  11.313  0.3209 -0.0664 -0.0875
10724TIP3    H153587   1.379   2.273  11.248  0.1890  2.4750  2.1792
10724TIP3    H253588   1.268   2.241  11.345  0.8857 -0.5385  2.0710
10725TIP3   OH253589   4.203   3.995  17.036  0.0422  0.6958  0.4072
10725TIP3    H153590   4.145   4.054  16.988  1.6398  1.5001 -0.6385
10725TIP3    H253591   4.242   4.050  17.105 -0.4748  0.1552  1.1345
10726TIP3   OH253592   4.474   0.772  17.203 -0.2331  0.3361 -0.1870
10726TIP3    H153593   4.534   0.772  17.278 -0.3835  0.5038 -0.0662
10726TIP3    H253594   4.457   0.865  17.186  0.5010  0.3401 -0.9857
10727TIP3   OH253595   4.763   3.294  13.323 -0.5972 -0.2760 -0.1467
10727TIP3    H153596   4.691   3.356  13.322  0.1754  0.6527  0.3364
10727TIP3    H253597   4.721   3.209  13.334 -1.5649  0.3816  1.7017
10728TIP3   OH253598   2.028   0.161  15.697  0.9522  0.1543  0.0406
10728TIP3    H153599   2.072   0.082  15.666  0.7093  0.5998 -1.5101
10728TIP3    H253600   2.092   0.203  15.755  2.4480  0.5467 -1.7923
10729TIP3   OH253601   0.686   4.211   6.816  0.5426  0.2486 -0.2598
10729TIP3    H153602   0.624   4.148   6.853  0.2221  0.9456  0.4030
10729TIP3    H253603   0.643   4.244   6.737 -0.4374  1.5250  0.7614
10730TIP3   OH253604   6.133   3.040  15.294 -0.6788 -0.1429 -1.0363
10730TIP3    H153605   6.194   2.969  15.313 -0.8349 -0.2176 -0.8163
10730TIP3    H253606   6.186   3.105  15.249 -0.6653 -0.6660 -1.8098
10731TIP3   OH253607   3.385   2.827  16.693  0.1146 -0.1145 -0.1150
10731TIP3    H153608   3.300   2.817  16.650 -1.0148  2.8199  1.1223
10731TIP3    H253609   3.363   2.836  16.786  1.7229  1.2008  0.1776
10732TIP3   OH253610   0.899   6.519   0.482 -0.3237 -0.2041  0.2602
10732TIP3    H153611   0.864   6.440   0.441  0.1811  0.8949 -2.5121
10732TIP3    H253612   0.884   6.506   0.575 -4.0887 -1.7120 -0.3773
10733TIP3   OH253613   3.078   3.359   3.595 -0.7677  0.0042 -0.5087
10733TIP3    H153614   3.137   3.394   3.662 -0.4897  2.0439 -1.7148
10733TIP3    H253615   3.119   3.383   3.512 -0.6781 -3.1709 -1.4952
10734TIP3   OH253616   4.280   2.808   5.896  0.2325 -0.2957 -0.1120
10734TIP3    H153617   4.309   2.734   5.951 -2.7184 -0.6129  1.1994
10734TIP3    H253618   4.186   2.796   5.887  0.1046  1.6681 -2.5008
10735TIP3   OH253619   1.159   3.512  17.616 -0.0233  0.0779  0.1862
10735TIP3    H153620   1.243   3.545  17.583 -0.2795  0.2214 -0.3306
10735TIP3    H253621   1.099   3.587  17.609 -0.1823 -0.0059  0.6074
10736TIP3   OH253622   2.020   1.574  14.437 -0.2029  0.2778 -0.2084
10736TIP3    H153623   2.093   1.635  14.450  0.8972 -0.9958 -0.1677
10736TIP3    H253624   1.962   1.588  14.511  1.7411 -1.0328  1.6963
10737TIP3   OH253625   3.370   3.452   3.961  0.2747  0.8749 -0.0536
10737TIP3    H153626   3.447   3.395   3.971  0.3528  0.7800 -1.0786
10737TIP3    H253627   3.392   3.531   4.011 -1.1093 -1.1111  4.1275
10738TIP3   OH253628   6.124   6.286   3.950 -0.3425 -0.1154 -0.0252
10738TIP3    H153629   6.162   6.342   4.018 -0.4460 -0.3940  0.2659
10738TIP3    H253630   6.032   6.279   3.973  0.2069 -3.0322  1.8432
10739TIP3   OH253631   4.090   5.123  14.439 -0.2980  0.2454 -0.3298
10739TIP3    H153632   4.122   5.213  14.433 -0.4592  0.5124  1.9145
10739TIP3    H253633   4.134   5.077  14.368  2.5246  1.3400  0.5807
10740TIP3   OH253634   5.279   3.633  11.278  0.2245 -0.0673  0.5852
10740TIP3    H153635   5.227   3.655  11.200  0.3795 -1.5554  0.0219
10740TIP3    H253636   5.361   3.681  11.265 -1.3051  3.2726  2.0630
10741TIP3   OH253637   4.060   6.211   1.971  0.2910  0.7455  0.0970
10741TIP3    H153638   4.018   6.131   2.003 -1.1041  1.6742  0.6845
10741TIP3    H253639   4.122   6.180   1.905 -1.7573 -0.7051 -1.3032
10742TIP3   OH253640   4.627   3.448   2.712  0.2092 -0.0778  0.0491
10742TIP3    H153641   4.644   3.484   2.799 -0.2962  0.4794 -0.0712
10742TIP3    H253642   4.612   3.355   2.728 -2.8273  0.4596  1.0138
10743TIP3   OH253643   1.106   1.608  12.558  0.2827  0.5152 -0.2358
10743TIP3    H153644   1.034   1.671  12.551 -0.5033 -0.3798 -0.4880
10743TIP3    H253645   1.126   1.584  12.468  1.0930  0.9534 -0.1820
10744TIP3   OH253646   5.156   0.795   1.736  0.2670 -0.4146  0.0398
10744TIP3    H153647   5.112   0.832   1.813  0.4604 -1.9649  0.9370
10744TIP3    H253648   5.246   0.826   1.744  0.2577 -0.4626  0.3625
10745TIP3   OH253649   2.940   0.752  13.914 -0.0073  0.0893 -0.1813
10745TIP3    H153650   2.935   0.672  13.965  1.5131  0.5182  0.7130
10745TIP3    H253651   3.033   0.760  13.891 -0.3765  0.8076 -1.5785
10746TIP3   OH253652   3.007   1.554   2.006 -0.7555  0.0879  0.0488
10746TIP3    H153653   2.942   1.613   2.044 -1.0578 -0.6861  0.7783
10746TIP3    H253654   3.038   1.598   1.927 -0.8834  1.2723  0.6419
10747TIP3   OH253655   4.019   6.552  12.391 -0.0332 -0.1488 -0.6020
10747TIP3    H153656   4.044   6.462  12.413  1.2088  0.1701 -0.6403
10747TIP3    H253657   3.924   6.549  12.382 -0.7742 -0.4601  4.3836
10748TIP3   OH253658   3.612   2.932   2.410  0.6005  0.0267 -0.1261
10748TIP3    H153659   3.540   2.919   2.348  0.2789 -1.0642  0.4522
10748TIP3    H253660   3.657   3.010   2.378 -0.6826  0.5851 -0.6551
10749TIP3   OH253661   5.200   0.178  15.052 -0.3454 -0.4987 -0.4495
10749TIP3    H153662   5.171   0.220  15.133 -1.4427 -1.6652 -0.1933
10749TIP3    H253663   5.120   0.137  15.017  0.5554 -1.8913 -0.9449
10750TIP3   OH253664   3.672   5.940   1.025  0.5716  0.0813  0.1188
10750TIP3    H153665   3.649   6.001   0.955 -1.4982  0.5072  1.0986
10750TIP3    H253666   3.611   5.867   1.015  1.8137 -0.9828  0.0794
10751TIP3   OH253667   3.994   5.229   3.801 -0.3195  0.5994  0.6421
10751TIP3    H153668   3.932   5.282   3.852  0.5941  0.6149  1.7799
10751TIP3    H253669   4.074   5.282   3.799  0.0496  0.0282  0.2670
10752TIP3   OH253670   2.961   0.070  12.674  0.4154 -0.3900  0.3079
10752TIP3    H153671   3.051   0.090  12.648  0.2145  0.7731  0.4401
10752TIP3    H253672   2.911   0.079  12.593  0.2552  0.0921  0.4587
10753TIP3   OH253673   0.074   5.969  12.181 -0.0057  0.3463  0.5549
10753TIP3    H153674   0.102   6.019  12.258 -2.0520  0.5621  1.2168
10753TIP3    H253675  -0.005   6.013  12.150  0.3719 -0.1639 -1.2697
10754TIP3   OH253676   6.185   5.866   3.259  0.0484  0.2085 -0.2973
10754TIP3    H153677   6.278   5.851   3.243  0.1142 -0.9794  0.9608
10754TIP3    H253678   6.176   5.961   3.263  1.4801  0.3328  0.8520
10755TIP3   OH253679   2.661   5.233   2.362  0.4521 -0.1132  0.0522
10755TIP3    H153680   2.690   5.233   2.453  0.3153  3.0935  0.2003
10755TIP3    H253681   2.742   5.238   2.311  0.4749 -0.3094  0.0696
10756TIP3   OH253682   2.884   3.055   4.901  0.0440  0.7907 -0.2076
10756TIP3    H153683   2.969   3.050   4.856  0.5992 -1.1216  0.9542
10756TIP3    H253684   2.874   3.147   4.922  2.2687  0.9680  0.3710
10757TIP3   OH253685   4.149   5.261   2.103 -0.3823 -0.1523  0.2520
10757TIP3    H153686   4.122   5.300   2.020 -1.4355  1.4776  1.3114
10757TIP3    H253687   4.076   5.204   2.128  0.3153 -1.3496 -0.3332
10758TIP3   OH253688   2.123   4.049  17.059  0.0192  0.0336  0.1177
10758TIP3    H153689   2.170   4.061  16.977  2.2844 -0.7696  1.2021
10758TIP3    H253690   2.098   3.956  17.060  2.1575 -0.5851  1.3256
10759TIP3   OH253691   5.320   3.486  14.719  0.0142 -0.4113 -0.1012
10759TIP3    H153692   5.406   3.446  14.708  0.5749  0.7018  0.0582
10759TIP3    H253693   5.335   3.558  14.780 -1.1176 -0.4476  0.2468
10760TIP3   OH253694   2.632   5.103  12.033  0.5655  0.3903 -0.5914
10760TIP3    H153695   2.540   5.116  12.011  0.9325  1.0788 -1.8217
10760TIP3    H253696   2.674   5.087  11.949  1.8085  1.6306 -0.2451
10761TIP3   OH253697   6.520   2.419  16.082 -0.1827  0.8519 -0.6503
10761TIP3    H153698   6.491   2.378  16.001  0.3793  0.3365 -0.6001
10761TIP3    H253699   6.445   2.415  16.141  0.4460 -2.0027  0.0789
10762TIP3   OH253700   2.317   4.624  14.047 -0.0865 -0.0556  0.4158
10762TIP3    H153701   2.284   4.548  13.999 -1.6393  0.9113 -0.1149
10762TIP3    H253702   2.303   4.602  14.140 -1.7749  0.1098  0.2187
10763TIP3   OH253703   4.235   5.060  14.718 -0.5256 -0.1652  0.0297
10763TIP3    H153704   4.328   5.065  14.738 -0.6839  0.1662  0.7271
10763TIP3    H253705   4.231   5.028  14.628  0.2946  1.2830 -0.5422
10764TIP3   OH253706   4.997   6.126  15.253  0.0582  0.0142  0.9590
10764TIP3    H153707   5.039   6.043  15.273 -0.0374 -0.6672 -1.3428
10764TIP3    H253708   5.064   6.192  15.270  1.2511 -0.8355 -0.2095
10765TIP3   OH253709   5.395   4.302  12.794  0.3424 -0.0924  0.0995
10765TIP3    H153710   5.480   4.279  12.831 -0.4862 -0.2185  2.0342
10765TIP3    H253711   5.409   4.298  12.700  1.7650 -2.8728  0.3063
10766TIP3   OH253712   5.200   6.177  17.264 -0.5802  0.0326  0.1556
10766TIP3    H153713   5.148   6.097  17.257  0.5997 -0.8376  0.8905
10766TIP3    H253714   5.231   6.193  17.175 -0.2256 -0.7773  0.1187
10767TIP3   OH253715   1.748   1.350   5.917  0.1112  0.3608  0.5030
10767TIP3    H153716   1.763   1.257   5.935  0.3564  0.5376  1.2255
10767TIP3    H253717   1.836   1.388   5.914  0.0326  0.5036 -0.1937
10768TIP3   OH253718   2.939   6.054  16.632 -0.0427 -0.1033 -0.2200
10768TIP3    H153719   2.885   6.026  16.706  0.1551  2.2120  0.8572
10768TIP3    H253720   3.029   6.043  16.662  0.0424  0.5214 -0.2434
10769TIP3   OH253721   1.840   0.239   5.278  0.7597 -0.6161 -0.8546
10769TIP3    H153722   1.825   0.270   5.367  1.7407 -2.9044  0.1894
10769TIP3    H253723   1.832   0.317   5.224  2.0425  1.2215  1.4366
10770TIP3   OH253724   4.288   3.582   4.599 -0.0733  0.6364  0.0746
10770TIP3    H153725   4.354   3.638   4.556 -0.9099 -0.1574 -2.4320
10770TIP3    H253726   4.252   3.637   4.668  0.7163  2.3810 -0.8232
10771TIP3   OH253727   6.652   3.482  16.052 -0.2899  0.2065 -0.2108
10771TIP3    H153728   6.743   3.499  16.027 -0.3593  2.3668  0.7578
10771TIP3    H253729   6.659   3.435  16.135 -0.0631 -0.1766 -0.4444
10772TIP3   OH253730   0.320   0.339   6.795  0.6360  0.3581  0.7515
10772TIP3    H153731   0.271   0.274   6.745  0.3304  0.8765  0.3686
10772TIP3    H253732   0.339   0.296   6.879  1.2114 -0.5443  0.1735
10773TIP3   OH253733   4.124   0.358  14.446  0.0087  0.4021 -0.3926
10773TIP3    H153734   4.208   0.404  14.448  0.1887  0.0623  0.0847
10773TIP3    H253735   4.124   0.309  14.364  1.8377 -2.4288  1.1306
10774TIP3   OH253736   4.828   0.391   7.100 -0.5076 -0.0571  0.0601
10774TIP3    H153737   4.742   0.420   7.130 -0.9659  0.9949 -2.0508
10774TIP3    H253738   4.883   0.469   7.105  0.1748 -0.5667  0.7886
10775TIP3   OH253739   4.460   5.418   0.604 -0.3137 -0.1065  0.0783
10775TIP3    H153740   4.462   5.385   0.694 -0.7077 -0.0065  0.1271
10775TIP3    H253741   4.552   5.421   0.577 -0.2923 -2.1986 -0.2829
10776TIP3   OH253742   3.362   2.537   5.124  0.2845 -0.8828 -0.3356
10776TIP3    H153743   3.344   2.607   5.061 -0.8615  0.5667  1.4877
10776TIP3    H253744   3.448   2.559   5.159  0.4408 -1.0667 -0.6000
10777TIP3   OH253745   2.807   0.482   0.158  0.0365  0.6337 -0.0795
10777TIP3    H153746   2.876   0.493   0.224 -0.9861  0.1741  1.0900
10777TIP3    H253747   2.768   0.397   0.178 -1.2192  1.1179 -0.3797
10778TIP3   OH253748   2.177   0.812   3.696 -0.6485 -0.1719 -0.9238
10778TIP3    H153749   2.183   0.720   3.723  1.1678 -0.8719 -3.3446
10778TIP3    H253750   2.222   0.860   3.765 -0.0241 -1.3266 -0.4937
10779TIP3   OH253751   0.997   2.466  12.086  0.0536 -0.2367  0.1350
10779TIP3    H153752   0.934   2.432  12.149 -0.0200  0.2004  0.2980
10779TIP3    H253753   1.080   2.424  12.111  0.7926  2.4287  2.6881
10780TIP3   OH253754   0.855   5.876   4.469  0.2853  0.2584 -0.5167
10780TIP3    H153755   0.830   5.810   4.532 -0.7212  0.2307 -0.9175
10780TIP3    H253756   0.781   5.937   4.468 -0.2625 -0.3660 -2.4841
10781TIP3   OH253757   5.561   4.386   1.699 -0.3202  0.0643  0.8265
10781TIP3    H153758   5.517   4.419   1.778  2.0066  1.5804  1.6330
10781TIP3    H253759   5.589   4.298   1.722  0.9249  0.7289  2.0441
10782TIP3   OH253760   0.921   4.034  13.067 -0.2334 -0.1039 -1.0019
10782TIP3    H153761   0.993   3.986  13.025 -0.9291 -0.3510 -1.9590
10782TIP3    H253762   0.963   4.112  13.104  0.5785 -0.3915 -1.2816
10783TIP3   OH253763   5.982   6.091   2.290 -0.3113 -0.1500  0.0811
10783TIP3    H153764   6.027   6.085   2.206 -0.3862  1.2632 -0.0840
10783TIP3    H253765   5.994   6.181   2.318  1.1504 -0.9712  2.4194
10784TIP3   OH253766   4.030   4.632  16.032  0.6123 -0.2897  0.2566
10784TIP3    H153767   3.990   4.562  16.083  1.8037 -0.6123  0.7735
10784TIP3    H253768   3.956   4.683  15.999 -0.2079  0.2598  2.7549
10785TIP3   OH253769   2.436   4.469  13.803 -0.0043 -0.1933  0.5016
10785TIP3    H153770   2.516   4.490  13.851  0.1128  0.0604  0.2040
10785TIP3    H253771   2.390   4.407  13.859  0.5463 -0.5766  0.5428
10786TIP3   OH253772   5.633   5.257  12.701 -0.9495 -0.6046  0.0102
10786TIP3    H153773   5.646   5.208  12.783  0.6434  0.0015  0.1544
10786TIP3    H253774   5.587   5.337  12.728  1.5878  0.6974  0.7540
10787TIP3   OH253775   6.609   4.710  13.160  0.5261 -0.4253 -0.7098
10787TIP3    H153776   6.636   4.702  13.252 -1.0774 -0.1104 -0.1721
10787TIP3    H253777   6.601   4.620  13.129 -0.6311 -0.5949  0.0201
10788TIP3   OH253778   2.901   5.871   5.311  0.0022  0.1103  0.4725
10788TIP3    H153779   2.905   5.791   5.259  0.7856  1.6520 -2.0391
10788TIP3    H253780   2.810   5.874   5.343 -0.0030 -1.8009  0.7344
10789TIP3   OH253781   2.292   4.482   6.423 -0.2217 -0.2805 -0.1955
10789TIP3    H153782   2.284   4.387   6.426  2.9260 -0.6921 -0.6562
10789TIP3    H253783   2.205   4.515   6.445 -1.0738 -3.2265  1.3180
10790TIP3   OH253784   6.142   2.249   2.802  0.5694  0.9932 -0.0319
10790TIP3    H153785   6.180   2.306   2.735 -1.4107  0.5401 -1.6509
10790TIP3    H253786   6.048   2.268   2.799  0.2036 -0.3970  1.3242
10791TIP3   OH253787   0.961   5.897   3.360  0.0771 -0.2637  0.4743
10791TIP3    H153788   0.956   5.920   3.267  1.3407  2.5288  0.9809
10791TIP3    H253789   1.014   5.818   3.363  1.9137  0.8085 -1.1133
10792TIP3   OH253790   0.259   4.479   2.543 -0.3929  0.4452  0.6559
10792TIP3    H153791   0.234   4.525   2.463 -1.7455  0.2620  0.9407
10792TIP3    H253792   0.292   4.394   2.512  0.7723  1.0399  0.2121
10793TIP3   OH253793   1.269   3.050  11.441 -0.4484  0.0084 -0.1709
10793TIP3    H153794   1.244   3.126  11.390  0.2301 -1.1503 -2.3453
10793TIP3    H253795   1.359   3.032  11.415 -0.6818 -1.6983  0.0833
10794TIP3   OH253796   2.266   3.706  13.211 -0.1083 -0.3669 -0.5589
10794TIP3    H153797   2.286   3.641  13.278 -3.3325  0.6303  1.5898
10794TIP3    H253798   2.289   3.790  13.252 -1.5082  0.2164 -0.9165
10795TIP3   OH253799   5.295   3.664  13.975 -0.3566 -0.2614  0.2073
10795TIP3    H153800   5.303   3.722  13.899 -1.9704 -1.0279 -0.5991
10795TIP3    H253801   5.233   3.709  14.033  1.4001  0.6644  1.4779
10796TIP3   OH253802   0.850   5.819  11.093  0.3571 -0.4171 -0.4359
10796TIP3    H153803   0.768   5.848  11.132  0.9772 -0.6583  1.1317
10796TIP3    H253804   0.902   5.898  11.085  0.2381 -0.3711 -0.7482
10797TIP3   OH253805   5.783   2.809   2.211  0.6755  0.2443  0.8858
10797TIP3    H153806   5.719   2.862   2.258  0.7397  0.4029  0.7984
10797TIP3    H253807   5.867   2.852   2.228  0.9218 -0.5907  1.9056
10798TIP3   OH253808   3.634   3.901   1.937 -0.0840  0.3257 -0.3807
10798TIP3    H153809   3.549   3.931   1.905  0.3782  0.9216 -1.0816
10798TIP3    H253810   3.653   3.957   2.012 -0.0962  0.5174 -0.5187
10799TIP3   OH253811   2.667   4.998  13.981 -0.1819  0.7598  0.4121
10799TIP3    H153812   2.590   4.948  13.953  0.6957 -0.1556 -0.4494
10799TIP3    H253813   2.704   4.945  14.052  0.4239  0.4644 -0.1127
10800TIP3   OH253814   0.713   0.926  11.794 -0.3122  0.1152  0.2318
10800TIP3    H153815   0.641   0.869  11.768  0.1598 -0.4212  0.0763
10800TIP3    H253816   0.672   0.994  11.847 -1.1476  0.6406 -1.0231
10801TIP3   OH253817   5.051   4.921  13.547  0.0304 -0.4118 -0.2993
10801TIP3    H153818   5.009   4.836  13.532  0.3225 -0.5709 -0.2235
10801TIP3    H253819   5.032   4.971  13.468 -0.8156 -0.2673 -0.0112
10802TIP3   OH253820   2.988   2.578   4.759  0.3509 -0.1709 -0.1369
10802TIP3    H153821   2.898   2.558   4.735 -0.0882  0.9499  0.4817
10802TIP3    H253822   3.012   2.651   4.701  0.8345 -0.4077 -0.2416
10803TIP3   OH253823   6.020   3.604   0.471 -0.1711 -0.3307  0.3039
10803TIP3    H153824   6.021   3.553   0.552 -2.0822 -1.1471 -0.1323
10803TIP3    H253825   6.029   3.539   0.402 -3.1134 -0.2549 -0.2809
10804TIP3   OH253826   0.829   2.726   5.123  0.3640  0.8281  0.2921
10804TIP3    H153827   0.776   2.806   5.119 -0.0865  0.5900  1.1788
10804TIP3    H253828   0.780   2.668   5.180  1.2352  0.3339  0.5552
10805TIP3   OH253829   2.731   2.001  15.584 -0.5989  0.0513 -0.1718
10805TIP3    H153830   2.671   2.075  15.572  2.7347  2.8477 -1.3312
10805TIP3    H253831   2.775   2.020  15.667 -0.0943 -0.9897 -0.1912
10806TIP3   OH253832   1.339   5.931  11.565 -0.1001 -0.3108 -0.5151
10806TIP3    H153833   1.302   5.944  11.653 -2.7205 -1.7762 -1.2893
10806TIP3    H253834   1.433   5.930  11.579 -0.2630  2.6115  1.7983
10807TIP3   OH253835   4.422   2.500   6.673  0.9112 -0.8705  0.0470
10807TIP3    H153836   4.338   2.489   6.717  0.7577 -0.3711 -0.1267
10807TIP3    H253837   4.484   2.516   6.744  0.3368  2.0323 -0.0014
10808TIP3   OH253838   5.210   4.351   3.681  0.9758  0.6023 -0.5742
10808TIP3    H153839   5.122   4.360   3.719  0.5885 -0.5645 -1.1280
10808TIP3    H253840   5.201   4.385   3.592  0.7116 -0.7452 -1.0870
10809TIP3   OH253841   0.557   5.914  15.573  0.6284  0.1101  0.1805
10809TIP3    H153842   0.633   5.857  15.568 -0.0170 -0.8787  0.9777
10809TIP3    H253843   0.531   5.911  15.665 -1.6785 -1.4057 -0.4299
10810TIP3   OH253844   1.301   0.433   4.296  0.1659 -0.1280 -0.3334
10810TIP3    H153845   1.285   0.404   4.206  1.4827  1.3755 -1.1109
10810TIP3    H253846   1.334   0.356   4.341 -0.4429 -0.8844 -1.1617
10811TIP3   OH253847   3.406   4.033  12.850  0.3951  0.3293 -0.2294
10811TIP3    H153848   3.448   3.983  12.920  0.1364  2.3275  1.4668
10811TIP3    H253849   3.462   4.019  12.774  0.2035 -2.6361  0.0888
10812TIP3   OH253850   3.605   5.487  15.481 -0.3783 -0.4034 -0.2937
10812TIP3    H153851   3.588   5.487  15.575 -2.1093 -1.5236 -0.5463
10812TIP3    H253852   3.519   5.507  15.442  0.3040  0.0080 -1.6406
10813TIP3   OH253853   1.657   3.285   1.900 -0.6079  0.3756  0.9866
10813TIP3    H153854   1.752   3.290   1.912 -0.5454 -1.2657  1.3926
10813TIP3    H253855   1.646   3.264   1.808 -0.6857  2.3703  0.4903
10814TIP3   OH253856   0.184   3.345   0.679 -0.2765 -0.6141  0.2470
10814TIP3    H153857   0.238   3.423   0.673 -0.4902 -0.5338 -0.8878
10814TIP3    H253858   0.237   3.282   0.728  0.9504 -0.6118 -1.0021
10815TIP3   OH253859   2.566   1.045   0.688 -0.0756 -0.5576  0.7329
10815TIP3    H153860   2.494   0.982   0.689  0.1685 -0.9224 -0.9684
10815TIP3    H253861   2.548   1.099   0.611 -0.5120  1.7789  2.3521
10816TIP3   OH253862   5.223   6.089  16.659 -0.6516 -0.2203  0.4629
10816TIP3    H153863   5.307   6.048  16.679 -1.0277 -0.0865  2.5564
10816TIP3    H253864   5.246   6.168  16.611  0.3963 -0.4352  0.5825
10817TIP3   OH253865   0.646   0.459   5.429 -0.6373  0.7627 -0.1488
10817TIP3    H153866   0.564   0.410   5.421 -0.0019 -0.6075  1.1148
10817TIP3    H253867   0.697   0.410   5.494  2.2959 -0.0107 -2.7781
10818TIP3   OH253868   3.115   4.485  13.786  0.1142  0.6819  0.5503
10818TIP3    H153869   3.071   4.506  13.704  0.6664  1.1850  0.3754
10818TIP3    H253870   3.102   4.390  13.797 -0.6299  0.7528  0.2887
10819TIP3   OH253871   3.933   0.877   3.732  0.0260 -0.2172 -0.0780
10819TIP3    H153872   3.849   0.850   3.695  1.0370 -0.7045 -2.1394
10819TIP3    H253873   3.954   0.959   3.686  0.6967 -0.1188  0.3942
10820TIP3   OH253874   5.687   0.079   1.608 -0.3045 -0.4280 -0.8484
10820TIP3    H153875   5.618   0.026   1.568 -0.8868 -0.2631 -0.0904
10820TIP3    H253876   5.762   0.070   1.549 -1.1105 -0.2548 -1.9361
10821TIP3   OH253877   3.713   4.018   2.392  0.0714  0.2836 -0.1621
10821TIP3    H153878   3.728   3.927   2.369 -1.1684  0.2329 -0.8332
10821TIP3    H253879   3.800   4.059   2.386  0.7685 -0.9909  0.8876
10822TIP3   OH253880   5.704   3.617   0.978  0.1165 -0.4407 -0.0956
10822TIP3    H153881   5.655   3.693   1.009  0.8637 -0.1824  0.4853
10822TIP3    H253882   5.692   3.552   1.047  0.1077 -0.5863 -0.2335
10823TIP3   OH253883   4.164   1.958   0.440 -0.3843  0.1453 -0.4261
10823TIP3    H153884   4.220   1.918   0.506 -0.5999  2.2868  1.1755
10823TIP3    H253885   4.193   2.049   0.436 -1.1139  0.3299 -2.5316
10824TIP3   OH253886   6.628   4.516  14.317  0.0084 -0.0169  0.3710
10824TIP3    H153887   6.671   4.549  14.396  0.3150  0.2421  0.0962
10824TIP3    H253888   6.634   4.587  14.254 -2.2619  0.6733  0.8165
10825TIP3   OH253889   3.092   2.783   5.278 -0.3469 -0.4324  0.1339
10825TIP3    H153890   3.048   2.746   5.201  0.0511  1.0170 -0.8255
10825TIP3    H253891   3.184   2.783   5.255 -0.2306  0.0965  0.5884
10826TIP3   OH253892   1.125   1.200   6.757  0.8036 -0.0943 -0.0136
10826TIP3    H153893   1.047   1.229   6.805  0.0028 -1.4792 -0.4358
10826TIP3    H253894   1.149   1.117   6.799  1.4817 -0.1645 -0.5255
10827TIP3   OH253895   3.103   4.949  16.907 -0.0569 -0.0796 -0.4183
10827TIP3    H153896   3.088   5.012  16.977  0.3123  2.1687 -2.2175
10827TIP3    H253897   3.018   4.938  16.866  0.0990  0.1968 -0.8256
10828TIP3   OH253898   3.868   0.480   6.435 -0.0201  0.4558 -0.3339
10828TIP3    H153899   3.818   0.558   6.411 -0.5492  0.5586  1.0027
10828TIP3    H253900   3.802   0.411   6.444 -0.1005  0.7863  2.2538
10829TIP3   OH253901   5.263   1.569   5.225 -0.0237 -0.1675 -0.0679
10829TIP3    H153902   5.338   1.622   5.250  0.2318 -0.7650  0.4517
10829TIP3    H253903   5.286   1.480   5.251 -0.1555 -0.6716 -1.5575
10830TIP3   OH253904   0.021   6.307   0.213  0.7683 -0.3991  0.1021
10830TIP3    H153905  -0.059   6.360   0.209 -0.1175 -1.7841 -1.7447
10830TIP3    H253906   0.008   6.250   0.289 -0.5279 -1.3575 -0.8048
10831TIP3   OH253907   4.859   0.855  14.456  0.2005  0.9311 -0.0902
10831TIP3    H153908   4.858   0.922  14.388 -0.6479  1.4897  0.4659
10831TIP3    H253909   4.781   0.802  14.440  0.4397  0.5586 -0.0449
10832TIP3   OH253910   2.113   5.390  15.931 -0.6506 -0.3996  0.0200
10832TIP3    H153911   2.189   5.388  15.989 -0.7925  0.0052  0.2242
10832TIP3    H253912   2.038   5.405  15.989 -0.9132 -1.0106 -0.1600
10833TIP3   OH253913   4.083   0.038   1.896 -0.1118 -0.3324 -0.5526
10833TIP3    H153914   4.153  -0.027   1.888 -1.3469 -1.5616 -2.2116
10833TIP3    H253915   4.104   0.104   1.829  0.1057 -0.0676 -0.2215
10834TIP3   OH253916   4.185   5.665  11.799 -0.4860 -0.3190  0.4450
10834TIP3    H153917   4.162   5.573  11.805 -0.3551 -0.3540  0.4269
10834TIP3    H253918   4.146   5.705  11.877 -0.0975 -0.4875  0.7292
10835TIP3   OH253919   1.938   2.814  12.540  0.2671 -0.3345  0.3246
10835TIP3    H153920   1.923   2.870  12.464 -0.8416  0.9493  1.4091
10835TIP3    H253921   2.003   2.750  12.512  1.9657  1.7922 -0.8562
10836TIP3   OH253922   2.576   4.846   2.174  0.2557  0.5569 -0.3622
10836TIP3    H153923   2.664   4.812   2.189 -0.3900 -1.0125  0.0205
10836TIP3    H253924   2.562   4.908   2.246  0.6320 -0.0391  0.2355
10837TIP3   OH253925   0.250   5.588  11.132 -0.3641 -0.3562 -0.2937
10837TIP3    H153926   0.203   5.511  11.101  0.1454 -0.7471 -0.1010
10837TIP3    H253927   0.276   5.635  11.053  0.2401 -0.9355 -0.4419
10838TIP3   OH253928   3.374   0.672  14.962  0.3741 -0.0554  0.2249
10838TIP3    H153929   3.369   0.629  14.877  0.1550 -1.1545  0.7764
10838TIP3    H253930   3.439   0.742  14.950  1.4882 -1.1627 -0.4293
10839TIP3   OH253931   3.361   6.502  12.053 -0.1299  0.1948 -0.3702
10839TIP3    H153932   3.457   6.495  12.057 -0.0589  0.9972 -0.5627
10839TIP3    H253933   3.345   6.563  11.981 -0.7922  0.0286 -0.3643
10840TIP3   OH253934   2.454   2.708   3.479  0.0004  0.6946  0.0736
10840TIP3    H153935   2.374   2.715   3.530 -0.6557 -0.7233 -0.7116
10840TIP3    H253936   2.497   2.629   3.511 -0.8006 -0.6670 -1.9784
10841TIP3   OH253937   6.298   3.208  15.130  0.6535 -0.2286 -0.0176
10841TIP3    H153938   6.283   3.295  15.166 -0.1137 -0.4532  0.2290
10841TIP3    H253939   6.251   3.207  15.047  1.1372 -0.2195 -0.2934
10842TIP3   OH253940   3.399   4.266   2.807 -0.0261 -0.8341  0.0080
10842TIP3    H153941   3.386   4.342   2.751 -2.0021 -0.8413  0.3940
10842TIP3    H253942   3.439   4.201   2.749 -0.4151 -0.2590 -0.9371
10843TIP3   OH253943   5.226   0.699  12.143  0.3121  0.0835 -0.3940
10843TIP3    H153944   5.238   0.793  12.154 -0.3650  0.0656  0.5652
10843TIP3    H253945   5.314   0.662  12.156  0.3128  0.4500  0.7378
10844TIP3   OH253946   1.070   5.646  11.234 -0.7726  0.2842  0.2483
10844TIP3    H153947   1.015   5.580  11.190 -0.3558  0.0267  0.1035
10844TIP3    H253948   1.051   5.727  11.188 -2.2245  0.5308  1.2315
10845TIP3   OH253949   2.457   2.291   4.399 -0.0369  0.4036  0.8688
10845TIP3    H153950   2.462   2.311   4.305  3.1676 -2.2199  0.2952
10845TIP3    H253951   2.412   2.367   4.437 -0.2450  2.2195 -2.5592
10846TIP3   OH253952   4.755   0.087  14.654 -0.4303 -0.8108  0.1161
10846TIP3    H153953   4.836   0.042  14.680  1.7023  1.8856 -1.2968
10846TIP3    H253954   4.785   0.163  14.605 -3.7695  1.6297  1.4851
10847TIP3   OH253955   4.119   5.683   2.141 -0.1719 -0.6120  0.1024
10847TIP3    H153956   4.174   5.688   2.219 -0.2073  0.8366  0.0774
10847TIP3    H253957   4.074   5.599   2.148 -1.1013 -0.0135  2.2922
10848TIP3   OH253958   1.688   3.020  12.165 -0.9721  0.0471 -0.0281
10848TIP3    H153959   1.710   3.009  12.073 -0.7320 -0.8473  0.1223
10848TIP3    H253960   1.635   3.100  12.168  0.2545  0.9182 -0.7169
10849TIP3   OH253961   0.015   2.317  13.255  0.1690  0.2274 -0.6753
10849TIP3    H153962  -0.067   2.320  13.306 -0.1059 -0.6141 -1.0354
10849TIP3    H253963   0.001   2.245  13.193  0.5494  1.1389 -1.8591
10850TIP3   OH253964   0.817   2.912   5.553 -0.9812 -0.1622  0.1308
10850TIP3    H153965   0.855   2.898   5.640 -0.9787 -0.9695  0.0034
10850TIP3    H253966   0.890   2.897   5.493 -1.1304 -0.1813 -0.0449
10851TIP3   OH253967   2.043   1.661  13.821  0.1759  1.0018 -0.2409
10851TIP3    H153968   2.037   1.752  13.849 -1.4558  0.9047 -0.1443
10851TIP3    H253969   2.091   1.617  13.891 -0.1119  1.5624  0.3170
10852TIP3   OH253970   0.709   3.258   2.533 -0.7108  0.1590  0.5746
10852TIP3    H153971   0.727   3.221   2.447  2.1558  2.0277  0.2230
10852TIP3    H253972   0.647   3.329   2.516  1.1071  1.6157 -0.3209
10853TIP3   OH253973   5.098   2.254   5.242 -0.6150 -0.0116 -0.7332
10853TIP3    H153974   5.143   2.248   5.158 -2.0438  0.8762 -1.6069
10853TIP3    H253975   5.146   2.195   5.300 -0.4323 -1.7190 -2.5483
10854TIP3   OH253976   2.189   6.283   5.605  0.1911 -0.3461  0.8040
10854TIP3    H153977   2.155   6.370   5.583  2.1122  0.5789  1.2636
10854TIP3    H253978   2.204   6.286   5.699  0.0289 -1.2852  0.8652
10855TIP3   OH253979   4.416   2.641  12.418 -0.7890  0.0220 -0.3036
10855TIP3    H153980   4.475   2.712  12.440 -0.1958 -0.6828  0.4429
10855TIP3    H253981   4.342   2.651  12.479 -0.2735 -0.5249  0.4282
10856TIP3   OH253982   3.302   2.330  17.164 -0.3308  0.0721 -0.1913
10856TIP3    H153983   3.246   2.385  17.219 -0.0162  0.9601 -0.7498
10856TIP3    H253984   3.391   2.352  17.192 -0.1652  0.5669 -1.0790
10857TIP3   OH253985   5.271   6.341  13.564 -0.1177 -0.3652  0.2812
10857TIP3    H153986   5.206   6.296  13.511  0.3184  0.0410 -0.6050
10857TIP3    H253987   5.338   6.370  13.502  1.1786 -1.2233  1.2166
10858TIP3   OH253988   0.435   4.382  17.221 -0.6125 -0.0116  0.6338
10858TIP3    H153989   0.371   4.449  17.246 -1.2336 -0.7357  1.0364
10858TIP3    H253990   0.520   4.422  17.238 -0.9228 -0.6907  4.8206
10859TIP3   OH253991   0.645   3.764   3.581 -0.0081 -0.3993  0.1738
10859TIP3    H153992   0.652   3.858   3.593 -0.3153 -0.4091  0.4499
10859TIP3    H253993   0.672   3.727   3.665  2.0189 -0.6432 -0.5344
10860TIP3   OH253994   4.613   5.069  14.008 -0.8944  0.1161 -0.1252
10860TIP3    H153995   4.651   5.045  14.093  2.0446  0.7005 -1.1679
10860TIP3    H253996   4.552   5.140  14.028 -0.6245 -0.0676  1.5185
10861TIP3   OH253997   0.622   0.463   6.351  0.1629 -0.5628 -0.0120
10861TIP3    H153998   0.689   0.527   6.376 -0.0886 -0.3986  0.2361
10861TIP3    H253999   0.615   0.405   6.426  1.6315 -1.9405 -0.8690
10862TIP3   OH254000   5.506   6.610  16.543 -0.1728  0.5571  0.6987
10862TIP3    H154001   5.450   6.565  16.480  0.6001  0.2562  0.2032
10862TIP3    H254002   5.448   6.673  16.586 -0.9468  0.0564  0.4096
10863TIP3   OH254003   5.430   4.495   3.840  0.1781 -0.3631  0.1330
10863TIP3    H154004   5.404   4.446   3.918 -0.3939 -0.9350 -0.4005
10863TIP3    H254005   5.388   4.448   3.768 -1.0673  1.3586 -0.3362
10864TIP3   OH254006   3.005   6.183  17.252 -0.3746  0.5757 -0.5576
10864TIP3    H154007   3.055   6.114  17.297 -1.1726  0.1689 -0.2837
10864TIP3    H254008   2.979   6.143  17.169 -0.5074  0.6804 -0.5669
10865TIP3   OH254009   4.897   0.310   5.440 -0.6596  0.0178 -0.0521
10865TIP3    H154010   4.859   0.391   5.404 -0.2325  0.6740  0.9520
10865TIP3    H254011   4.829   0.243   5.424 -0.6741  0.3689 -1.6527
10866TIP3   OH254012   5.525   6.183  16.405  0.0202  0.0453 -0.1845
10866TIP3    H154013   5.549   6.090  16.403 -0.3807 -0.0589 -0.5013
10866TIP3    H254014   5.606   6.230  16.387  0.6476 -0.1497  1.8645
10867TIP3   OH254015   6.000   2.116  11.701  0.6510 -0.2489 -0.3517
10867TIP3    H154016   6.084   2.111  11.655 -0.3137 -1.5337 -2.0397
10867TIP3    H254017   5.939   2.153  11.637 -0.5985 -1.5540  0.0289
10868TIP3   OH254018   3.452   6.382  16.804 -0.2514 -0.1270  0.5906
10868TIP3    H154019   3.528   6.428  16.841  1.1693 -1.0673 -1.0066
10868TIP3    H254020   3.428   6.434  16.728 -1.5968  0.4566  1.3848
10869TIP3   OH254021   6.625   3.207   0.920  0.2758  0.5036 -0.8168
10869TIP3    H154022   6.587   3.284   0.878  0.4328  0.8097 -0.4115
10869TIP3    H254023   6.698   3.242   0.972  0.5107  0.0473 -0.8319
10870TIP3   OH254024   3.119   4.704   0.365 -0.1014  0.1551  0.0864
10870TIP3    H154025   3.039   4.754   0.347  1.7873  2.4538 -3.0002
10870TIP3    H254026   3.177   4.766   0.408  0.7887 -0.8035  0.2993
10871TIP3   OH254027   1.485   3.869   2.321 -0.4591  0.1202  0.2925
10871TIP3    H154028   1.550   3.938   2.313  0.9456 -1.2724 -1.0304
10871TIP3    H254029   1.510   3.820   2.399  0.2325 -0.5326 -0.3256
10872TIP3   OH254030   0.148   0.477  13.692  0.4467  0.3016 -0.4539
10872TIP3    H154031   0.234   0.436  13.699  0.6068  0.8702  1.5204
10872TIP3    H254032   0.166   0.568  13.667  0.2208 -0.1731 -2.5507
10873TIP3   OH254033   2.343   6.419  14.495  0.2624  0.0254 -0.0434
10873TIP3    H154034   2.265   6.391  14.543  0.1699  0.4371  0.0531
10873TIP3    H254035   2.396   6.341  14.487  0.0641 -0.1484  0.3229
10874TIP3   OH254036   2.670   4.781  12.607  0.5330  0.1719 -0.3973
10874TIP3    H154037   2.722   4.836  12.550 -0.6618  0.1644 -1.5460
10874TIP3    H254038   2.724   4.703  12.621  0.7519  0.0681 -1.7290
10875TIP3   OH254039   0.472   1.091  12.753 -0.0583 -0.1149  0.3686
10875TIP3    H154040   0.530   1.025  12.790 -0.7429  0.0434  1.7600
10875TIP3    H254041   0.483   1.082  12.658  0.3455 -1.7688  0.5464
10876TIP3   OH254042   3.136   5.049  11.885 -0.3970 -0.3884 -0.1167
10876TIP3    H154043   3.167   5.139  11.888  0.0421 -0.5371 -0.1071
10876TIP3    H254044   3.192   5.007  11.819 -0.3207 -0.7585  0.1819
10877TIP3   OH254045   3.785   1.819  14.517  0.2324  0.2517  0.7782
10877TIP3    H154046   3.853   1.805  14.583  0.6507  1.6154  0.6775
10877TIP3    H254047   3.760   1.911  14.528 -0.5821  0.1558 -0.1331
10878TIP3   OH254048   5.818   1.243   0.055  0.1979  0.0696 -0.4510
10878TIP3    H154049   5.741   1.195   0.085  0.4932  0.5962  1.2762
10878TIP3    H254050   5.842   1.201  -0.028 -2.1288  0.1090 -1.2262
10879TIP3   OH254051   2.523   0.641   5.018  0.2195 -0.1996 -0.7448
10879TIP3    H154052   2.549   0.563   4.968 -1.0882  0.4881 -2.6013
10879TIP3    H254053   2.578   0.638   5.096  2.2336 -1.4636 -2.0999
10880TIP3   OH254054   3.445   2.926  15.623  0.5440 -0.0001  0.6851
10880TIP3    H154055   3.413   2.930  15.713  1.1823 -0.9176  0.9585
10880TIP3    H254056   3.429   3.014  15.588 -0.4188  0.1399  1.4432
10881TIP3   OH254057   0.126   0.859  12.242  0.1339  0.4332  0.2186
10881TIP3    H154058   0.219   0.845  12.264  1.3921 -0.4182 -4.4863
10881TIP3    H254059   0.123   0.949  12.209 -0.4413  0.1085 -0.6298
10882TIP3   OH254060   2.113   4.382   0.542 -0.2322 -0.5011 -0.1637
10882TIP3    H154061   2.169   4.330   0.601 -0.2460 -0.4133 -0.0718
10882TIP3    H254062   2.046   4.419   0.600 -0.0746 -0.1747 -0.1869
10883TIP3   OH254063   4.982   0.942  10.786 -0.0395  0.5005  0.3808
10883TIP3    H154064   5.001   0.849  10.780 -1.4526 -0.0539  2.8987
10883TIP3    H254065   5.052   0.978  10.840  0.1093  0.7446  0.0249
10884TIP3   OH254066   5.269   4.953   4.236 -0.0127 -0.2585 -0.1362
10884TIP3    H154067   5.241   4.862   4.241  0.0777 -0.2700  0.1972
10884TIP3    H254068   5.221   4.990   4.162 -0.3235 -0.4813 -0.0442
10885TIP3   OH254069   4.847   2.104   1.301  0.2897  0.0797  0.3343
10885TIP3    H154070   4.872   2.019   1.266 -1.3132 -0.8464  1.3236
10885TIP3    H254071   4.755   2.114   1.277  0.7147  2.0852 -0.7550
10886TIP3   OH254072   5.489   1.039  13.335 -0.2507  0.5877 -0.0326
10886TIP3    H154073   5.445   1.121  13.315 -1.0998 -0.1408 -1.2863
10886TIP3    H254074   5.431   0.971  13.300  1.0042 -0.4875 -0.1073
10887TIP3   OH254075   5.011   5.065  15.249  0.4655 -0.6175  0.0067
10887TIP3    H154076   5.053   5.001  15.306 -1.4334 -1.2236  0.7875
10887TIP3    H254077   5.017   5.027  15.161 -0.1679 -1.6407  0.3880
10888TIP3   OH254078   1.493   0.459   5.973 -0.0467 -0.1100 -0.5816
10888TIP3    H154079   1.541   0.482   5.894  1.2695 -1.3310 -0.1889
10888TIP3    H254080   1.492   0.363   5.973 -0.5818 -0.1189  0.5586
10889TIP3   OH254081   1.651   0.927   0.451 -0.5577 -0.0716  0.0703
10889TIP3    H154082   1.576   0.881   0.489 -1.1370  1.0458  0.3236
10889TIP3    H254083   1.653   0.899   0.360 -1.1785 -0.2363  0.1033
10890TIP3   OH254084   3.818   5.856  16.865 -0.1608  0.4871 -0.1118
10890TIP3    H154085   3.819   5.853  16.770 -2.0783  1.8762 -0.2425
10890TIP3    H254086   3.808   5.949  16.886 -2.9591 -0.0221  1.2966
10891TIP3   OH254087   3.996   0.466   0.073 -0.2182  0.2974  0.2375
10891TIP3    H154088   4.030   0.480   0.162 -1.3848  0.8729  0.6109
10891TIP3    H254089   4.060   0.508   0.016  0.7542 -0.4198  0.7633
10892TIP3   OH254090   0.108   3.227   3.320 -0.2494  0.0774  0.4076
10892TIP3    H154091   0.169   3.157   3.299 -0.5930  0.0065 -0.4089
10892TIP3    H254092   0.142   3.266   3.401  0.5274 -0.3451  0.2928
10893TIP3   OH254093   5.808   3.077   5.205  0.5287 -0.5247  0.2453
10893TIP3    H154094   5.777   3.113   5.122 -0.2893  0.5333  0.9841
10893TIP3    H254095   5.898   3.109   5.213  0.5463 -0.4765 -0.1334
10894TIP3   OH254096   2.893   1.553   3.725 -0.1565 -0.1167 -0.1145
10894TIP3    H154097   2.853   1.561   3.812  0.6129 -2.5821  0.5397
10894TIP3    H254098   2.830   1.503   3.674 -0.7322  1.5627 -1.1288
10895TIP3   OH254099   6.703   4.831   2.484  0.7311  0.2410  0.0728
10895TIP3    H154100   6.797   4.837   2.464  0.6075  0.6631 -0.3945
10895TIP3    H254101   6.700   4.806   2.576  1.3133 -0.6855 -0.1441
10896TIP3   OH254102   3.289   2.613   1.681  0.6528  0.0352 -0.0212
10896TIP3    H154103   3.200   2.592   1.710  0.9564 -1.4593 -0.0485
10896TIP3    H254104   3.331   2.649   1.759  0.0019  0.8359 -0.0335
10897TIP3   OH254105   4.592   5.327   0.150  0.0111 -0.1751 -0.5625
10897TIP3    H154106   4.497   5.319   0.136 -0.3851 -1.5816  2.1261
10897TIP3    H254107   4.599   5.380   0.230  1.5236  0.1027 -0.8636
10898TIP3   OH254108   4.675   2.383   4.108 -0.1737 -0.2545 -0.5428
10898TIP3    H154109   4.717   2.411   4.190 -0.0814  4.3907 -1.8549
10898TIP3    H254110   4.602   2.329   4.136 -0.2300  1.2201  2.6782
10899TIP3   OH254111   4.205   5.384   3.816  0.2773 -0.0521  0.4707
10899TIP3    H154112   4.265   5.313   3.793  0.1532 -0.5620  1.6712
10899TIP3    H254113   4.257   5.443   3.871  0.2924  0.6613 -0.2746
10900TIP3   OH254114   2.394   3.374   0.977  0.0414 -0.2647 -0.1495
10900TIP3    H154115   2.402   3.469   0.984 -2.4567  0.1018 -1.2864
10900TIP3    H254116   2.427   3.341   1.061  1.2999  1.5392  0.1291
10901TIP3   OH254117   6.356   1.916  16.171  0.5689 -0.3636 -0.2398
10901TIP3    H154118   6.414   1.980  16.211  0.1179  0.8274 -1.4012
10901TIP3    H254119   6.372   1.925  16.077 -0.2003 -1.3021 -0.4787
10902TIP3   OH254120   6.661   5.292  14.505 -0.1508  0.0769 -0.2506
10902TIP3    H154121   6.663   5.373  14.455  0.3391  0.4041  0.2860
10902TIP3    H254122   6.692   5.317  14.592  0.5627 -0.7975 -0.2450
10903TIP3   OH254123   1.603   3.269  13.942  0.2140 -0.2508  0.0224
10903TIP3    H154124   1.615   3.174  13.934 -0.0832 -0.2928  0.0464
10903TIP3    H254125   1.571   3.296  13.856 -1.3739 -0.4451  0.5078
10904TIP3   OH254126   4.517   3.650   1.993 -0.1472 -0.0256 -0.9269
10904TIP3    H154127   4.471   3.695   1.921 -1.3971 -1.6094 -1.1772
10904TIP3    H254128   4.606   3.685   1.989 -1.1883  2.9438 -0.6188
10905TIP3   OH254129   5.488   2.413  15.342  0.7948  0.7163 -0.3696
10905TIP3    H154130   5.496   2.321  15.366  0.1939  0.7975  0.1642
10905TIP3    H254131   5.404   2.441  15.378  1.0776  1.5416 -0.3135
10906TIP3   OH254132   6.651   2.528   4.540  0.5125  0.3290  0.5603
10906TIP3    H154133   6.573   2.512   4.593  0.7045 -1.7673  0.2908
10906TIP3    H254134   6.627   2.496   4.453  2.3028 -2.4079  0.9542
10907TIP3   OH254135   1.748   3.572  15.598 -0.2604 -0.2891 -0.0467
10907TIP3    H154136   1.761   3.660  15.563  2.3386 -0.3885  0.4537
10907TIP3    H254137   1.765   3.581  15.692 -3.2224 -0.7761  0.6435
10908TIP3   OH254138   6.307   4.381   2.314  0.0498  0.0380 -0.1374
10908TIP3    H154139   6.320   4.476   2.309 -0.1551  0.0288 -1.2799
10908TIP3    H254140   6.267   4.358   2.230  2.3699 -1.4026 -0.9464
10909TIP3   OH254141   1.414   1.609   4.034  0.0319  0.2011 -0.3693
10909TIP3    H154142   1.419   1.544   4.105  2.1662  1.3506  0.6241
10909TIP3    H254143   1.320   1.624   4.022 -0.4230 -0.6472  1.6648
10910TIP3   OH254144   4.390   2.593   2.554 -0.1456 -0.1516  0.2052
10910TIP3    H154145   4.348   2.539   2.487  0.3413 -0.4492  0.1356
10910TIP3    H254146   4.356   2.682   2.538 -0.7603 -0.3881  0.1676
10911TIP3   OH254147   1.435   5.272  14.549  0.0015 -0.1947 -0.1369
10911TIP3    H154148   1.341   5.286  14.558 -0.1417 -0.3726 -1.1887
10911TIP3    H254149   1.467   5.353  14.509  0.3246 -0.0766  0.3526
10912TIP3   OH254150   4.030   4.492   4.859  0.1176 -0.3185  0.6480
10912TIP3    H154151   4.017   4.398   4.861 -2.4537 -0.0409  0.5351
10912TIP3    H254152   4.089   4.510   4.932  1.6639 -2.1040 -0.1006
10913TIP3   OH254153   3.701   3.079  17.348  0.2885  0.1134  0.1997
10913TIP3    H154154   3.746   3.138  17.288  0.9471 -0.2358  0.3434
10913TIP3    H254155   3.724   3.110  17.435 -1.0931  0.9437  0.2992
10914TIP3   OH254156   6.422   1.717  14.091 -0.7948  0.4288 -0.7635
10914TIP3    H154157   6.460   1.792  14.135  0.5641  1.5916 -3.6697
10914TIP3    H254158   6.328   1.736  14.088 -1.0200  0.0953  1.8092
10915TIP3   OH254159   3.751   6.164   1.819 -0.5431  0.1197  0.5456
10915TIP3    H154160   3.820   6.145   1.755 -1.8749  2.1091 -1.6565
10915TIP3    H254161   3.753   6.090   1.879  0.2976 -2.3442 -2.2709
10916TIP3   OH254162   3.594   0.946   3.221  0.2790 -0.0774 -0.5426
10916TIP3    H154163   3.547   0.977   3.298  1.6337 -0.0882  0.3156
10916TIP3    H254164   3.588   1.017   3.158 -1.6481 -0.4360 -0.8181
10917TIP3   OH254165   0.635   0.325   1.598 -0.3009  0.4648 -0.1348
10917TIP3    H154166   0.559   0.381   1.580  0.3045  0.9191 -1.3879
10917TIP3    H254167   0.664   0.297   1.511  1.7208  1.3018  0.2383
10918TIP3   OH254168   2.035   3.401  13.762  0.1688 -0.7005 -0.1111
10918TIP3    H154169   2.122   3.364  13.748  0.6944  0.2570  0.5111
10918TIP3    H254170   2.031   3.477  13.703 -0.8469 -1.6127 -1.2838
10919TIP3   OH254171   2.745   1.528   4.877  0.8882  0.3206  0.2627
10919TIP3    H154172   2.683   1.591   4.839  0.1499 -0.0648  0.8241
10919TIP3    H254173   2.727   1.446   4.831  0.3180 -0.0291  1.0817
10920TIP3   OH254174   4.217   2.271   0.747 -0.3701 -0.1191 -0.3606
10920TIP3    H154175   4.277   2.254   0.675  1.8181 -1.4944  1.6234
10920TIP3    H254176   4.200   2.365   0.743  1.7732  0.2984 -1.1757
10921TIP3   OH254177   0.775   4.091  14.105 -0.8177 -0.0204 -0.2705
10921TIP3    H154178   0.790   3.997  14.111 -0.5896  0.0119 -0.3246
10921TIP3    H254179   0.690   4.099  14.062 -0.5259 -0.1922 -0.8809
10922TIP3   OH254180   4.278   6.549   3.375 -0.1698  0.3193 -0.1941
10922TIP3    H154181   4.364   6.509   3.391 -0.3159  0.3726  0.8075
10922TIP3    H254182   4.278   6.627   3.430 -1.1927 -0.1498  0.4835
10923TIP3   OH254183   5.053   1.248   3.264 -0.0348  0.0969 -0.9002
10923TIP3    H154184   5.001   1.186   3.314  1.2720  0.1635  0.6366
10923TIP3    H254185   5.118   1.194   3.219  2.7138  0.3391  2.3835
10924TIP3   OH254186   6.056   3.427   0.220  0.3442 -0.4507  0.4118
10924TIP3    H154187   6.073   3.484   0.144  1.6690 -0.1273  0.9374
10924TIP3    H254188   6.102   3.346   0.200  0.2296 -0.5711  0.6325
10925TIP3   OH254189   0.257   5.214   2.302  0.0244 -0.7277 -0.1508
10925TIP3    H154190   0.319   5.210   2.229  0.3797 -3.5652  0.1813
10925TIP3    H254191   0.172   5.227   2.260  0.5013  0.4343 -0.8146
10926TIP3   OH254192   2.501   0.914   1.342  0.0490 -0.0318 -0.2829
10926TIP3    H154193   2.480   0.879   1.255  0.8935  0.1563 -0.5681
10926TIP3    H254194   2.564   0.852   1.379 -0.8393 -0.4970  0.4956
10927TIP3   OH254195   4.505   3.415  11.640  0.0773 -0.0340 -0.3516
10927TIP3    H154196   4.424   3.376  11.674 -0.0933 -0.6224 -1.3660
10927TIP3    H254197   4.570   3.346  11.648  0.4989  0.4450  0.4738
10928TIP3   OH254198   6.265   0.610  16.655  0.5609 -0.4746 -0.1891
10928TIP3    H154199   6.232   0.520  16.662 -1.2640  0.1249 -0.5607
10928TIP3    H254200   6.253   0.633  16.563 -1.6813  1.0634  0.4099
10929TIP3   OH254201   2.075   5.595  13.972 -0.1270 -0.5620 -0.1222
10929TIP3    H154202   2.146   5.609  14.034  0.3439  1.0022 -0.9561
10929TIP3    H254203   2.005   5.653  14.002  0.1049  0.2077 -0.9988
10930TIP3   OH254204   4.632   1.414  14.833  0.0460  0.0033  0.0984
10930TIP3    H154205   4.556   1.380  14.785  0.8706 -0.8946 -0.6136
10930TIP3    H254206   4.694   1.440  14.764  1.2312 -1.2519  0.6381
10931TIP3   OH254207   1.230   6.303   1.638 -0.2351 -0.0264 -0.2696
10931TIP3    H154208   1.145   6.262   1.619 -0.9177  1.5851 -0.8729
10931TIP3    H254209   1.224   6.328   1.730 -0.5006  0.2387 -0.3562
10932TIP3   OH254210   5.575   6.703  11.935  0.2393  0.2216  0.5388
10932TIP3    H154211   5.624   6.785  11.944 -0.1680  0.8522 -2.2394
10932TIP3    H254212   5.596   6.671  11.848 -3.0471 -0.2743 -0.2091
10933TIP3   OH254213   2.842   3.639   3.728 -0.1518  0.6750 -0.5200
10933TIP3    H154214   2.848   3.579   3.803 -3.0027 -0.5859 -1.1618
10933TIP3    H254215   2.923   3.624   3.679 -0.7516 -2.8773 -0.7099
10934TIP3   OH254216   4.355   0.166  12.415  1.2123 -0.5734  0.1502
10934TIP3    H154217   4.436   0.207  12.444  0.5437  0.4055  0.7201
10934TIP3    H254218   4.300   0.240  12.388  0.3692 -1.1899  0.1423
10935TIP3   OH254219   5.414   3.596  13.137 -0.2298 -0.6573  0.2800
10935TIP3    H154220   5.340   3.642  13.178  0.7996  1.2565  0.0598
10935TIP3    H254221   5.484   3.660  13.134  0.3001 -1.2023 -2.9865
10936TIP3   OH254222   1.075   2.714   1.274 -0.4211  0.2132  0.1167
10936TIP3    H154223   1.100   2.772   1.201 -0.0926 -0.9491 -0.7321
10936TIP3    H254224   1.054   2.631   1.232  1.3266 -0.9894  1.4524
10937TIP3   OH254225   0.374   1.224  16.610 -0.2930 -0.3252 -0.5051
10937TIP3    H154226   0.358   1.237  16.517 -0.0634 -0.5444 -0.5750
10937TIP3    H254227   0.289   1.197  16.645 -0.2911 -0.6039 -0.7162
10938TIP3   OH254228   1.809   1.871  17.107  0.1513  0.0946  0.1153
10938TIP3    H154229   1.714   1.871  17.116  0.2366  0.7690  1.3091
10938TIP3    H254230   1.828   1.953  17.061  0.2244  0.6128  1.0458
10939TIP3   OH254231   0.648   0.861  14.465  0.8401  0.3675 -0.2135
10939TIP3    H154232   0.586   0.812  14.519  0.9428 -0.0428 -0.4660
10939TIP3    H254233   0.638   0.952  14.493 -0.8128  0.5117 -1.1565
10940TIP3   OH254234   3.957   5.348   2.817  0.0009 -0.8832  0.2813
10940TIP3    H154235   4.041   5.304   2.828  1.2600  0.8863 -1.3517
10940TIP3    H254236   3.892   5.281   2.833  1.7610 -3.3614 -1.9649
10941TIP3   OH254237   2.799   6.008  14.980 -0.7691  0.1424 -0.6765
10941TIP3    H154238   2.883   5.965  14.961  0.7340  1.3588  2.4945
10941TIP3    H254239   2.748   5.940  15.024 -0.1472  0.3025  0.3117
10942TIP3   OH254240   1.768   1.528   1.071 -0.4091 -0.0151 -0.2300
10942TIP3    H154241   1.709   1.458   1.098 -0.7796 -0.2203 -1.5045
10942TIP3    H254242   1.711   1.601   1.049  0.0198  1.0455  1.9687
10943TIP3   OH254243   2.688   2.066  14.723  0.1073 -0.2140 -0.0112
10943TIP3    H154244   2.667   1.980  14.687  1.4873 -1.1839  1.3499
10943TIP3    H254245   2.750   2.104  14.661 -1.5145  0.4029 -1.3025
10944TIP3   OH254246   1.640   1.097   3.878 -0.6304 -0.3756  0.2625
10944TIP3    H154247   1.590   1.068   3.802  0.0518 -2.6101  0.6060
10944TIP3    H254248   1.680   1.017   3.913  4.0733  1.2812 -0.6194
10945TIP3   OH254249   3.399   1.983  14.111 -0.6067  0.3103  0.2386
10945TIP3    H154250   3.379   2.014  14.200  0.5344 -1.0039  0.9917
10945TIP3    H254251   3.494   1.971  14.111 -0.7296 -0.8201 -0.7974
10946TIP3   OH254252   0.884   5.942   3.790  0.0796 -0.1903  0.3011
10946TIP3    H154253   0.934   6.013   3.749 -2.5920  2.3601  1.1193
10946TIP3    H254254   0.915   5.940   3.880 -1.8626  2.2070  1.1424
10947TIP3   OH254255   1.941   0.623   1.224  0.2194 -0.2144  0.0800
10947TIP3    H154256   1.996   0.672   1.285 -0.0800  1.6725 -1.0819
10947TIP3    H254257   1.862   0.676   1.215  0.1523 -0.5393 -1.7286
10948TIP3   OH254258   4.360   5.176  16.540  0.0050  0.2696 -0.4875
10948TIP3    H154259   4.407   5.093  16.535 -0.7205 -0.2857  1.1355
10948TIP3    H254260   4.353   5.205  16.449  0.9316 -1.0613 -1.0182
10949TIP3   OH254261   0.392   1.945  15.112 -0.1425 -0.5881  0.0560
10949TIP3    H154262   0.344   1.905  15.185  0.3633  0.1548  0.8143
10949TIP3    H254263   0.467   1.987  15.154  0.4358 -0.5865 -0.9592
10950TIP3   OH254264   1.390   1.825  14.798  0.1809  0.0366 -0.1565
10950TIP3    H154265   1.446   1.897  14.827 -1.6162  1.3654  0.2176
10950TIP3    H254266   1.422   1.805  14.710  0.2721  1.8400 -0.5851
10951TIP3   OH254267   3.464   0.899  16.147  0.2128  0.1237  0.7373
10951TIP3    H154268   3.524   0.875  16.077  0.7275 -0.8857  1.5055
10951TIP3    H254269   3.407   0.965  16.108 -0.0216 -0.9761 -0.8835
10952TIP3   OH254270   6.152   5.604  17.551 -0.3361  0.6851 -0.4440
10952TIP3    H154271   6.218   5.608  17.620 -0.4509 -1.1679 -0.1628
10952TIP3    H254272   6.202   5.606  17.469 -0.0920  1.3009 -0.2837
10953TIP3   OH254273   4.655   2.150   5.667  0.1604  0.2603  0.2473
10953TIP3    H154274   4.730   2.109   5.623  0.1032  1.7337 -1.3420
10953TIP3    H254275   4.691   2.227   5.710 -0.1121 -0.1792  1.3037
10954TIP3   OH254276   1.868   0.377  13.577  0.2153  0.1523 -0.1234
10954TIP3    H154277   1.905   0.344  13.495 -0.2765  0.3382 -0.4164
10954TIP3    H254278   1.919   0.332  13.645  0.9440  0.3565 -0.5221
10955TIP3   OH254279   4.407   1.155   2.433 -0.6461 -0.6282 -0.0217
10955TIP3    H154280   4.431   1.105   2.355  0.2837  0.8052 -0.6802
10955TIP3    H254281   4.315   1.133   2.447 -1.2029  0.0261 -2.2566
10956TIP3   OH254282   0.038   3.752  13.573  0.0258  0.8680 -0.1734
10956TIP3    H154283   0.001   3.666  13.593 -2.1605  2.0068  1.2260
10956TIP3    H254284   0.063   3.787  13.658  1.2689  1.4866 -0.7708
10957TIP3   OH254285   1.190   1.529  15.770 -0.4367  0.4394  0.2858
10957TIP3    H154286   1.207   1.583  15.692 -0.6683 -1.8256 -1.4428
10957TIP3    H254287   1.095   1.520  15.773 -0.3744 -0.3026  0.2213
10958TIP3   OH254288   4.233   5.991   1.765 -0.2922 -0.0661 -0.2123
10958TIP3    H154289   4.172   5.969   1.694 -0.4155  0.4778 -0.2742
10958TIP3    H254290   4.192   5.955   1.844  0.8641 -2.6102 -0.6833
10959TIP3   OH254291   3.662   0.524  11.696 -1.0239  0.4852  0.0872
10959TIP3    H154292   3.623   0.458  11.638 -0.3884 -1.4228  1.7522
10959TIP3    H254293   3.753   0.532  11.666 -0.9162  0.0893  0.3012
10960TIP3   OH254294   6.271   1.765  12.135 -0.1532 -0.3328  0.3172
10960TIP3    H154295   6.345   1.752  12.194  0.5864  0.2442 -0.4533
10960TIP3    H254296   6.221   1.684  12.141  0.9567 -1.0432  0.2715
10961TIP3   OH254297   1.193   1.301  12.506  0.8725 -0.1823  0.3782
10961TIP3    H154298   1.125   1.294  12.572  0.0758 -2.6840 -0.6061
10961TIP3    H254299   1.151   1.346  12.433  0.5758 -0.8275  0.1495
10962TIP3   OH254300   3.426   4.041   2.104  0.1944  0.1966 -0.3754
10962TIP3    H154301   3.371   4.001   2.037  0.5697 -2.4719  0.7872
10962TIP3    H254302   3.365   4.058   2.177  0.3203  0.3048 -0.2958
10963TIP3   OH254303   5.447   1.874  14.912 -0.1758  0.6707  0.1652
10963TIP3    H154304   5.411   1.960  14.891  0.3133  0.9331  0.3686
10963TIP3    H254305   5.508   1.890  14.984  0.6980  0.3253 -0.4739
10964TIP3   OH254306   2.282   1.694  14.483  0.0153 -0.6166 -0.4019
10964TIP3    H154307   2.321   1.634  14.546  0.7010  1.2577  1.0827
10964TIP3    H254308   2.294   1.652  14.398 -0.0063 -2.7607  0.5889
10965TIP3   OH254309   4.658   0.615  12.487  0.1828  0.8448 -0.0136
10965TIP3    H154310   4.616   0.540  12.529  0.4355  0.8081  0.1763
10965TIP3    H254311   4.748   0.586  12.472  0.0255  0.7618 -0.8226
10966TIP3   OH254312   1.568   0.913   6.505 -0.2724  0.0490 -0.6337
10966TIP3    H154313   1.532   0.832   6.469 -0.2184 -0.0960 -0.3632
10966TIP3    H254314   1.532   0.917   6.594 -0.1505  0.2434 -0.5936
10967TIP3   OH254315   6.696   1.006  12.805 -0.0963  0.5940 -0.3503
10967TIP3    H154316   6.660   1.017  12.893  1.2317 -0.8161  0.4156
10967TIP3    H254317   6.783   0.968  12.819  0.5177  1.1880 -2.2425
10968TIP3   OH254318   4.450   2.849  13.445  0.2853  0.0409 -0.0501
10968TIP3    H154319   4.441   2.767  13.494 -1.2993  0.1569 -0.1029
10968TIP3    H254320   4.535   2.883  13.473  0.4291 -1.0071  0.9035
10969TIP3   OH254321   1.135   6.174  13.972  0.3436  0.3181 -0.0415
10969TIP3    H154322   1.215   6.166  14.024 -0.1355  0.7738  0.7885
10969TIP3    H254323   1.141   6.260  13.932  0.2176  0.4060  0.1247
10970TIP3   OH254324   6.020   2.133  15.856  0.1041  0.0289 -0.3559
10970TIP3    H154325   5.957   2.112  15.926 -0.5621  0.7766 -0.7228
10970TIP3    H254326   6.033   2.227  15.864 -0.0717  0.1394 -1.3165
10971TIP3   OH254327   4.807   5.555   1.975  0.2103  0.1335 -0.0670
10971TIP3    H154328   4.830   5.630   2.030  0.4952 -0.2766  0.3800
10971TIP3    H254329   4.877   5.491   1.991 -0.4906 -0.5713  0.2306
10972TIP3   OH254330   2.948   5.192  17.448  0.0255  0.1966  0.2355
10972TIP3    H154331   2.858   5.221  17.465 -0.4793 -0.8978 -0.4862
10972TIP3    H254332   2.949   5.099  17.470  0.6443 -0.0964 -0.9234
10973TIP3   OH254333   4.944   6.220   0.860  0.4356  0.2079 -0.4970
10973TIP3    H154334   4.894   6.301   0.863 -0.8766 -0.5999  1.2519
10973TIP3    H254335   5.025   6.240   0.906  0.3994  0.6937 -0.6392
10974TIP3   OH254336   6.345   0.831   1.679 -0.0947 -0.4749 -0.4766
10974TIP3    H154337   6.393   0.893   1.625 -2.0003  0.9546 -0.6531
10974TIP3    H254338   6.327   0.756   1.621  0.7296 -0.4312 -0.7940
10975TIP3   OH254339   4.296   3.663   2.536  0.3626 -0.1204  0.2914
10975TIP3    H154340   4.293   3.614   2.454  0.6203  1.1806 -0.5163
10975TIP3    H254341   4.383   3.702   2.539 -0.0489  0.8285  0.5702
10976TIP3   OH254342   3.923   5.796   1.363  0.1543 -0.1235 -0.0519
10976TIP3    H154343   3.851   5.810   1.425  1.2164  0.8209  1.0307
10976TIP3    H254344   3.913   5.866   1.299 -0.0910 -0.2085 -0.1094
10977TIP3   OH254345   1.944   2.385  11.974 -0.8498  0.5732  0.1117
10977TIP3    H154346   1.928   2.437  12.052 -0.1919  0.7833  0.1124
10977TIP3    H254347   1.994   2.309  12.005 -0.4369  0.7429 -0.1215
10978TIP3   OH254348   0.791   3.315  17.269  0.5556 -0.4696  0.1457
10978TIP3    H154349   0.822   3.251  17.333 -0.2286  0.0297  1.0480
10978TIP3    H254350   0.762   3.262  17.194 -2.4489 -1.4329  1.8356
10979TIP3   OH254351   3.448   3.480  16.840 -0.6471 -0.4226  0.4411
10979TIP3    H154352   3.371   3.459  16.894  0.3246 -0.6463  1.7878
10979TIP3    H254353   3.501   3.401  16.844  0.2138  0.1531  0.5234
10980TIP3   OH254354   5.202   4.732   4.651  0.1929  0.4046  0.2094
10980TIP3    H154355   5.158   4.662   4.602  1.3985 -0.2116 -0.0348
10980TIP3    H254356   5.258   4.774   4.586  1.1140  0.1769  0.8441
10981TIP3   OH254357   4.528   1.071   4.188  0.3563  0.0319 -0.1631
10981TIP3    H154358   4.501   1.054   4.097  0.9558 -1.8382 -0.0354
10981TIP3    H254359   4.455   1.038   4.241 -0.4364  2.0154  0.0707
10982TIP3   OH254360   4.790   5.227  12.180 -0.4024 -0.1590 -0.7521
10982TIP3    H154361   4.783   5.247  12.087 -1.1139 -1.0267 -0.9030
10982TIP3    H254362   4.747   5.300  12.224 -1.2145 -0.3606 -1.1829
10983TIP3   OH254363   1.693   3.311   1.408 -0.3743 -0.6010  0.1094
10983TIP3    H154364   1.695   3.385   1.468 -0.4455 -0.1729 -0.4126
10983TIP3    H254365   1.648   3.344   1.330  0.7202 -0.8018 -0.6333
10984TIP3   OH254366   6.610   6.607   5.650  0.6807 -0.1448  0.6458
10984TIP3    H154367   6.631   6.697   5.624  0.3362  0.3446  1.9423
10984TIP3    H254368   6.543   6.618   5.717  0.7100 -1.3785  0.8910
10985TIP3   OH254369   4.497   3.761   3.889 -0.3501 -0.2595  0.2032
10985TIP3    H154370   4.579   3.778   3.842 -1.0237  0.6760 -0.6687
10985TIP3    H254371   4.518   3.778   3.980  0.4171  0.0520 -0.0245
10986TIP3   OH254372   2.794   2.952   4.546  0.2146  0.1221  0.2577
10986TIP3    H154373   2.768   3.044   4.553  1.0001  0.4501 -0.8212
10986TIP3    H254374   2.741   2.918   4.474  1.6656  0.4216 -1.0082
10987TIP3   OH254375   5.547   5.026  15.704  0.5491  0.0505  1.2244
10987TIP3    H154376   5.549   4.934  15.678  0.9147 -0.2969  2.4200
10987TIP3    H254377   5.457   5.042  15.730  0.1246  0.4650 -0.4100
10988TIP3   OH254378   5.491   4.564   3.542 -0.1063  0.5561  0.0272
10988TIP3    H154379   5.430   4.638   3.551  0.2334  1.3223 -2.9432
10988TIP3    H254380   5.572   4.604   3.512 -0.0075 -1.0223 -1.9999
10989TIP3   OH254381   3.573   3.957  12.661 -0.3025  0.0529  0.7894
10989TIP3    H154382   3.661   3.966  12.698  0.9376  1.1865 -2.1399
10989TIP3    H254383   3.580   3.883  12.601 -0.4034  1.9045 -1.6688
10990TIP3   OH254384   6.389   0.482  17.097 -0.2902 -0.2775 -0.5979
10990TIP3    H154385   6.388   0.408  17.036 -0.4845  0.1524 -1.1301
10990TIP3    H254386   6.339   0.550  17.052 -2.0880 -0.5781  0.8767
10991TIP3   OH254387   3.171   4.251   0.797  0.2095 -0.1926  0.5633
10991TIP3    H154388   3.080   4.245   0.769  0.0391 -0.7243  1.2046
10991TIP3    H254389   3.198   4.160   0.811  2.0046 -0.4410 -3.1727
10992TIP3   OH254390   4.382   3.627  15.614  0.1525 -0.1820 -0.3283
10992TIP3    H154391   4.340   3.664  15.691 -0.8694 -0.2064 -0.8603
10992TIP3    H254392   4.411   3.703  15.563 -0.6170 -0.1320 -0.6987
10993TIP3   OH254393   5.507   2.217  13.775  0.1113  0.2845 -0.1675
10993TIP3    H154394   5.548   2.134  13.798  0.5443  0.9961  1.8455
10993TIP3    H254395   5.472   2.203  13.687  2.0448 -1.3205 -0.7579
10994TIP3   OH254396   2.689   3.394  14.013 -0.3894 -0.2445  0.0494
10994TIP3    H154397   2.767   3.445  14.034 -0.7764 -0.0318  1.0755
10994TIP3    H254398   2.720   3.304  14.006  0.0825 -0.0500 -0.4191
10995TIP3   OH254399   5.018   4.420   3.369  0.6097 -0.5519  0.5782
10995TIP3    H154400   5.033   4.398   3.277 -2.3750  0.5138 -0.2812
10995TIP3    H254401   5.078   4.493   3.386 -0.6451  1.0231 -1.3946
10996TIP3   OH254402   3.313   1.557  13.806 -0.2713 -0.5809 -0.9482
10996TIP3    H154403   3.311   1.503  13.884 -0.5356  1.8134  0.8163
10996TIP3    H254404   3.406   1.562  13.783  0.2644  1.1616  1.1788
10997TIP3   OH254405   0.659   0.140   5.177 -0.6161 -0.0266 -0.3251
10997TIP3    H154406   0.708   0.215   5.144 -0.0007 -0.9570 -1.6183
10997TIP3    H254407   0.572   0.149   5.139  0.3576 -1.6164 -3.2144
10998TIP3   OH254408   4.326   6.224   1.852 -0.3782 -0.2533  0.8656
10998TIP3    H154409   4.382   6.191   1.922 -0.5807 -1.2999  0.5400
10998TIP3    H254410   4.294   6.146   1.807 -0.5983  0.3880 -0.1291
10999TIP3   OH254411   3.434   3.510  10.742  0.2418 -0.3754  0.1555
10999TIP3    H154412   3.449   3.481  10.832 -0.3583 -1.4965 -0.0884
10999TIP3    H254413   3.439   3.430  10.690 -1.3727 -0.0538 -0.5568
11000TIP3   OH254414   0.124   4.619   1.358 -0.0202 -0.0125 -0.1414
11000TIP3    H154415   0.125   4.644   1.266  1.1021  2.6834  0.5199
11000TIP3    H254416   0.038   4.579   1.371 -0.6344  0.5779 -2.1121
11001TIP3   OH254417   2.872   4.138  17.306  0.8198  0.4234  0.2945
11001TIP3    H154418   2.847   4.203  17.372 -0.2454  0.9335 -0.5817
11001TIP3    H254419   2.829   4.058  17.333 -0.4267  0.8753 -0.2790
11002TIP3   OH254420   4.675   5.212   5.713  0.3327  0.1891 -0.1035
11002TIP3    H154421   4.635   5.293   5.679  0.0322 -0.8183 -2.3568
11002TIP3    H254422   4.602   5.157   5.738  0.5365  0.5282  1.3256
11003TIP3   OH254423   3.364   2.202   3.055  0.2380  0.1854 -0.3128
11003TIP3    H154424   3.349   2.117   3.098  0.2770  0.2848 -0.1046
11003TIP3    H254425   3.440   2.238   3.100 -0.6168  0.9622  0.5551
11004TIP3   OH254426   4.802   2.038   6.088  0.5226 -1.0232  0.1434
11004TIP3    H154427   4.850   2.080   6.159 -1.1424  2.0828 -0.3870
11004TIP3    H254428   4.860   2.044   6.013  1.5965 -2.7733  0.7676
11005TIP3   OH254429   3.759   5.871   5.418 -0.2287  0.4568  0.0123
11005TIP3    H154430   3.847   5.844   5.444  0.6381  3.0837  0.0802
11005TIP3    H254431   3.740   5.818   5.341  1.4664 -0.0931 -0.0767
11006TIP3   OH254432   0.031   0.615   3.817 -0.1732  0.4901  0.0088
11006TIP3    H154433   0.023   0.582   3.907  1.6164 -2.3116 -0.7268
11006TIP3    H254434  -0.027   0.558   3.766  0.1900  0.8880 -0.8640
11007TIP3   OH254435   5.466   4.855   6.502  0.1642  0.2696 -0.1132
11007TIP3    H154436   5.445   4.766   6.476  3.2908 -0.0173 -2.1890
11007TIP3    H254437   5.474   4.903   6.420 -0.2179  2.1944  0.9112
11008TIP3   OH254438   1.067   3.442  15.232  0.6444  0.3851  0.8216
11008TIP3    H154439   1.140   3.458  15.172  0.0728  1.9592  0.4754
11008TIP3    H254440   0.988   3.455  15.178  0.1208  0.4386  1.5779
11009TIP3   OH254441   5.083   0.336   5.650  0.4486  0.3607  0.0150
11009TIP3    H154442   5.155   0.272   5.651  0.7576  0.7066  0.5925
11009TIP3    H254443   5.050   0.334   5.561  0.9997 -0.0065 -0.1855
11010TIP3   OH254444   0.079   6.058   3.010 -0.0567  0.2197 -0.2613
11010TIP3    H154445   0.068   6.121   3.082  1.2607  0.7712 -0.5113
11010TIP3    H254446   0.055   6.107   2.931  1.7158  0.7145 -0.5480
11011TIP3   OH254447   0.409   4.129  17.116  0.0628 -0.2344  0.0202
11011TIP3    H154448   0.410   4.209  17.168 -0.5534  0.6626 -1.2791
11011TIP3    H254449   0.334   4.079  17.150  0.6863 -0.4641  1.0951
11012TIP3   OH254450   5.497   3.302  14.099  0.2397 -0.2674  0.9143
11012TIP3    H154451   5.527   3.356  14.172  1.9995 -0.4825  0.3971
11012TIP3    H254452   5.545   3.220  14.109  1.9331  0.3393 -1.4605
11013TIP3   OH254453   1.745   5.436   1.770  0.5604  0.9341  0.3454
11013TIP3    H154454   1.649   5.436   1.769  0.5401  0.7638 -1.1443
11013TIP3    H254455   1.769   5.516   1.722  1.1140  0.0976 -0.8265
11014TIP3   OH254456   2.762   3.997  16.722  0.9626 -0.2183 -0.0340
11014TIP3    H154457   2.832   4.015  16.660  3.4822 -2.5144  1.9004
11014TIP3    H254458   2.767   3.903  16.738 -1.1295 -0.1110  1.8828
11015TIP3   OH254459   3.456   3.705   4.021  0.0167 -0.2675  0.5116
11015TIP3    H154460   3.431   3.796   4.041  1.7847  0.3337  0.1573
11015TIP3    H254461   3.530   3.713   3.961 -1.8218 -1.9972 -2.1886
11016TIP3   OH254462   3.226   4.962   5.366 -0.0482  0.3951  0.2158
11016TIP3    H154463   3.182   5.014   5.434 -0.1199  0.9361 -0.2373
11016TIP3    H254464   3.225   5.018   5.288  1.1970  0.3185  0.1161
11017TIP3   OH254465   4.488   5.689  12.806  0.3674  0.3654  0.1905
11017TIP3    H154466   4.521   5.600  12.790 -0.5144  0.4058 -2.2832
11017TIP3    H254467   4.397   5.676  12.833  0.2368  0.5279 -0.1783
11018TIP3   OH254468   2.048   0.098  16.696 -0.2738  0.5069 -0.1372
11018TIP3    H154469   2.099   0.023  16.727 -1.0171  0.4618  1.0413
11018TIP3    H254470   1.974   0.059  16.649  0.5693  0.5661 -1.5563
11019TIP3   OH254471   1.406   5.413   6.189 -0.1166  0.2015  0.5484
11019TIP3    H154472   1.358   5.386   6.110  0.4846 -0.4202  0.3884
11019TIP3    H254473   1.347   5.474   6.233 -0.0244  1.4146 -0.9337
11020TIP3   OH254474   2.519   1.533  16.369  0.2939  0.0903 -0.0266
11020TIP3    H154475   2.546   1.530  16.278 -0.6034  1.7402 -0.3955
11020TIP3    H254476   2.447   1.471  16.375  0.1954  0.1550 -0.5041
11021TIP3   OH254477   3.930   4.581  15.479  0.3097 -0.3517  0.0714
11021TIP3    H154478   4.013   4.617  15.510  0.2127  0.2451 -0.3516
11021TIP3    H254479   3.955   4.520  15.409  0.3378  0.5775 -0.7447
11022TIP3   OH254480   5.625   2.887   0.897 -0.2497  0.2742 -0.0090
11022TIP3    H154481   5.639   2.794   0.880 -0.2361  0.4878 -1.2385
11022TIP3    H254482   5.536   2.904   0.866 -1.0889  0.2376  2.1803
11023TIP3   OH254483   1.849   1.667   3.491  0.8505 -0.3907 -0.4660
11023TIP3    H154484   1.920   1.729   3.473  1.0290 -0.2549  0.6667
11023TIP3    H254485   1.833   1.625   3.406  1.8939 -0.0122 -0.8723
11024TIP3   OH254486   2.329   5.240   6.379  0.7127 -0.3603 -0.2829
11024TIP3    H154487   2.343   5.330   6.350  0.3429 -0.3731 -0.5016
11024TIP3    H254488   2.291   5.249   6.467  1.8621 -0.3220  0.2347
11025TIP3   OH254489   0.558   3.446  12.177 -0.3665  0.1577  1.3413
11025TIP3    H154490   0.495   3.377  12.155 -1.1258  1.3907 -0.6964
11025TIP3    H254491   0.639   3.420  12.133 -0.5113  0.3029  0.9815
11026TIP3   OH254492   1.352   4.185   0.558 -0.6167  0.6090  0.4732
11026TIP3    H154493   1.412   4.193   0.632 -0.1797 -2.4524  0.5856
11026TIP3    H254494   1.409   4.168   0.483 -1.1617  2.1242 -0.3393
11027TIP3   OH254495   2.568   4.350  14.970 -0.0730  0.0345  0.0263
11027TIP3    H154496   2.622   4.298  15.030 -0.3610  0.5214  0.7274
11027TIP3    H254497   2.524   4.413  15.027  1.6562  2.2908 -0.9779
11028TIP3   OH254498   6.560   4.617   1.320 -0.1089  0.3817 -0.1220
11028TIP3    H154499   6.471   4.611   1.285 -0.8334  2.5453  1.1517
11028TIP3    H254500   6.587   4.708   1.301  1.4439  0.0664  0.3991
11029TIP3   OH254501   0.365   2.505  14.711  0.7032  0.0577 -0.3245
11029TIP3    H154502   0.332   2.566  14.645  0.6067  0.3680  0.0104
11029TIP3    H254503   0.380   2.559  14.788 -0.2258 -0.4960  0.2534
11030TIP3   OH254504   2.674   3.786  15.048 -0.0811  0.3033  0.2715
11030TIP3    H154505   2.596   3.779  14.992  0.1483 -1.4541  0.1053
11030TIP3    H254506   2.737   3.834  14.995 -1.0079  1.7261  0.3958
11031TIP3   OH254507   6.401   4.914  13.627 -0.3735  0.6709  0.1294
11031TIP3    H154508   6.375   4.857  13.698 -1.3181 -0.8008 -1.3213
11031TIP3    H254509   6.324   4.969  13.611 -2.0143 -2.0591 -2.5830
11032TIP3   OH254510   5.622   6.327   2.292 -0.1240  0.7422 -0.5345
11032TIP3    H154511   5.623   6.269   2.368 -2.2584 -0.6613 -1.4986
11032TIP3    H254512   5.571   6.403   2.321  2.0948  1.9282  0.5078
11033TIP3   OH254513   1.637   3.507  17.361 -0.3865 -0.1798 -0.0404
11033TIP3    H154514   1.687   3.530  17.439 -0.8297  0.7665 -0.0302
11033TIP3    H254515   1.703   3.478  17.298  0.0849  0.2276  0.2665
11034TIP3   OH254516   1.865   3.379   4.573 -0.2456 -0.0998  0.3145
11034TIP3    H154517   1.930   3.341   4.513  0.5459 -1.3171  1.8774
11034TIP3    H254518   1.783   3.334   4.550 -0.5914  1.3909 -1.6169
11035TIP3   OH254519   6.119   2.781   6.619 -0.3167  0.4133  0.1170
11035TIP3    H154520   6.141   2.866   6.657  1.0363  0.4644 -0.6868
11035TIP3    H254521   6.183   2.721   6.658 -0.9100 -0.1313  0.2587
11036TIP3   OH254522   3.901   6.197  16.402  0.1319  0.8015  0.2544
11036TIP3    H154523   3.997   6.196  16.405  0.2031  0.5964 -1.2822
11036TIP3    H254524   3.879   6.171  16.313 -1.3828  0.2507  0.7479
11037TIP3   OH254525   2.894   1.654  14.853  0.0479 -0.3044 -0.1480
11037TIP3    H154526   2.942   1.581  14.814  0.8814  0.0515  0.1869
11037TIP3    H254527   2.810   1.654  14.808  0.8660 -0.0946 -1.7248
11038TIP3   OH254528   3.791   3.024  16.443  0.4485 -0.9768  0.0866
11038TIP3    H154529   3.713   2.993  16.397  0.4735 -1.0950  0.1231
11038TIP3    H254530   3.758   3.057  16.527  0.4198 -0.8857  0.0400
11039TIP3   OH254531   0.911   5.073  16.531 -0.0181 -0.2644 -0.4402
11039TIP3    H154532   0.898   5.064  16.437  0.3430  1.6877 -0.7254
11039TIP3    H254533   1.005   5.066  16.544 -0.1933 -2.1656  0.0207
11040TIP3   OH254534   5.994   2.354  15.599  0.4017 -0.1537  0.0421
11040TIP3    H154535   6.001   2.448  15.586 -1.4701 -0.2185 -1.8624
11040TIP3    H254536   5.982   2.318  15.512  0.6248 -2.1477  0.7689
11041TIP3   OH254537   4.075   0.888   4.885 -0.0936 -0.3369 -0.4048
11041TIP3    H154538   4.138   0.824   4.851 -0.0345 -0.8349  0.6152
11041TIP3    H254539   3.994   0.838   4.895 -0.4464  0.1108 -0.9787
11042TIP3   OH254540   6.029   1.849   3.890  0.6708 -0.1715  0.5902
11042TIP3    H154541   6.015   1.878   3.800  0.3407 -0.7745  0.4434
11042TIP3    H254542   6.069   1.925   3.934 -0.3525  0.5698  0.2697
11043TIP3   OH254543   3.356   3.584   6.607 -0.2785 -0.4142 -0.3108
11043TIP3    H154544   3.409   3.634   6.669 -1.1626 -1.5136  1.4256
11043TIP3    H254545   3.344   3.642   6.533  3.1739 -0.0442 -0.7310
11044TIP3   OH254546   1.775   4.120   0.685 -0.0380 -0.3974 -0.2060
11044TIP3    H154547   1.742   4.201   0.725  1.3994 -0.3253  0.9286
11044TIP3    H254548   1.730   4.050   0.731 -0.5686 -0.2818 -0.5295
11045TIP3   OH254549   5.534   0.657  12.972 -0.4505 -0.3243  0.4010
11045TIP3    H154550   5.618   0.646  12.928  0.1920  0.7748  1.2977
11045TIP3    H254551   5.469   0.654  12.901  0.4868  0.6844 -0.5344
11046TIP3   OH254552   4.394   5.754  14.293 -0.3587  0.0183 -0.9470
11046TIP3    H154553   4.405   5.802  14.211  0.4301 -0.1853 -0.9665
11046TIP3    H254554   4.440   5.671  14.279  0.1043  0.1273 -0.1795
11047TIP3   OH254555   2.196   3.592  12.309 -0.1232  0.1014 -0.0153
11047TIP3    H154556   2.276   3.549  12.277 -0.6523 -1.7007  0.9356
11047TIP3    H254557   2.135   3.586  12.236  0.0039 -0.2359 -0.0965
11048TIP3   OH254558   6.093   4.292   1.778  0.2128  0.0925  0.1957
11048TIP3    H154559   6.034   4.338   1.717 -0.0755  0.7756  0.9677
11048TIP3    H254560   6.045   4.291   1.861  1.6534  1.5020  1.0984
11049TIP3   OH254561   1.633   1.920   5.441 -0.0916 -0.4402  0.5831
11049TIP3    H154562   1.648   1.960   5.356  1.4680 -0.0345  1.0150
11049TIP3    H254563   1.597   1.990   5.495  0.5453 -0.2278  0.7309
11050TIP3   OH254564   4.786   4.814  15.926  0.2131 -0.6601  0.3386
11050TIP3    H154565   4.724   4.745  15.902 -0.7124  0.1811  0.2018
11050TIP3    H254566   4.730   4.890  15.943  1.1388 -0.1977  1.4094
11051TIP3   OH254567   1.074   5.008   2.625  0.1573  0.4195 -0.2358
11051TIP3    H154568   1.095   5.101   2.638 -1.6909  0.8355  0.0767
11051TIP3    H254569   1.113   4.964   2.701 -0.1803  1.1664  0.3901
11052TIP3   OH254570   1.262   0.336  16.947  0.1574 -0.3503 -0.5830
11052TIP3    H154571   1.318   0.413  16.952 -0.6109  0.1664  0.4881
11052TIP3    H254572   1.315   0.271  16.901  0.5081  1.0641 -2.2666
11053TIP3   OH254573   5.016   4.317   6.452 -0.6399 -0.3756 -0.5008
11053TIP3    H154574   4.932   4.357   6.471 -1.8078 -2.1556 -1.6125
11053TIP3    H254575   4.994   4.232   6.414  1.6317 -0.0978 -2.6459
11054TIP3   OH254576   3.230   1.666   0.589  0.5907  0.2025  0.0407
11054TIP3    H154577   3.200   1.753   0.617 -2.0428 -0.5310 -0.2034
11054TIP3    H254578   3.306   1.647   0.645  1.2395  2.6254  0.0964
11055TIP3   OH254579   0.849   3.560   5.595 -0.0520 -0.1805  0.1650
11055TIP3    H154580   0.796   3.507   5.655 -0.6969  1.5274  1.1623
11055TIP3    H254581   0.937   3.524   5.603 -0.2341 -0.3402  1.7579
11056TIP3   OH254582   0.726   2.946  13.684 -0.5851 -0.7390 -0.6463
11056TIP3    H154583   0.817   2.950  13.654 -0.3406  0.1641  0.1826
11056TIP3    H254584   0.678   2.912  13.608  0.5356 -1.9316 -0.8594
11057TIP3   OH254585   1.059   4.537   5.488 -0.3646 -0.5975  0.6866
11057TIP3    H154586   1.135   4.484   5.514 -0.5266 -1.0781  0.1902
11057TIP3    H254587   0.986   4.502   5.539 -0.2650 -0.1444  1.1530
11058TIP3   OH254588   1.911   3.476  16.998 -0.1323  0.3995 -0.7053
11058TIP3    H154589   1.859   3.550  17.030 -0.7192  0.5392 -1.9449
11058TIP3    H254590   1.961   3.513  16.925  1.0351  0.0357 -0.1109
11059TIP3   OH254591   5.699   5.287   0.715  0.2452 -0.2075  0.1571
11059TIP3    H154592   5.726   5.373   0.749  1.6594 -1.2068  1.7278
11059TIP3    H254593   5.604   5.286   0.725  0.2214  1.1199  0.2584
11060TIP3   OH254594   0.492   1.698  12.856 -0.0578  0.5108  0.3771
11060TIP3    H154595   0.484   1.714  12.762 -1.1521  0.6882  0.4860
11060TIP3    H254596   0.525   1.780  12.892  1.2685  0.1468  0.0480
11061TIP3   OH254597   5.931   5.219   6.655  0.5612  0.0425 -0.4557
11061TIP3    H154598   5.895   5.302   6.623  2.4592 -0.5547 -4.7543
11061TIP3    H254599   6.022   5.240   6.677  0.7164 -0.6631 -0.4245
11062TIP3   OH254600   2.796   2.055   3.557  0.4495 -0.3503  0.9212
11062TIP3    H154601   2.843   1.973   3.568  0.9208 -0.5440 -1.8208
11062TIP3    H254602   2.814   2.081   3.467 -0.0256  2.5674  1.5702
11063TIP3   OH254603   2.966   3.033   5.836 -0.5674  0.4814 -0.3040
11063TIP3    H154604   2.901   3.039   5.906 -1.0614  0.1041 -0.7275
11063TIP3    H254605   2.983   2.939   5.826 -0.4985  0.5355 -0.6956
11064TIP3   OH254606   0.410   6.462   2.046 -0.3536 -0.2603  0.3311
11064TIP3    H154607   0.453   6.527   1.989  0.0571 -0.7033  0.1294
11064TIP3    H254608   0.333   6.507   2.079  0.2187  0.5231  0.6268
11065TIP3   OH254609   6.541   4.658   3.486  0.1802  0.3065 -0.2298
11065TIP3    H154610   6.595   4.681   3.562 -1.7445  1.5082  0.8679
11065TIP3    H254611   6.543   4.562   3.484 -0.2654  0.1974  1.8020
11066TIP3   OH254612   6.050   1.835   4.354 -0.2268 -0.0008  0.0354
11066TIP3    H154613   6.094   1.812   4.271  0.3859 -1.2571  0.6767
11066TIP3    H254614   6.107   1.797   4.421 -0.7609  0.9444  1.0345
11067TIP3   OH254615   4.607   1.154  14.603 -0.3581 -0.2932  0.0590
11067TIP3    H154616   4.547   1.227  14.619 -0.1946 -0.3551  1.0204
11067TIP3    H254617   4.671   1.188  14.541  0.0417  0.5697  0.9181
11068TIP3   OH254618   5.297   2.231  12.898  0.0523  0.1581 -0.0005
11068TIP3    H154619   5.369   2.174  12.871  0.0015  0.4344 -0.7322
11068TIP3    H254620   5.314   2.248  12.991 -0.5678 -1.9924  0.5624
11069TIP3   OH254621   0.582   3.397   0.801 -0.1591 -0.7672 -0.3774
11069TIP3    H154622   0.590   3.337   0.727  0.6746  1.1633 -1.9474
11069TIP3    H254623   0.515   3.460   0.773  0.4316  0.2118  0.3536
11070TIP3   OH254624   1.108   4.855  12.630  0.6669  0.2601  0.1747
11070TIP3    H154625   1.070   4.827  12.546  2.0680  0.2264 -0.4808
11070TIP3    H254626   1.069   4.941  12.646  1.2307  0.7810 -1.1086
11071TIP3   OH254627   1.313   3.607   3.757 -0.1915 -0.1158 -0.3529
11071TIP3    H154628   1.298   3.697   3.787 -0.8788 -0.8272  1.6253
11071TIP3    H254629   1.385   3.576   3.811  0.3775 -0.6098 -1.3819
11072TIP3   OH254630   4.980   0.126  13.209  0.2839  0.0158 -0.2462
11072TIP3    H154631   4.981   0.110  13.303  1.0770  1.7494  0.0815
11072TIP3    H254632   5.068   0.157  13.189 -0.6084  2.2410 -1.0243
11073TIP3   OH254633   3.361   4.193  17.466 -0.0918  0.1461 -0.2127
11073TIP3    H154634   3.442   4.243  17.478  1.6964 -1.8985 -2.7447
11073TIP3    H254635   3.308   4.247  17.407  0.8606  0.0614 -1.1621
11074TIP3   OH254636   2.756   4.228  15.383  0.1218 -0.4415 -0.0691
11074TIP3    H154637   2.731   4.150  15.333  3.0054  0.0731 -2.5638
11074TIP3    H254638   2.840   4.205  15.423  1.5651  1.6280 -1.7103
11075TIP3   OH254639   5.298   0.958  12.469 -0.1608 -0.3115 -0.7780
11075TIP3    H154640   5.305   0.927  12.378 -0.4517 -1.2441 -0.4869
11075TIP3    H254641   5.265   0.883  12.518 -1.3559  0.6068 -0.1415
11076TIP3   OH254642   5.110   6.162  14.215 -0.8231  0.4394  0.0490
11076TIP3    H154643   5.071   6.170  14.128 -1.8685  1.4569  0.5855
11076TIP3    H254644   5.179   6.097  14.204 -0.6834  0.8179 -1.6275
11077TIP3   OH254645   3.958   0.710  11.277 -0.7028  0.0874  0.4164
11077TIP3    H154646   3.939   0.800  11.305  2.1622  0.9870 -0.1176
11077TIP3    H254647   3.929   0.707  11.186  0.9698  1.2178 -0.2098
11078TIP3   OH254648   0.798   1.845  12.895  0.2232 -0.1202 -0.3495
11078TIP3    H154649   0.722   1.900  12.873 -0.5599 -1.1888 -0.3656
11078TIP3    H254650   0.846   1.896  12.961 -0.4902  0.5764 -0.3521
11079TIP3   OH254651   0.839   2.428  14.836 -0.2095  0.1163 -0.2831
11079TIP3    H154652   0.835   2.481  14.915 -0.8255 -0.7005  0.2580
11079TIP3    H254653   0.750   2.431  14.800 -0.0283  0.1738 -0.7312
11080TIP3   OH254654   6.087   5.856   4.592 -0.4965  0.3540  0.0711
11080TIP3    H154655   6.061   5.936   4.546  2.6321  0.7134 -1.3332
11080TIP3    H254656   6.011   5.798   4.585 -1.3123  1.5884 -2.7874
11081TIP3   OH254657   4.555   0.510  13.474  0.2860  0.1296  0.0902
11081TIP3    H154658   4.535   0.572  13.544  0.1325  0.6409 -0.3958
11081TIP3    H254659   4.469   0.475  13.449  0.1275  1.1458 -0.9176
11082TIP3   OH254660   1.437   1.355  12.653 -0.0739 -0.1535  0.0732
11082TIP3    H154661   1.474   1.425  12.601 -1.7769  2.3135  1.9480
11082TIP3    H254662   1.351   1.338  12.614  0.7629 -2.1072 -1.0638
11083TIP3   OH254663   3.161   5.520  16.011  0.1526  0.6018 -0.2353
11083TIP3    H154664   3.121   5.459  15.949 -0.1273 -0.6162  1.0749
11083TIP3    H254665   3.251   5.489  16.020  0.6248  1.6632 -1.1023
11084TIP3   OH254666   3.354   5.080  15.858  0.1562 -0.9273  0.2146
11084TIP3    H154667   3.263   5.054  15.842 -0.0788 -0.6253  0.9795
11084TIP3    H254668   3.384   5.114  15.774 -0.4413 -1.0234 -0.0484
11085TIP3   OH254669   3.328   2.101   0.154 -0.6150 -0.3512  0.2360
11085TIP3    H154670   3.255   2.042   0.171  0.3998 -1.5145  0.7074
11085TIP3    H254671   3.311   2.178   0.209 -0.5880 -1.3742  1.7359
11086TIP3   OH254672   1.043   1.225   3.774  0.3422  0.5161  0.0470
11086TIP3    H154673   1.038   1.318   3.753  0.4403  1.2015  2.7215
11086TIP3    H254674   1.137   1.206   3.780  0.3755 -0.1707 -1.8955
11087TIP3   OH254675   5.964   2.638   4.131  0.4825 -0.4325  0.2609
11087TIP3    H154676   5.893   2.691   4.168 -0.1421 -2.6425  2.4506
11087TIP3    H254677   5.933   2.617   4.042 -0.5086  0.5638  0.3463
11088TIP3   OH254678   0.132   2.189  11.217 -0.6696 -0.3162  0.6453
11088TIP3    H154679   0.039   2.203  11.198 -0.5602 -1.6264 -1.1491
11088TIP3    H254680   0.174   2.192  11.131  0.4863 -2.8056  1.0583
11089TIP3   OH254681   1.539   3.971  15.820 -0.6142 -0.0136  0.1331
11089TIP3    H154682   1.617   3.920  15.799  1.1016  2.6068 -0.3746
11089TIP3    H254683   1.567   4.032  15.887 -3.1086 -0.9152  2.1747
11090TIP3   OH254684   0.792   1.921   4.277  0.4086  0.4528 -0.0449
11090TIP3    H154685   0.756   1.833   4.288  0.7754  0.0213 -1.9547
11090TIP3    H254686   0.771   1.944   4.187  1.9855  1.5329 -0.1724
11091TIP3   OH254687   5.657   1.785  11.377  0.2031 -0.1517  0.3874
11091TIP3    H154688   5.664   1.690  11.388  1.4771 -0.3383 -1.5820
11091TIP3    H254689   5.714   1.805  11.304 -0.6934  2.0534  0.2111
11092TIP3   OH254690   5.990   3.951  13.190  1.0667 -0.0270 -0.2437
11092TIP3    H154691   5.941   4.002  13.256  1.0633 -0.3769  0.0288
11092TIP3    H254692   5.947   3.971  13.107  1.1516  0.5193 -0.1552
11093TIP3   OH254693   4.800   0.823   6.117  0.0044  0.6560  0.1708
11093TIP3    H154694   4.760   0.826   6.030  0.4579 -0.9210 -0.1331
11093TIP3    H254695   4.753   0.889   6.167 -0.0980  1.7935 -1.3309
11094TIP3   OH254696   3.472   3.103   2.931  0.0156  0.6191 -0.3475
11094TIP3    H154697   3.404   3.047   2.968 -1.0410  1.2348 -1.3234
11094TIP3    H254698   3.519   3.137   3.007 -0.4452 -0.1902  0.3159
11095TIP3   OH254699   2.642   4.224   1.166  0.2517  0.1018 -0.7557
11095TIP3    H154700   2.549   4.230   1.144  0.0801  1.3030  0.1735
11095TIP3    H254701   2.687   4.256   1.089 -0.1911  0.9843 -0.6665
11096TIP3   OH254702   5.438   0.151   0.348  0.0010 -0.0669  0.1319
11096TIP3    H154703   5.372   0.089   0.379  1.0668  0.2290  3.3921
11096TIP3    H254704   5.451   0.211   0.422  2.0467  1.4904 -1.3663
11097TIP3   OH254705   1.511   0.132   1.412  0.0437  0.7169 -0.0234
11097TIP3    H154706   1.549   0.118   1.499 -0.2825 -1.8829 -0.2165
11097TIP3    H254707   1.580   0.107   1.352 -0.4126  0.5039 -0.4649
11098TIP3   OH254708   3.323   5.022  16.382  0.7639 -0.1617 -0.7356
11098TIP3    H154709   3.375   4.977  16.448  0.3227 -0.0259 -0.2915
11098TIP3    H254710   3.323   4.962  16.307  1.1545 -0.3736 -0.5701
11099TIP3   OH254711   4.018   2.258  12.074  0.0226 -0.5215 -0.3842
11099TIP3    H154712   3.963   2.336  12.074  0.1113 -0.3000  2.7331
11099TIP3    H254713   3.962   2.189  12.110  1.2351 -0.6691  1.3687
11100TIP3   OH254714   1.151   1.515   4.750 -0.1663  0.0894 -0.2953
11100TIP3    H154715   1.116   1.589   4.702 -2.0035 -0.3208  0.3323
11100TIP3    H254716   1.098   1.510   4.830  0.6473 -1.2151  0.2062
11101TIP3   OH254717   4.317   0.318  17.120 -0.2262 -0.0131  0.1028
11101TIP3    H154718   4.270   0.237  17.104 -0.7228  0.5245 -1.2468
11101TIP3    H254719   4.292   0.376  17.049 -0.8128  1.7586  1.6514
11102TIP3   OH254720   0.839   2.943  16.678  0.3230  0.0122 -0.3404
11102TIP3    H154721   0.899   2.973  16.746  0.8916 -1.8120  0.0164
11102TIP3    H254722   0.829   3.018  16.620  2.0922  0.7103  0.1958
11103TIP3   OH254723   2.745   5.255   2.918 -0.0916  0.3644  0.5051
11103TIP3    H154724   2.773   5.176   2.963  0.7553  0.6878  0.5648
11103TIP3    H254725   2.777   5.244   2.828 -2.2708 -0.5447 -0.2242
11104TIP3   OH254726   6.307   6.357  14.710 -0.0422 -0.1045 -0.3427
11104TIP3    H154727   6.385   6.369  14.656  0.7076  1.2930  0.9956
11104TIP3    H254728   6.335   6.379  14.799 -1.6077 -0.9775  0.4108
11105TIP3   OH254729   5.107   3.317   4.146  0.3509  0.3820  0.6035
11105TIP3    H154730   5.047   3.386   4.118  0.6305  0.2994 -0.2069
11105TIP3    H254731   5.102   3.251   4.078  1.9799  0.7453  0.0845
11106TIP3   OH254732   5.524   4.981  16.574 -0.2138 -0.2154  0.1584
11106TIP3    H154733   5.592   5.011  16.514 -1.1959  0.9384 -0.4308
11106TIP3    H254734   5.571   4.939  16.645  1.3150  2.6317  0.9924
11107TIP3   OH254735   4.596   0.749  10.715 -0.4740 -0.1334 -0.0193
11107TIP3    H154736   4.629   0.715  10.798 -0.4654  1.2149  0.5477
11107TIP3    H254737   4.619   0.681  10.651 -0.0205 -0.9547  0.9856
11108TIP3   OH254738   6.025   4.998   0.102  0.0913 -0.5070  0.1008
11108TIP3    H154739   6.118   5.006   0.084  0.4568  1.9499  2.3503
11108TIP3    H254740   6.018   4.925   0.163  0.7920  0.1429  0.9890
11109TIP3   OH254741   2.635   4.641   0.297 -0.0674 -0.5452  0.5156
11109TIP3    H154742   2.721   4.610   0.325  1.4447  0.8765 -2.1565
11109TIP3    H254743   2.607   4.579   0.231 -0.3141 -0.0943  0.1901
11110TIP3   OH254744   1.452   1.171  13.917  0.3907  0.2307 -1.0414
11110TIP3    H154745   1.363   1.182  13.883  0.0053 -2.3774 -1.1039
11110TIP3    H254746   1.460   1.239  13.984 -1.8109  0.2881 -0.7462
11111TIP3   OH254747   6.202   3.423   1.405 -0.3263 -0.1985  0.3998
11111TIP3    H154748   6.217   3.475   1.484  0.9592 -1.0224  0.7322
11111TIP3    H254749   6.165   3.485   1.342 -0.4533  0.6975  1.3353
11112TIP3   OH254750   5.048   0.585   3.779  0.4934  0.5675 -0.2783
11112TIP3    H154751   5.000   0.667   3.793 -0.2560 -0.2075  2.2916
11112TIP3    H254752   5.132   0.598   3.824  1.0584  0.4932 -1.2953
11113TIP3   OH254753   4.231   1.391  13.333 -0.2306  0.0542  0.3994
11113TIP3    H154754   4.214   1.414  13.425  1.3839  0.8046  0.5341
11113TIP3    H254755   4.224   1.475  13.286 -0.0294 -0.1547 -0.0048
11114TIP3   OH254756   1.328   5.285   2.817  0.4008  0.1825  0.6758
11114TIP3    H154757   1.420   5.273   2.842  1.3611  4.4416  0.0206
11114TIP3    H254758   1.282   5.295   2.901  0.6952 -0.8123  0.9763
11115TIP3   OH254759   5.518   6.274   2.614  0.0310 -0.2692 -0.0827
11115TIP3    H154760   5.595   6.322   2.646 -0.0193  0.3775 -0.9080
11115TIP3    H254761   5.524   6.188   2.655  0.5698  0.1641  0.7762
11116TIP3   OH254762   5.290   6.598   5.561  0.5226  0.2287  0.4952
11116TIP3    H154763   5.384   6.597   5.547  0.7174 -2.5734  1.4098
11116TIP3    H254764   5.257   6.524   5.510 -1.2101  1.1184  0.2353
11117TIP3   OH254765   3.677   6.139  14.235 -0.2387  0.2502  0.4489
11117TIP3    H154766   3.717   6.120  14.150  1.4255  3.0078  0.4953
11117TIP3    H254767   3.731   6.091  14.297 -0.9612 -1.1168  0.0609
11118TIP3   OH254768   4.665   3.686  10.360 -0.4402  0.4501  0.0518
11118TIP3    H154769   4.691   3.742  10.287  0.6969  0.1552  0.2102
11118TIP3    H254770   4.572   3.670  10.346 -0.1093 -0.1139 -1.6830
11119TIP3   OH254771   2.975   5.694  15.585  0.0075 -0.3556  0.1804
11119TIP3    H154772   2.983   5.789  15.576 -1.3678 -0.2753 -0.3815
11119TIP3    H254773   3.032   5.672  15.659  1.5813  0.6822 -0.6802
11120TIP3   OH254774   1.761   6.530  13.554  0.3182  0.6981  0.4320
11120TIP3    H154775   1.727   6.509  13.468  0.7121  1.0018  0.1940
11120TIP3    H254776   1.788   6.446  13.592 -2.1637  0.2214  1.2991
11121TIP3   OH254777   5.639   4.130   1.731 -0.0943 -0.5139 -0.0555
11121TIP3    H154778   5.631   4.049   1.781  2.4523 -0.4547  0.5547
11121TIP3    H254779   5.618   4.105   1.641 -2.9758 -0.9996  0.6525
11122TIP3   OH254780   5.131   2.931  11.528 -0.4311  0.1024  0.3421
11122TIP3    H154781   5.190   2.856  11.523 -1.5014 -0.8422  1.3614
11122TIP3    H254782   5.179   3.002  11.486  0.3121 -1.3287 -1.3548
11123TIP3   OH254783   0.710   4.115  12.886 -0.1301 -0.0257  0.1417
11123TIP3    H154784   0.761   4.087  12.962  1.0938  1.1987 -0.1721
11123TIP3    H254785   0.661   4.038  12.860  0.6237 -0.9093  1.2264
11124TIP3   OH254786   0.578   5.225  12.708  0.0766  0.1721  0.4774
11124TIP3    H154787   0.524   5.147  12.717 -0.3670  0.4394  0.1663
11124TIP3    H254788   0.564   5.272  12.791  1.5382 -0.8031  1.3203
11125TIP3   OH254789   3.292   4.468  16.421 -0.2891 -0.2682 -0.0992
11125TIP3    H154790   3.281   4.478  16.516 -0.4396  0.8405 -0.2207
11125TIP3    H254791   3.367   4.410  16.412 -0.9969 -1.3367  0.7025
11126TIP3   OH254792   2.306   2.496  14.231  0.5132  0.7290  0.5163
11126TIP3    H154793   2.370   2.447  14.179  0.0629 -1.1468  1.6599
11126TIP3    H254794   2.221   2.469  14.197  0.2085 -0.6382  2.2651
11127TIP3   OH254795   4.970   1.840   5.676 -0.2599  0.2591 -0.4611
11127TIP3    H154796   4.883   1.815   5.643  0.0839  0.2153 -1.3844
11127TIP3    H254797   5.031   1.791   5.620  0.3548  0.0317  0.3986
11128TIP3   OH254798   4.502   1.711  14.713 -0.0559  0.2606 -0.4745
11128TIP3    H154799   4.466   1.716  14.624 -0.8188 -1.9346 -0.3615
11128TIP3    H254800   4.483   1.797  14.752 -0.8036  0.8362 -2.0354
11129TIP3   OH254801   1.027   5.796   5.326  0.7373  0.2209  0.0049
11129TIP3    H154802   1.114   5.805   5.365  0.8240 -0.9827  0.1385
11129TIP3    H254803   1.023   5.704   5.299  0.2755  0.7345 -1.8592
11130TIP3   OH254804   0.516   2.357  13.318  0.4165 -0.2755 -0.6617
11130TIP3    H154805   0.454   2.412  13.367  1.4426  1.9654 -1.7373
11130TIP3    H254806   0.467   2.331  13.240 -0.3317 -1.6264  0.2114
11131TIP3   OH254807   3.490   5.146  11.901  0.4191  0.1294 -0.1648
11131TIP3    H154808   3.520   5.165  11.812 -0.4871 -0.2836 -0.5739
11131TIP3    H254809   3.540   5.206  11.956  0.7935  0.5907 -0.9814
11132TIP3   OH254810   4.132   0.540   3.632 -0.3662  0.3807 -0.1206
11132TIP3    H154811   4.071   0.581   3.694  0.0053  0.7648 -0.0053
11132TIP3    H254812   4.185   0.613   3.599  0.3150 -0.0049  0.1027
11133TIP3   OH254813   5.615   1.153  12.391 -0.8226  0.5447 -0.1707
11133TIP3    H154814   5.558   1.225  12.416 -0.9994  0.8818 -1.5194
11133TIP3    H254815   5.687   1.156  12.455 -0.8113  1.9273 -0.2352
11134TIP3   OH254816   6.558   6.206   5.905  0.3306  0.4470 -0.3133
11134TIP3    H154817   6.588   6.248   5.986  0.3387  0.9437 -0.5693
11134TIP3    H254818   6.606   6.124   5.901  0.6457  0.6162 -0.0303
11135TIP3   OH254819   3.768   0.428   2.803  0.1252 -0.5274  0.2073
11135TIP3    H154820   3.778   0.333   2.806  0.2412 -0.5034  1.1009
11135TIP3    H254821   3.855   0.462   2.824  0.6311 -0.1761 -2.2097
11136TIP3   OH254822   2.082   3.675   5.871 -0.9105  0.3673  0.3941
11136TIP3    H154823   2.002   3.713   5.907 -0.9038  0.0205  0.7853
11136TIP3    H254824   2.129   3.642   5.947 -1.1325 -0.8336  0.0280
11137TIP3   OH254825   6.219   3.161   4.272 -0.1300 -0.0270  0.0763
11137TIP3    H154826   6.156   3.127   4.208 -0.7436 -1.6301  1.4580
11137TIP3    H254827   6.270   3.084   4.298  0.3478  0.6722  1.2455
11138TIP3   OH254828   0.448   2.566  15.547 -0.6682 -0.1238 -0.1501
11138TIP3    H154829   0.357   2.592  15.536 -1.0093 -0.1596  2.1552
11138TIP3    H254830   0.494   2.648  15.565 -0.4499 -0.2566 -0.1039
11139TIP3   OH254831   2.689   2.874   1.379 -0.1995  0.4585 -0.3106
11139TIP3    H154832   2.649   2.788   1.389 -1.4391  1.1882  1.5682
11139TIP3    H254833   2.633   2.919   1.316  0.8133 -0.2546 -1.7921
11140TIP3   OH254834   5.566   5.836   5.832  0.1928  0.4074 -0.2511
11140TIP3    H154835   5.503   5.903   5.858  0.8953  0.4919  1.3974
11140TIP3    H254836   5.550   5.763   5.893  0.0240 -0.5806 -1.4433
11141TIP3   OH254837   1.523   3.083   2.987  0.1970  0.5280  0.3531
11141TIP3    H154838   1.545   3.092   2.894 -0.4899 -0.8192  0.0361
11141TIP3    H254839   1.484   2.996   2.994 -1.0031  1.1230  1.6537
11142TIP3   OH254840   4.958   6.644   0.696 -0.4569 -0.3704 -0.4064
11142TIP3    H154841   5.021   6.694   0.746 -2.0039 -0.7213  2.0732
11142TIP3    H254842   5.010   6.577   0.652  0.8753 -1.2456  2.2805
11143TIP3   OH254843   1.146   3.302  12.541  0.4294  0.1787  0.5420
11143TIP3    H154844   1.129   3.337  12.629  0.3674 -0.4942  0.8010
11143TIP3    H254845   1.071   3.245  12.524  0.5744  0.1028  0.1604
11144TIP3   OH254846   2.541   1.415   0.776  0.1900  0.3025 -0.1886
11144TIP3    H154847   2.481   1.398   0.703 -1.9058 -0.0693  1.5291
11144TIP3    H254848   2.532   1.509   0.793  0.0010  0.2268  0.1387
11145TIP3   OH254849   3.357   1.884   5.853 -0.0719 -0.2110  0.2432
11145TIP3    H154850   3.297   1.949   5.816 -1.0321 -2.0451 -1.6723
11145TIP3    H254851   3.442   1.905   5.814  0.0992  1.0871  1.2570
11146TIP3   OH254852   6.201   4.641   3.266  0.0587  0.0550 -0.8069
11146TIP3    H154853   6.157   4.708   3.213 -0.9571 -1.0948 -1.4788
11146TIP3    H254854   6.276   4.615   3.213  0.1955  0.3556 -0.7576
11147TIP3   OH254855   3.195   1.958  13.200 -0.7518 -0.7413  0.4312
11147TIP3    H154856   3.290   1.951  13.189 -0.6887 -1.7794  1.3679
11147TIP3    H254857   3.175   2.049  13.180  0.5179 -0.3733  0.7353
11148TIP3   OH254858   1.947   3.457   0.680  0.0194 -0.2347  0.5548
11148TIP3    H154859   1.949   3.414   0.766  1.2974  0.0331  0.6899
11148TIP3    H254860   1.879   3.411   0.631 -3.0036  1.5791  2.6930
11149TIP3   OH254861   3.716   5.476  11.395  0.0620  0.2979 -0.1270
11149TIP3    H154862   3.799   5.428  11.399 -0.0014  0.1438 -0.6201
11149TIP3    H254863   3.652   5.412  11.366 -0.2431  0.4045  0.3100
11150TIP3   OH254864   0.132   0.612  12.121  0.6285  0.0764  0.2485
11150TIP3    H154865   0.119   0.696  12.164 -0.0598 -0.0751  0.3411
11150TIP3    H254866   0.081   0.619  12.040 -1.1547 -0.9910  1.2181
11151TIP3   OH254867   6.405   4.154  12.060  0.2780  0.1223 -0.8736
11151TIP3    H154868   6.424   4.066  12.028  2.6725 -1.1327  3.2233
11151TIP3    H254869   6.489   4.199  12.054 -0.2086  1.1425 -0.1840
11152TIP3   OH254870   1.713   1.582   1.410 -0.1516  0.6706  0.3203
11152TIP3    H154871   1.750   1.508   1.362  1.5019  0.7328  1.4089
11152TIP3    H254872   1.622   1.587   1.380  0.6564  0.4489 -2.4425
11153TIP3   OH254873   6.459   5.929   0.376  0.0178  0.4179 -0.3232
11153TIP3    H154874   6.501   5.852   0.338  0.1329 -0.3886  1.3564
11153TIP3    H254875   6.366   5.915   0.362  0.0969  0.4732 -0.9125
11154TIP3   OH254876   0.144   0.893  14.161  0.0789 -0.1143 -0.1909
11154TIP3    H154877   0.195   0.973  14.148 -0.6391  0.8634  2.2724
11154TIP3    H254878   0.208   0.827  14.187  0.6021 -0.1794 -1.5939
11155TIP3   OH254879   4.261   1.040   2.092  0.0569  0.2091 -0.4208
11155TIP3    H154880   4.316   1.028   2.015  1.4521 -0.0552  0.5782
11155TIP3    H254881   4.207   0.961   2.095  0.1791  0.1002 -0.9795
11156TIP3   OH254882   5.006   6.041   1.988  0.4223  0.6589  0.0337
11156TIP3    H154883   4.923   6.068   1.948 -0.7818  0.2223  2.0725
11156TIP3    H254884   5.072   6.095   1.945 -0.9624  1.3046 -1.3855
11157TIP3   OH254885   0.887   2.132   2.831  0.1751 -0.5015  0.4065
11157TIP3    H154886   0.955   2.073   2.863  1.2063  0.9410  0.9590
11157TIP3    H254887   0.805   2.086   2.850  0.9259 -1.5998  1.1338
11158TIP3   OH254888   0.985   4.642  14.458  0.3352  0.3954  0.0303
11158TIP3    H154889   0.923   4.592  14.405 -0.2645  1.8160 -0.6722
11158TIP3    H254890   0.976   4.732  14.426  0.4672  1.1841  2.0931
11159TIP3   OH254891   2.273   4.832  12.300 -0.0405  0.1552 -0.1878
11159TIP3    H154892   2.277   4.922  12.268  3.1428  0.9090  1.9256
11159TIP3    H254893   2.353   4.791  12.268 -0.1132 -1.0748  1.1047
11160TIP3   OH254894   3.393   6.044  16.039  0.2729  0.4194 -0.4981
11160TIP3    H154895   3.342   6.125  16.041 -0.7486 -0.2188  0.5438
11160TIP3    H254896   3.435   6.040  16.126 -0.0047 -0.3624 -0.3923
11161TIP3   OH254897   5.380   3.028   0.865  0.1251  0.2663  0.1178
11161TIP3    H154898   5.380   3.064   0.953  0.9700  0.4045  0.0664
11161TIP3    H254899   5.407   3.100   0.809  0.7072 -0.1271 -0.1167
11162TIP3   OH254900   1.931   1.777   5.400 -0.0351  0.9942 -0.2117
11162TIP3    H154901   1.892   1.828   5.329  1.3236 -0.4877 -2.1444
11162TIP3    H254902   1.910   1.686   5.378  1.5023  0.4148  0.5862
11163TIP3   OH254903   0.995   2.134   4.311  0.1692 -0.2469  0.2781
11163TIP3    H154904   0.923   2.071   4.304  0.4524 -0.6627  0.9721
11163TIP3    H254905   1.071   2.081   4.337  0.9893  0.0197 -1.3947
11164TIP3   OH254906   1.289   0.697  17.539 -0.3281  0.3723  1.0565
11164TIP3    H154907   1.315   0.780  17.500 -0.2793  0.1234  0.5526
11164TIP3    H254908   1.367   0.642  17.533 -1.2221 -0.7319 -1.4249
11165TIP3   OH254909   3.594   2.431  16.685  0.2197 -0.2182  0.0788
11165TIP3    H154910   3.654   2.505  16.687 -1.5715  1.3562 -0.9168
11165TIP3    H254911   3.582   2.407  16.777  4.0845 -2.1836  0.2633
11166TIP3   OH254912   5.727   2.083   0.316  0.0893  0.2461 -0.1098
11166TIP3    H154913   5.662   2.084   0.245 -0.8100 -1.6591  0.6248
11166TIP3    H254914   5.799   2.137   0.282 -1.3360  1.4589 -1.4364
11167TIP3   OH254915   5.468   4.716   1.211 -0.1409 -0.4409  0.6172
11167TIP3    H154916   5.412   4.783   1.249 -0.1490 -0.3087  0.3760
11167TIP3    H254917   5.501   4.667   1.286  1.2801  0.9381  0.9609
11168TIP3   OH254918   4.517   1.059   6.331 -0.6314  0.0439  0.6161
11168TIP3    H154919   4.579   1.076   6.401 -0.3903 -1.3495  0.7731
11168TIP3    H254920   4.455   0.997   6.369 -1.6087  0.7276  0.1807
11169TIP3   OH254921   1.459   0.842  15.572 -0.3679 -0.1224  0.4219
11169TIP3    H154922   1.471   0.917  15.630  0.7529  0.5845 -0.6695
11169TIP3    H254923   1.366   0.844  15.549 -0.5607  0.3133  1.2138
11170TIP3   OH254924   1.207   2.343  16.368 -0.6624  0.2857  0.2319
11170TIP3    H154925   1.159   2.425  16.378 -0.5330  0.2599  1.0924
11170TIP3    H254926   1.260   2.336  16.447  0.4723  0.1151 -0.5124
11171TIP3   OH254927   3.890   0.446  12.031  0.3175  0.1254 -0.2502
11171TIP3    H154928   3.831   0.447  11.956  0.1576  1.3469 -0.1280
11171TIP3    H254929   3.865   0.523  12.083  0.4941 -0.6344  1.0029
11172TIP3   OH254930   0.282   1.179   4.859 -0.0722 -0.2399  0.0973
11172TIP3    H154931   0.289   1.167   4.765  2.2283  0.4584  0.1233
11172TIP3    H254932   0.325   1.263   4.877 -0.7270 -0.1996  1.7512
11173TIP3   OH254933   0.219   2.332   0.773 -0.4713 -0.0828 -0.4934
11173TIP3    H154934   0.144   2.276   0.791  0.6729 -0.8074  2.5368
11173TIP3    H254935   0.278   2.278   0.721 -1.8000  0.3944 -2.6382
11174TIP3   OH254936   5.854   4.284   6.141  0.1925  0.1633 -0.2162
11174TIP3    H154937   5.759   4.275   6.131  0.2723 -0.0446 -0.7938
11174TIP3    H254938   5.875   4.367   6.097 -0.0201  1.4128  1.8724
11175TIP3   OH254939   6.197   5.155   5.588 -0.1905 -0.0385  0.5549
11175TIP3    H154940   6.225   5.221   5.524 -3.4385  0.5204 -0.5048
11175TIP3    H254941   6.229   5.188   5.672  1.7274  0.7097 -0.4065
11176TIP3   OH254942   3.091   5.862   5.026  0.6962 -0.9356  0.0039
11176TIP3    H154943   3.094   5.799   5.098 -0.3806 -2.4640 -1.2182
11176TIP3    H254944   3.069   5.945   5.068 -1.9851 -2.1612  1.3048
11177TIP3   OH254945   4.045   0.578   1.369 -0.3942 -0.0759  0.2047
11177TIP3    H154946   4.126   0.623   1.346  0.2458 -0.9768  0.6324
11177TIP3    H254947   4.050   0.494   1.324 -0.8818 -0.3212  0.5906
11178TIP3   OH254948   4.016   4.410  15.284 -0.0506 -0.0434 -0.0423
11178TIP3    H154949   3.995   4.333  15.337  0.3397  0.2363  0.5322
11178TIP3    H254950   4.065   4.376  15.210  1.2016 -0.2341  0.8342
11179TIP3   OH254951   3.719   5.705  14.672  0.4042  0.1937 -0.1802
11179TIP3    H154952   3.811   5.706  14.699  0.3457  0.5055  0.0122
11179TIP3    H254953   3.684   5.789  14.703 -0.5061 -0.8291  1.7609
11180TIP3   OH254954   3.043   0.589   2.739  0.4192  0.0602  0.4636
11180TIP3    H154955   3.060   0.540   2.659  0.2113  0.1910  0.3392
11180TIP3    H254956   2.959   0.557   2.770  0.0019  0.7525  0.0651
11181TIP3   OH254957   1.579   1.425   2.194 -0.3404  0.1439  0.6982
11181TIP3    H154958   1.625   1.498   2.153  0.8783 -0.8442  0.2253
11181TIP3    H254959   1.592   1.439   2.288  0.2141  0.3379  0.5977
11182TIP3   OH254960   3.936   2.888   1.242 -0.0114 -0.3532  0.0651
11182TIP3    H154961   3.856   2.869   1.195  0.2378 -1.2770  0.0043
11182TIP3    H254962   4.003   2.835   1.200  0.5391  0.0258  0.4364
11183TIP3   OH254963   3.428   3.655   0.353 -0.0974 -0.1842  0.2904
11183TIP3    H154964   3.416   3.746   0.380  0.2708 -0.5287  1.6793
11183TIP3    H254965   3.339   3.620   0.347 -0.2472  0.2882 -0.3587
11184TIP3   OH254966   0.654   4.226  15.870  0.0360 -0.2156  0.1646
11184TIP3    H154967   0.653   4.136  15.902 -0.2011 -0.6647 -1.0761
11184TIP3    H254968   0.745   4.254  15.882  0.6250 -1.3438 -1.3513
11185TIP3   OH254969   4.423   4.686   3.634  0.3886 -0.4584  0.5590
11185TIP3    H154970   4.505   4.638   3.640  0.1986 -0.8259  0.2638
11185TIP3    H254971   4.380   4.651   3.556 -0.8006 -1.4654  1.6279
11186TIP3   OH254972   2.584   6.547  14.515 -0.7640  0.0617 -0.0478
11186TIP3    H154973   2.604   6.565  14.607 -2.1195  1.9517 -0.0608
11186TIP3    H254974   2.490   6.531  14.514 -1.1532  1.9952 -1.2957
11187TIP3   OH254975   5.719   3.450  15.658  0.4378 -0.1743  0.0003
11187TIP3    H154976   5.770   3.502  15.595  0.4318 -0.1661  0.0020
11187TIP3    H254977   5.629   3.483  15.649 -0.0962 -1.9445 -1.8733
11188TIP3   OH254978   4.396   2.980   5.300 -0.5204 -0.0209  0.6280
11188TIP3    H154979   4.303   2.998   5.292 -0.7143 -1.0693  0.2678
11188TIP3    H254980   4.439   3.053   5.255 -1.1520  0.5612  0.9519
11189TIP3   OH254981   1.656   0.628  13.236 -0.1546 -0.5590  0.1318
11189TIP3    H154982   1.573   0.643  13.281 -0.0365  1.5359 -0.2824
11189TIP3    H254983   1.648   0.540  13.199 -1.9162 -0.6416  0.6609
11190TIP3   OH254984   5.301   1.463  14.112 -0.1332 -0.1807 -0.0275
11190TIP3    H154985   5.392   1.475  14.139  0.0597 -1.3731 -0.0997
11190TIP3    H254986   5.250   1.476  14.192  0.1129  0.2475  0.0651
11191TIP3   OH254987   0.303   4.595   3.217  0.2708  0.4666 -0.5091
11191TIP3    H154988   0.266   4.675   3.180 -0.2832  1.1394  1.4060
11191TIP3    H254989   0.241   4.526   3.191  0.0090  0.8733 -0.9877
11192TIP3   OH254990   4.549   3.478  13.331 -0.0922  0.2842  0.3088
11192TIP3    H154991   4.487   3.476  13.404  1.4405  2.6866  1.8111
11192TIP3    H254992   4.507   3.538  13.268 -1.1784 -1.3942 -0.6348
11193TIP3   OH254993   4.463   5.271   2.579  0.1956 -0.1693  0.2788
11193TIP3    H154994   4.434   5.359   2.606  1.1259  0.1468  0.2749
11193TIP3    H254995   4.452   5.271   2.484  0.5746  0.0915  0.2323
11194TIP3   OH254996   4.720   5.881   0.120  0.3475  0.9664  0.0537
11194TIP3    H154997   4.660   5.945   0.082 -0.7037 -0.6301 -1.1288
11194TIP3    H254998   4.676   5.797   0.107  3.6836 -0.5840 -2.8542
11195TIP3   OH254999   2.197   2.645  12.517  0.4845 -0.1538  0.2391
11195TIP3    H155000   2.261   2.581  12.548  0.0157 -0.2048  1.1329
11195TIP3    H255001   2.136   2.595  12.463  0.6703 -0.2763  0.1420
11196TIP3   OH255002   2.985   2.907  14.024  0.5084  0.5017 -0.4299
11196TIP3    H155003   2.906   2.956  14.002  1.3422  1.0618 -2.4448
11196TIP3    H255004   2.953   2.820  14.048 -0.7760  1.0628 -0.0020
11197TIP3   OH255005   6.370   1.211   0.667  0.3585  0.4795  0.1472
11197TIP3    H155006   6.315   1.172   0.599  0.6860  1.2079 -0.5475
11197TIP3    H255007   6.342   1.303   0.671  2.6490  1.3334 -1.4417
11198TIP3   OH255008   2.544   1.160   5.680  0.2243 -0.5108  0.6786
11198TIP3    H155009   2.540   1.173   5.585  0.3816 -0.4043  0.6858
11198TIP3    H255010   2.638   1.165   5.701  0.1711 -0.3047  0.8721
11199TIP3   OH255011   2.217   0.390  13.912 -0.2502  0.2152  0.4558
11199TIP3    H155012   2.192   0.448  13.984 -1.6563  0.5993 -0.3234
11199TIP3    H255013   2.288   0.437  13.868  0.2118  0.2545  1.2215
11200TIP3   OH255014   2.819   4.374  13.604 -0.0432  0.2700  0.2064
11200TIP3    H155015   2.774   4.321  13.539  1.3738 -2.7834  1.5326
11200TIP3    H255016   2.765   4.367  13.682  0.8762 -0.4286  0.7952
11201TIP3   OH255017   0.720   3.557  17.183  0.4625 -0.1773 -1.1947
11201TIP3    H155018   0.729   3.472  17.225  1.0116 -0.2581 -1.4674
11201TIP3    H255019   0.702   3.537  17.091  3.0821 -0.0434 -1.8140
11202TIP3   OH255020   1.544   6.099   0.644  1.8031 -0.0334 -0.5230
11202TIP3    H155021   1.494   6.156   0.586  1.6233  0.0995 -0.2399
11202TIP3    H255022   1.552   6.017   0.595 -1.8006 -1.3836  0.7866
11203TIP3   OH255023   4.638   0.731  16.978  0.5983 -0.5017  0.3639
11203TIP3    H155024   4.607   0.732  17.069  1.8196  1.7228  0.8297
11203TIP3    H255025   4.728   0.698  16.984  0.1504 -1.8995 -0.2780
11204TIP3   OH255026   5.835   0.066   5.931  0.4639  0.0777 -0.2097
11204TIP3    H155027   5.835   0.095   5.840  0.0342  1.6536  0.2716
11204TIP3    H255028   5.928   0.063   5.955  0.6887 -1.7217 -1.0715
11205TIP3   OH255029   2.718   3.115  16.525 -0.4356 -0.1043 -0.5337
11205TIP3    H155030   2.624   3.101  16.533 -0.3959  0.7405  2.1743
11205TIP3    H255031   2.753   3.029  16.502 -1.7613 -0.6044 -0.7647
11206TIP3   OH255032   4.631   6.497   1.943 -0.3571  0.0163  0.2375
11206TIP3    H155033   4.596   6.558   1.878  1.4637 -0.0211 -0.8527
11206TIP3    H255034   4.571   6.504   2.018 -2.8563 -0.3222 -1.5824
11207TIP3   OH255035   4.832   4.534  13.948 -0.2415  0.1677  0.2510
11207TIP3    H155036   4.806   4.609  13.895 -0.3392 -0.0948 -0.0736
11207TIP3    H255037   4.928   4.532  13.942 -0.1423  0.9830  1.2418
11208TIP3   OH255038   0.762   4.398  14.614  0.5446 -1.1879  0.1833
11208TIP3    H155039   0.790   4.471  14.670  0.8358 -1.7458  0.7721
11208TIP3    H255040   0.773   4.431  14.525 -1.3077  0.2362  0.4197
11209TIP3   OH255041   5.566   0.735   4.694 -0.9277  0.8504 -0.2742
11209TIP3    H155042   5.605   0.650   4.713 -0.9591  1.0024  0.4979
11209TIP3    H255043   5.516   0.720   4.613 -0.1928  0.3783 -0.6614
11210TIP3   OH255044   2.092   1.506   3.463  0.0748  0.0637  0.5305
11210TIP3    H155045   2.163   1.516   3.399  0.1920 -0.4780  0.5654
11210TIP3    H255046   2.012   1.523   3.414  0.2680  1.7778  0.7354
11211TIP3   OH255047   1.472   1.098  16.345  0.3274  0.2019 -0.2937
11211TIP3    H155048   1.551   1.149  16.327  0.0041  0.9651  0.4001
11211TIP3    H255049   1.459   1.106  16.439 -1.3202  1.1879 -0.5722
11212TIP3   OH255050   5.373   1.226  16.831  0.2353 -0.0650  0.1026
11212TIP3    H155051   5.421   1.144  16.831  1.7745  0.7895 -1.0261
11212TIP3    H255052   5.281   1.200  16.837  0.7789 -1.7466  2.1194
11213TIP3   OH255053   2.284   2.789  13.068 -0.3711  0.2212 -0.2989
11213TIP3    H155054   2.335   2.730  13.124 -0.9951  0.1667  0.2238
11213TIP3    H255055   2.270   2.740  12.987 -1.0372 -0.4391  0.1982
11214TIP3   OH255056   4.513   2.391   0.660  0.0850  0.2644 -0.1557
11214TIP3    H155057   4.484   2.461   0.602  1.3321  0.9412  0.0058
11214TIP3    H255058   4.570   2.336   0.605 -1.9151 -1.4236 -0.6532
11215TIP3   OH255059   1.066   2.283   1.455  0.4571  0.2263 -0.1815
11215TIP3    H155060   1.136   2.265   1.517 -0.5662  0.4184  1.0681
11215TIP3    H255061   1.042   2.374   1.471 -1.7306 -0.5049  1.2147
11216TIP3   OH255062   1.640   3.091   3.719 -0.1883 -0.3639 -0.8680
11216TIP3    H155063   1.658   3.035   3.794 -0.3432  0.1036 -0.4723
11216TIP3    H255064   1.711   3.074   3.657  0.9104  0.4973  0.1084
11217TIP3   OH255065   1.901   4.933   5.957  0.0101  0.3230 -0.0087
11217TIP3    H155066   1.966   4.869   5.986 -0.2026 -0.8121 -1.8742
11217TIP3    H255067   1.833   4.930   6.024  0.1176 -1.2621  0.0637
11218TIP3   OH255068   6.172   5.662   2.849 -0.0493 -0.1914  0.5942
11218TIP3    H155069   6.135   5.733   2.797 -0.7628 -0.9425  0.0691
11218TIP3    H255070   6.138   5.582   2.809  0.4803 -0.8253  1.3845
11219TIP3   OH255071   0.529   2.720  12.914  0.5498 -0.1831 -0.2933
11219TIP3    H155072   0.504   2.733  13.006  1.7087  1.0718 -0.1284
11219TIP3    H255073   0.623   2.736  12.912  0.6877 -1.0185 -1.5723
11220TIP3   OH255074   0.969   2.084  11.938 -0.2354 -0.1049 -0.1494
11220TIP3    H155075   1.062   2.094  11.958 -0.2745 -0.4860  0.2495
11220TIP3    H255076   0.949   2.158  11.881  0.5513 -0.6039 -1.1150
11221TIP3   OH255077   0.140   3.562  11.417 -0.3333 -0.1269 -0.1433
11221TIP3    H155078   0.194   3.486  11.399 -2.4701 -1.7752  0.0017
11221TIP3    H255079   0.154   3.580  11.510  0.9281  0.3113 -0.4018
11222TIP3   OH255080   0.176   0.405  17.188  0.2345  0.3023  0.1213
11222TIP3    H155081   0.088   0.441  17.204  0.3656  1.9330 -2.3456
11222TIP3    H255082   0.235   0.476  17.214  0.7897 -0.3305  0.6146
11223TIP3   OH255083   2.905   2.873  14.913  0.3019  0.8969  0.2757
11223TIP3    H155084   2.988   2.886  14.960  0.9323  0.2411 -0.6129
11223TIP3    H255085   2.931   2.864  14.821 -0.7595  0.6657 -0.0142
11224TIP3   OH255086   0.726   6.239   1.684 -0.3978  0.0853  0.1145
11224TIP3    H155087   0.641   6.194   1.681 -0.2903 -0.7101  3.7891
11224TIP3    H255088   0.787   6.177   1.644 -1.1432 -0.4965 -0.1501
11225TIP3   OH255089   1.662   5.335   4.155 -0.4029 -0.4129 -0.3865
11225TIP3    H155090   1.624   5.286   4.227 -1.6723  0.5907 -0.3326
11225TIP3    H255091   1.622   5.298   4.076  0.4630 -1.0496 -0.5415
11226TIP3   OH255092   2.078   2.570   1.410 -0.0249  0.3600  0.0641
11226TIP3    H155093   2.103   2.533   1.494  0.5737  0.7830  0.0837
11226TIP3    H255094   2.111   2.508   1.345 -2.2779 -1.0226  0.1601
11227TIP3   OH255095   0.337   2.801   0.601  0.2200 -0.6884 -0.2030
11227TIP3    H155096   0.304   2.877   0.649 -1.2313 -1.4337  0.0187
11227TIP3    H255097   0.300   2.725   0.646 -0.1160 -1.4632 -1.7020
11228TIP3   OH255098   0.100   5.185   1.681  0.1982 -0.1627 -0.6476
11228TIP3    H155099   0.079   5.260   1.626 -0.2482  1.3365  1.4509
11228TIP3    H255100   0.065   5.208   1.767  1.2236 -2.2214  0.3916
11229TIP3   OH255101   0.347   3.075   3.700  0.3187 -0.1398  0.6964
11229TIP3    H155102   0.424   3.133   3.701  0.4659 -0.3279  1.6819
11229TIP3    H255103   0.313   3.080   3.789 -1.7553  1.1705 -0.0937
11230TIP3   OH255104   3.022   3.675  13.332  0.0220  0.2542  0.0317
11230TIP3    H155105   3.069   3.650  13.411  0.7320  1.7913  0.1366
11230TIP3    H255106   2.938   3.628  13.338  1.0266 -1.5790  0.4311
11231TIP3   OH255107   2.741   3.248  16.835 -0.0230 -0.3607 -0.4121
11231TIP3    H155108   2.681   3.195  16.782  0.3100 -0.8369 -0.3257
11231TIP3    H255109   2.693   3.328  16.854 -0.7593 -0.8690 -0.0752
11232TIP3   OH255110   4.540   5.875   0.741  1.0922  0.3957  0.1956
11232TIP3    H155111   4.603   5.941   0.769  1.4884  0.9799 -1.8848
11232TIP3    H255112   4.582   5.791   0.762  0.8150  0.7476  2.3626
11233TIP3   OH255113   2.385   5.303   0.147 -0.2173  0.1261  0.0743
11233TIP3    H155114   2.365   5.387   0.188 -1.2809  1.4474 -2.8818
11233TIP3    H255115   2.450   5.324   0.080  1.1869 -1.8402  0.7644
11234TIP3   OH255116   5.510   4.559  14.112 -0.3956 -0.2428 -0.4570
11234TIP3    H155117   5.601   4.586  14.105 -0.1196 -0.7119  1.0285
11234TIP3    H255118   5.462   4.640  14.131 -0.0988 -0.1923  0.0995
11235TIP3   OH255119   3.589   2.532   4.653  0.3048 -0.6826  0.4354
11235TIP3    H155120   3.587   2.465   4.721 -2.2434  0.6844  1.8409
11235TIP3    H255121   3.505   2.522   4.608  1.0277 -0.1243 -1.0825
11236TIP3   OH255122   6.274   6.168  12.949  0.2774 -0.6519  0.1655
11236TIP3    H155123   6.265   6.148  12.856 -1.3069 -0.9092  0.3429
11236TIP3    H255124   6.356   6.126  12.975 -0.3150 -2.4440 -0.6546
11237TIP3   OH255125   0.899   5.007  13.311 -0.0824 -0.1659  0.2089
11237TIP3    H155126   0.904   5.062  13.233  0.3894 -0.6603 -0.1198
11237TIP3    H255127   0.817   5.032  13.354 -0.5849 -0.2296 -0.6994
11238TIP3   OH255128   2.809   4.705   2.306 -0.4098  0.0245 -0.1924
11238TIP3    H155129   2.799   4.732   2.397  1.5621  1.5137 -0.3555
11238TIP3    H255130   2.903   4.687   2.296 -0.4640  0.5236 -2.0683
11239TIP3   OH255131   1.112   5.089  13.873  0.1849  0.0771 -0.5124
11239TIP3    H155132   1.028   5.133  13.871  0.5729  0.8407 -0.4395
11239TIP3    H255133   1.114   5.043  13.956  0.7913  1.9962  0.5986
11240TIP3   OH255134   0.232   2.432   2.720  0.5906 -0.3187 -0.2416
11240TIP3    H155135   0.200   2.508   2.768 -0.6389 -1.5367  0.9502
11240TIP3    H255136   0.223   2.456   2.628 -1.6800  0.2508  0.0766
11241TIP3   OH255137   5.815   6.222   5.646  0.0177  0.1031  0.3087
11241TIP3    H155138   5.909   6.203   5.651  0.1400  0.6255  0.0541
11241TIP3    H255139   5.773   6.141   5.674  0.5471 -0.0512  0.6763
11242TIP3   OH255140   0.760   5.658  14.319 -0.4122  0.0229 -0.0728
11242TIP3    H155141   0.817   5.665  14.242 -0.5657 -0.4124 -0.2341
11242TIP3    H255142   0.819   5.630  14.390 -0.3363  0.0531 -0.1238
11243TIP3   OH255143   1.225   2.820   3.434  0.1454 -0.4509 -0.0037
11243TIP3    H155144   1.230   2.732   3.397  0.4997 -0.4661  0.0735
11243TIP3    H255145   1.226   2.807   3.528 -1.6084 -0.4592  0.0451
11244TIP3   OH255146   1.551   3.884   3.060  0.0549  0.6963  0.4776
11244TIP3    H155147   1.589   3.800   3.031  0.9772  0.3212  2.5997
11244TIP3    H255148   1.488   3.906   2.991  0.5703 -1.1840 -0.6922
11245TIP3   OH255149   5.673   6.014   6.365  0.0326 -0.3312 -0.3480
11245TIP3    H155150   5.633   5.946   6.420 -1.7718  1.0904  0.1887
11245TIP3    H255151   5.714   6.074   6.427 -0.4963  0.3456 -0.6325
11246TIP3   OH255152   0.766   2.684   2.923  0.3713  0.0894 -0.1036
11246TIP3    H155153   0.782   2.590   2.923 -2.3036 -0.4426  0.8533
11246TIP3    H255154   0.851   2.723   2.946  1.5741 -2.0310 -0.7107
11247TIP3   OH255155   4.951   0.329  17.199 -0.1436 -0.7219  0.2639
11247TIP3    H155156   5.032   0.302  17.155 -0.5528  0.6177 -1.4281
11247TIP3    H255157   4.965   0.308  17.291  2.0797 -0.6381 -0.0094
11248TIP3   OH255158   1.366   0.570  13.273  0.5933 -0.2276 -0.5210
11248TIP3    H155159   1.293   0.517  13.243  1.7211 -0.4210 -3.2252
11248TIP3    H255160   1.345   0.591  13.364 -2.4339 -0.8567 -0.9660
11249TIP3   OH255161   0.630   5.014   4.099 -0.0770  0.3667  0.0583
11249TIP3    H155162   0.654   5.024   4.192  0.1250  0.3472  0.0080
11249TIP3    H255163   0.536   5.000   4.101 -0.1588  0.9101  0.2260
11250TIP3   OH255164   3.291   2.916   3.726 -0.0155  0.1928 -0.0335
11250TIP3    H155165   3.229   2.878   3.664 -0.4616  1.1069 -0.1616
11250TIP3    H255166   3.309   2.846   3.788 -2.5516  0.4207  1.0602
11251TIP3   OH255167   0.119   6.423  11.286  0.1425 -0.7693 -0.1744
11251TIP3    H155168   0.074   6.460  11.210  1.9810  1.2057 -0.4028
11251TIP3    H255169   0.096   6.482  11.358  0.3146 -1.2252  0.2528
11252TIP3   OH255170   4.037   3.842  15.482 -0.0082  0.4198  0.1369
11252TIP3    H155171   3.955   3.876  15.446 -0.3631  0.3491  0.8504
11252TIP3    H255172   4.011   3.803  15.566  0.3004 -1.9968 -0.8060
11253TIP3   OH255173   1.823   5.655   0.145  0.1515  0.2487 -0.1059
11253TIP3    H155174   1.747   5.644   0.202 -0.2391 -1.3697 -0.9029
11253TIP3    H255175   1.898   5.649   0.205 -0.1900 -2.8341  0.1732
11254TIP3   OH255176   4.825   0.929  16.305  0.4453 -0.3701  0.3521
11254TIP3    H155177   4.776   0.980  16.240  3.5818  2.3076 -0.1750
11254TIP3    H255178   4.876   0.867  16.253  1.1457  0.1065  0.4698
11255TIP3   OH255179   0.445   4.643  12.736  0.2759  0.4369 -0.0825
11255TIP3    H155180   0.370   4.627  12.678 -0.4522  2.5905  0.1696
11255TIP3    H255181   0.410   4.632  12.824  0.6286  0.1241  0.0240
11256TIP3   OH255182   0.506   1.335  12.014 -0.2233  0.2374  0.7928
11256TIP3    H155183   0.476   1.335  12.105 -2.0349  1.4186  0.2473
11256TIP3    H255184   0.433   1.300  11.964  0.4916  0.2398 -0.2819
11257TIP3   OH255185   2.777   1.292   0.650  0.0763  0.3389 -0.0144
11257TIP3    H155186   2.854   1.294   0.706 -0.1202  1.5990  0.2487
11257TIP3    H255187   2.703   1.300   0.710 -0.2265 -0.2063 -0.3121
11258TIP3   OH255188   6.276   6.144   2.402  0.3027 -0.3169 -0.3292
11258TIP3    H155189   6.301   6.103   2.319 -1.6993 -0.6458 -0.8118
11258TIP3    H255190   6.290   6.075   2.467  0.0026 -0.7127 -0.6800
11259TIP3   OH255191   2.052   0.009   3.343 -0.0867  0.2541 -0.3046
11259TIP3    H155192   1.982   0.054   3.391 -0.9293 -0.2545 -1.0329
11259TIP3    H255193   2.009  -0.027   3.265  0.5120 -1.8838  0.2677
11260TIP3   OH255194   1.739   4.670   2.996 -0.3329 -0.2754  0.4913
11260TIP3    H155195   1.660   4.679   2.943 -0.4517  1.8059  0.9593
11260TIP3    H255196   1.709   4.681   3.086  0.4724  0.4911  0.6763
11261TIP3   OH255197   3.600   3.603  16.036 -0.2719 -0.1267 -0.5720
11261TIP3    H155198   3.602   3.547  16.114  1.7789  0.2809 -0.2888
11261TIP3    H255199   3.634   3.548  15.966  4.2310  1.2654  0.1894
11262TIP3   OH255200   1.903   4.040   2.146 -0.3929 -0.0584  0.1308
11262TIP3    H155201   1.965   4.066   2.215 -0.7432  1.4436 -0.0876
11262TIP3    H255202   1.906   3.945   2.146  1.5227 -0.0376  0.4875
11263TIP3   OH255203   6.618   6.390  11.588  0.5520  0.7404  0.4435
11263TIP3    H155204   6.565   6.462  11.553 -1.7724 -0.6273  0.9856
11263TIP3    H255205   6.589   6.381  11.679  0.4063 -1.1920  0.2423
11264TIP3   OH255206   1.984   2.843  16.285 -0.2843 -0.6429 -0.2139
11264TIP3    H155207   1.954   2.929  16.256  0.8414  0.1179  0.7745
11264TIP3    H255208   1.925   2.819  16.356  1.2887  0.8248  1.6972
11265TIP3   OH255209   4.330   3.172  13.913  0.1354 -0.0532 -0.2740
11265TIP3    H155210   4.380   3.131  13.842  0.2477 -0.5926  0.1166
11265TIP3    H255211   4.367   3.260  13.920 -0.3686  0.2692 -1.3809
11266TIP3   OH255212   0.440   6.074  11.484 -0.2571  0.0941 -0.4083
11266TIP3    H155213   0.406   6.086  11.573  0.7277 -0.1602  0.0134
11266TIP3    H255214   0.529   6.111  11.487 -0.6224  1.1505 -1.6058
11267TIP3   OH255215   5.811   2.965   5.967 -0.2060  0.0247  0.5143
11267TIP3    H155216   5.848   2.974   5.879  1.5835  0.3928  1.2623
11267TIP3    H255217   5.864   3.023   6.021 -3.3498  2.4541  1.3106
11268TIP3   OH255218   3.813   4.581  16.431 -0.1044 -0.0845 -0.1471
11268TIP3    H155219   3.774   4.564  16.517 -1.1035  2.6360  0.0082
11268TIP3    H255220   3.739   4.590  16.372  0.5377 -0.5498 -1.0527
11269TIP3   OH255221   2.234   5.222   4.750  0.1002  0.1930 -0.3348
11269TIP3    H155222   2.253   5.162   4.677  1.0951 -2.4464  1.9078
11269TIP3    H255223   2.140   5.216   4.761 -0.0415  0.4835 -1.2858
11270TIP3   OH255224   1.499   3.520   2.161  0.4850 -0.1186  0.0089
11270TIP3    H155225   1.567   3.579   2.131 -0.2874  1.0870  0.5651
11270TIP3    H255226   1.529   3.491   2.248  0.3288  0.3611  0.2263
11271TIP3   OH255227   4.807   3.235  13.811 -0.0628 -0.6062 -0.0621
11271TIP3    H155228   4.875   3.205  13.871  0.4953  0.2722 -0.2423
11271TIP3    H255229   4.808   3.330  13.820 -1.5533 -0.5913  0.2331
11272TIP3   OH255230   4.363   1.053   3.308  1.0356 -0.2340 -0.7886
11272TIP3    H155231   4.457   1.036   3.310  1.2093  0.7555 -0.1879
11272TIP3    H255232   4.323   0.966   3.316  1.8871 -0.6694 -1.1268
11273TIP3   OH255233   3.181   6.146  15.791 -0.3544  0.4244 -0.1293
11273TIP3    H155234   3.119   6.196  15.738 -1.8787  0.8228  1.9325
11273TIP3    H255235   3.190   6.063  15.744 -1.2872  0.9145 -1.2333
11274TIP3   OH255236   4.081   5.310  11.683 -0.5380 -0.1650  0.0372
11274TIP3    H155237   4.098   5.329  11.775 -1.2533  0.1399  0.1147
11274TIP3    H255238   4.159   5.264  11.653 -0.6640 -1.0657  1.0317
11275TIP3   OH255239   5.800   1.911   3.490  0.3387  0.1230 -0.7931
11275TIP3    H155240   5.715   1.876   3.462  0.2090 -0.3265  0.1323
11275TIP3    H255241   5.832   1.847   3.554  0.8173  0.9128 -0.2327
11276TIP3   OH255242   1.013   2.695  11.126 -0.4361 -0.6013  0.2607
11276TIP3    H155243   1.072   2.681  11.052  2.0247  0.6269  1.8538
11276TIP3    H255244   1.032   2.622  11.185 -3.1599 -2.1934 -0.6402
11277TIP3   OH255245   2.876   1.391  11.889  0.1922  0.6672  0.2922
11277TIP3    H155246   2.906   1.300  11.891  1.0644  0.9558  2.0827
11277TIP3    H255247   2.794   1.388  11.840 -0.0585 -1.1663  0.7514
11278TIP3   OH255248   3.532   4.359  14.344  0.2999  0.2353 -0.1420
11278TIP3    H155249   3.587   4.322  14.413  1.0979 -0.0257 -0.8982
11278TIP3    H255250   3.521   4.288  14.282  0.0896  0.6464 -0.5760
11279TIP3   OH255251   4.745   1.229   5.244  0.3581 -0.4368  0.3964
11279TIP3    H155252   4.816   1.195   5.190  1.5864 -0.2460  1.8341
11279TIP3    H255253   4.676   1.162   5.238  1.2296 -1.3303  0.1419
11280TIP3   OH255254   2.518   3.861   0.454  0.0636  0.2376  0.0703
11280TIP3    H155255   2.482   3.941   0.416  1.3441  1.4057  1.1952
11280TIP3    H255256   2.583   3.832   0.390  0.4989  0.8289  0.2340
11281TIP3   OH255257   5.806   2.952  11.705 -0.2895 -0.0040  0.5011
11281TIP3    H155258   5.840   2.984  11.621  0.2756 -0.2794  0.6216
11281TIP3    H255259   5.801   3.031  11.760 -0.2486  0.1068  0.3466
11282TIP3   OH255260   5.555   1.905  17.613 -0.4060 -0.3431 -0.0474
11282TIP3    H155261   5.550   1.995  17.645  0.0043 -0.4333  0.2877
11282TIP3    H255262   5.469   1.888  17.575 -0.2722  0.4035 -0.7081
11283TIP3   OH255263   4.469   6.215   0.931  0.2829 -0.1216 -0.0112
11283TIP3    H155264   4.543   6.161   0.902  0.8323  1.6410 -2.2238
11283TIP3    H255265   4.417   6.157   0.986  2.9357 -1.6369  1.0778
11284TIP3   OH255266   3.460   4.607  13.155  0.1312 -0.0470  0.3193
11284TIP3    H155267   3.499   4.664  13.089  0.5060 -2.2666 -1.5030
11284TIP3    H255268   3.502   4.631  13.237 -0.4367  2.8905 -0.1597
11285TIP3   OH255269   4.789   0.897   3.120  0.0288 -0.3845 -0.1048
11285TIP3    H155270   4.796   0.991   3.103 -2.2697 -0.0161  0.6532
11285TIP3    H255271   4.874   0.861   3.093  1.1385  1.9545  0.0482
11286TIP3   OH255272   3.338   1.493   0.211 -0.9387 -0.0645 -0.1285
11286TIP3    H155273   3.365   1.453   0.294 -0.1093  0.8719  0.0738
11286TIP3    H255274   3.348   1.424   0.146 -0.8648 -0.5839  0.4267
11287TIP3   OH255275   6.468   5.985   5.602  0.2822 -0.0414 -0.1924
11287TIP3    H155276   6.493   6.071   5.569  0.6893  0.4062  1.2158
11287TIP3    H255277   6.376   5.994   5.627  0.8865  0.7157  2.0503
11288TIP3   OH255278   5.320   5.765   4.915  0.3082  0.0253 -0.4528
11288TIP3    H155279   5.246   5.726   4.869 -1.3755  2.0496  0.3620
11288TIP3    H255280   5.397   5.718   4.882 -1.3977 -3.0049 -0.4179
11289TIP3   OH255281   0.917   0.256  12.512  0.5007  0.0643  0.2590
11289TIP3    H155282   1.004   0.297  12.511  0.4897  0.0823 -0.2357
11289TIP3    H255283   0.898   0.239  12.420 -0.1960  0.4330  0.3256
11290TIP3   OH255284   3.487   3.487  11.048  0.8999 -0.2048 -0.2003
11290TIP3    H155285   3.501   3.555  11.114  2.2762  1.2155 -1.8345
11290TIP3    H255286   3.561   3.428  11.059  0.6906 -0.4236  0.0418
11291TIP3   OH255287   2.836   2.360   2.262 -0.3519 -0.2495 -0.1698
11291TIP3    H155288   2.763   2.399   2.310 -2.3686 -1.4477 -2.0615
11291TIP3    H255289   2.797   2.326   2.181  2.2290 -1.4157 -1.0614
11292TIP3   OH255290   2.817   5.606   4.156 -0.7508 -0.2862  0.4343
11292TIP3    H155291   2.811   5.553   4.236 -1.8545 -0.6023  0.1548
11292TIP3    H255292   2.852   5.690   4.186 -1.5995 -0.2308  1.3393
11293TIP3   OH255293   5.064   1.667   5.056 -0.0985  0.6073 -0.0220
11293TIP3    H155294   5.028   1.754   5.075  0.1127  0.4342  1.3255
11293TIP3    H255295   5.141   1.661   5.113  1.0204  0.2643 -1.5136
11294TIP3   OH255296   2.228   4.868  17.279 -0.1112  0.2418  0.4580
11294TIP3    H155297   2.197   4.956  17.299 -0.6949  0.1204  0.1216
11294TIP3    H255298   2.178   4.842  17.202 -0.5586 -0.7052  1.0437
11295TIP3   OH255299   6.287   6.275   1.003 -0.0073 -0.0700 -0.0733
11295TIP3    H155300   6.258   6.268   0.912  0.7903 -0.6489 -0.2887
11295TIP3    H255301   6.252   6.360   1.032 -1.5054 -0.5207 -0.4535
11296TIP3   OH255302   3.198   1.863   4.132  0.5638 -0.0960 -0.3259
11296TIP3    H155303   3.187   1.947   4.177 -1.5866 -1.2059  1.3959
11296TIP3    H255304   3.116   1.849   4.086  1.0975 -1.0277 -1.0300
11297TIP3   OH255305   2.382   1.731  12.036 -0.0890  0.4738  0.4575
11297TIP3    H155306   2.425   1.685  12.108  2.6072  1.6037 -0.2964
11297TIP3    H255307   2.290   1.709  12.045  0.6926 -3.0510  1.5611
11298TIP3   OH255308   0.757   6.039   2.265 -0.1910  0.0224  0.3712
11298TIP3    H155309   0.768   6.042   2.170 -0.2301  0.8897  0.3836
11298TIP3    H255310   0.845   6.029   2.300 -0.2090 -0.6259  0.2343
11299TIP3   OH255311   2.133   3.868   1.956  0.2942  0.2919 -0.1492
11299TIP3    H155312   2.103   3.885   2.045  0.2567 -0.7163  0.0477
11299TIP3    H255313   2.065   3.907   1.900 -0.5906 -0.5862  0.2819
11300TIP3   OH255314   1.151   5.386   1.701 -0.5185 -0.2487 -0.0103
11300TIP3    H155315   1.112   5.460   1.747  0.6117 -0.1206  0.7896
11300TIP3    H255316   1.122   5.395   1.610  0.2606  1.6510 -0.1022
11301TIP3   OH255317   3.330   5.241   4.638  0.4523  0.0873 -0.5004
11301TIP3    H155318   3.412   5.281   4.664  0.2274 -0.0982  0.5332
11301TIP3    H255319   3.267   5.313   4.636  0.0690 -0.1417  1.2666
11302TIP3   OH255320   4.149   5.057  12.763  0.2133  0.3527 -1.2143
11302TIP3    H155321   4.191   4.973  12.779 -1.0025  0.2057  1.7938
11302TIP3    H255322   4.088   5.041  12.691 -1.7465 -2.0771  0.8221
11303TIP3   OH255323   1.748   2.418   4.587  0.4982  0.3387 -0.3411
11303TIP3    H155324   1.707   2.437   4.502 -1.1616  1.7385  0.7065
11303TIP3    H255325   1.701   2.341   4.619  0.7521  0.1410 -0.4372
11304TIP3   OH255326   2.748   0.766   3.119  0.3107 -0.2582 -0.3753
11304TIP3    H155327   2.713   0.761   3.030 -0.4179  1.2601 -0.1925
11304TIP3    H255328   2.674   0.794   3.173  1.2106  0.7015  0.3969
11305TIP3   OH255329   3.266   0.625   4.248  0.2028  0.0578  0.9049
11305TIP3    H155330   3.350   0.664   4.271  0.2286  0.4747  0.1169
11305TIP3    H255331   3.224   0.607   4.333  0.0134  2.1653  1.3231
11306TIP3   OH255332   5.285   5.940   1.692 -0.0721  0.1725  0.3161
11306TIP3    H155333   5.304   5.969   1.782  0.1318 -0.6566  0.5456
11306TIP3    H255334   5.344   5.993   1.638  1.1315 -0.5993  0.8196
11307TIP3   OH255335   0.467   0.547  17.349  0.3305  0.1533  0.7369
11307TIP3    H155336   0.461   0.458  17.383  0.8897  0.3626  1.3973
11307TIP3    H255337   0.502   0.598  17.422 -2.1128  1.3707  1.1648
11308TIP3   OH255338   5.341   5.696  15.917 -0.3306  0.4692 -0.2487
11308TIP3    H155339   5.300   5.765  15.968 -0.7139 -0.5835  0.9151
11308TIP3    H255340   5.379   5.637  15.982 -0.0277 -0.4331 -1.2135
11309TIP3   OH255341   2.498   0.399   1.165  0.5849 -0.2125 -0.2130
11309TIP3    H155342   2.412   0.365   1.189  0.7352 -0.0111  0.6476
11309TIP3    H255343   2.543   0.412   1.248  1.1752  0.3945 -0.6134
11310TIP3   OH255344   3.729   0.374   3.911 -0.0240  0.0071  0.1498
11310TIP3    H155345   3.788   0.433   3.864  0.0763 -0.4617 -0.3263
11310TIP3    H255346   3.781   0.340   3.983  0.3274 -0.4796 -0.3242
11311TIP3   OH255347   4.563   5.106  14.690 -0.0818 -0.1296  0.1819
11311TIP3    H155348   4.579   5.045  14.618 -4.6120 -0.3632 -0.9445
11311TIP3    H255349   4.557   5.192  14.648  1.8718  0.5262  1.1104
11312TIP3   OH255350   1.161   1.276   3.011 -0.0177  0.6000  0.3754
11312TIP3    H155351   1.218   1.303   3.083 -0.2955  0.0728  0.8090
11312TIP3    H255352   1.178   1.182   3.002  2.6158  1.2098 -2.6127
11313TIP3   OH255353   5.219   5.216  15.425  0.3151  0.4114  0.1280
11313TIP3    H155354   5.192   5.132  15.387  0.7583 -0.6524  2.0360
11313TIP3    H255355   5.161   5.227  15.501  1.8354  0.6034  1.3021
11314TIP3   OH255356   0.007   4.648   1.662 -0.0889 -0.1570  0.0912
11314TIP3    H155357   0.098   4.677   1.665 -0.1222 -0.1349  1.6301
11314TIP3    H255358  -0.044   4.728   1.665 -0.2042 -0.0817 -2.1545
11315TIP3   OH255359   1.983   1.472   1.768 -0.0482 -0.1058  0.2453
11315TIP3    H155360   2.038   1.401   1.801 -1.2140 -1.1414  0.0170
11315TIP3    H255361   1.904   1.428   1.736 -1.2884  1.3951  1.1294
11316TIP3   OH255362   2.076   1.817  12.528  0.0910  0.3387  0.2563
11316TIP3    H155363   2.081   1.732  12.572 -0.1508  0.7216  1.0398
11316TIP3    H255364   2.033   1.798  12.445  0.4140 -0.3720  0.2409
11317TIP3   OH255365   5.296   0.790  17.305 -0.1368 -0.2451  0.1861
11317TIP3    H155366   5.266   0.840  17.229  1.0885 -0.2813 -0.3630
11317TIP3    H255367   5.344   0.853  17.358  3.6200 -1.1193 -1.7374
11318TIP3   OH255368   1.553   2.279   1.331 -0.1862  0.1913 -0.1881
11318TIP3    H155369   1.509   2.290   1.416 -0.2206 -0.2505 -0.1448
11318TIP3    H255370   1.571   2.368   1.302 -2.2167  0.4477 -0.7869
11319TIP3   OH255371   6.172   5.919   3.561 -0.2204  0.1449  0.0245
11319TIP3    H155372   6.152   5.851   3.496  0.5320  1.5137 -1.7077
11319TIP3    H255373   6.209   5.871   3.634  1.4774 -1.2545 -1.6474
11320TIP3   OH255374   1.205   1.548  13.353 -0.1934 -0.2119  0.2275
11320TIP3    H155375   1.165   1.462  13.335 -0.3160 -0.2357  0.6024
11320TIP3    H255376   1.252   1.570  13.272 -2.4215  0.6420 -0.9270
11321TIP3   OH255377   2.898   5.391   3.902 -0.1629  0.4954 -0.0713
11321TIP3    H155378   2.959   5.322   3.928 -0.2214 -0.4749 -2.2463
11321TIP3    H255379   2.939   5.472   3.932  0.6099 -0.3634  1.3006
11322TIP3   OH255380   6.163   5.757  13.504 -0.0360 -0.3074 -0.4553
11322TIP3    H155381   6.258   5.748  13.499  0.0406  0.6563 -1.1468
11322TIP3    H255382   6.149   5.826  13.569 -0.2373 -0.1476 -0.6651
11323TIP3   OH255383   4.866   6.299   5.623 -0.6435 -0.9657 -0.3582
11323TIP3    H155384   4.898   6.363   5.687 -0.4488 -2.5868  1.2460
11323TIP3    H255385   4.942   6.242   5.607 -0.5363 -0.3271 -2.4662
11324TIP3   OH255386   6.580   1.511  13.744 -0.5764  0.1625 -0.3197
11324TIP3    H155387   6.662   1.470  13.770 -0.5232  1.4949  1.8441
11324TIP3    H255388   6.603   1.602  13.726 -1.6187  0.6533  0.7164
11325TIP3   OH255389   2.889   0.017   2.907  0.8312  0.5599  0.2053
11325TIP3    H155390   2.808   0.025   2.958  1.0473  0.6892  0.5330
11325TIP3    H255391   2.950  -0.027   2.966  1.0597  0.6395  0.0288
11326TIP3   OH255392   2.593   3.217  17.295  0.0745 -0.7397 -0.5896
11326TIP3    H155393   2.656   3.257  17.235 -0.0932  0.4491 -0.0084
11326TIP3    H255394   2.513   3.268  17.283 -0.0614 -0.6922  0.3886
11327TIP3   OH255395   3.910   2.604   0.041  0.3427 -0.3479  0.5418
11327TIP3    H155396   3.845   2.631   0.105  1.0481  0.3639  0.9825
11327TIP3    H255397   3.962   2.537   0.086  0.1554 -0.6372  0.3302
11328TIP3   OH255398   1.031   3.897  10.512  0.3053  0.0709  0.4387
11328TIP3    H155399   1.023   3.985  10.477 -0.7723  0.9649  2.7604
11328TIP3    H255400   1.093   3.905  10.585  2.6169 -1.7579 -1.1402
11329TIP3   OH255401   4.304   0.677  16.053  0.1432  0.3799  0.5228
11329TIP3    H155402   4.365   0.742  16.088  0.3748 -0.0200  0.8793
11329TIP3    H255403   4.359   0.620  15.999  0.1797 -0.2251  1.1682
11330TIP3   OH255404   5.954   5.464   3.775 -0.1169 -0.0874 -0.0514
11330TIP3    H155405   5.980   5.556   3.765 -0.3933 -0.0269 -0.2156
11330TIP3    H255406   6.011   5.416   3.714 -1.9922  0.3086 -2.2629
11331TIP3   OH255407   6.084   0.149  12.585 -0.7644 -0.3209 -0.1959
11331TIP3    H155408   6.176   0.176  12.586 -1.5195  2.6333  2.1594
11331TIP3    H255409   6.063   0.133  12.677 -3.0767  0.9801 -0.4305
11332TIP3   OH255410   4.793   6.164   1.179  0.4101  0.2998  0.5577
11332TIP3    H155411   4.835   6.130   1.258 -1.6998  0.6668  1.9124
11332TIP3    H255412   4.817   6.257   1.177 -0.2282  0.4905  1.2802
11333TIP3   OH255413   6.350   0.183   5.474  0.0920 -0.0657  0.0993
11333TIP3    H155414   6.260   0.154   5.461  0.4844 -0.4853 -2.3589
11333TIP3    H255415   6.400   0.130   5.411  1.8776  0.9405  0.6282
11334TIP3   OH255416   2.035   3.021  11.780 -0.4308  0.1682  0.7382
11334TIP3    H155417   2.035   3.067  11.696  1.1383  1.4074  1.3814
11334TIP3    H255418   2.023   2.929  11.756  1.1354  0.3490 -0.9524
11335TIP3   OH255419   2.043   3.004  17.587 -0.1334  0.7723 -0.6892
11335TIP3    H155420   1.978   3.070  17.612 -1.4355  0.0028 -1.9007
11335TIP3    H255421   1.997   2.920  17.597  1.0564  0.1235 -0.4589
11336TIP3   OH255422   4.949   1.773  16.013  0.0077  0.1264 -0.5946
11336TIP3    H155423   4.965   1.688  16.055 -0.2637 -0.1317 -1.0013
11336TIP3    H255424   4.875   1.757  15.954  1.7216 -0.1104 -2.8028
11337TIP3   OH255425   2.395   3.355   5.376 -0.2071 -0.1449 -0.8143
11337TIP3    H155426   2.470   3.360   5.435  0.9068  2.5214 -2.2865
11337TIP3    H255427   2.320   3.342   5.434  1.0932 -0.2273  0.9329
11338TIP3   OH255428   6.462   1.829   2.107 -0.5018 -0.2162  0.3234
11338TIP3    H155429   6.497   1.887   2.040 -1.3202  0.4075  0.4313
11338TIP3    H255430   6.368   1.843   2.105 -0.9008 -2.6062 -0.6404
11339TIP3   OH255431   4.069   3.157   3.617 -0.1310  0.6699  0.5638
11339TIP3    H155432   4.101   3.067   3.606 -2.2207  0.0118 -1.0504
11339TIP3    H255433   4.126   3.209   3.560  1.5779  0.5460  2.0886
11340TIP3   OH255434   4.189   3.927  17.502 -0.7860 -0.0425  0.1480
11340TIP3    H155435   4.115   3.934  17.562 -1.3681 -1.2490 -0.4076
11340TIP3    H255436   4.182   4.004  17.445 -2.1235 -0.5986 -0.4666
11341TIP3   OH255437   0.170   2.100   2.677  0.0197  0.4408 -0.1436
11341TIP3    H155438   0.155   2.049   2.756 -1.8460  1.9766  0.5594
11341TIP3    H255439   0.210   2.038   2.616 -0.5426 -1.3609  1.2328
11342TIP3   OH255440   1.033   3.258   4.356  0.2114  0.0413  0.2802
11342TIP3    H155441   0.997   3.176   4.322  0.4008  0.0332  0.0969
11342TIP3    H255442   1.125   3.237   4.374 -0.0287 -0.1327  1.3713
11343TIP3   OH255443   2.117   5.000  15.657 -0.1272  0.5336 -0.3174
11343TIP3    H155444   2.190   4.969  15.603 -0.0389  0.8417 -0.3727
11343TIP3    H255445   2.129   5.094  15.663 -0.3194  0.5408 -0.0240
11344TIP3   OH255446   5.014   2.411  12.307  0.3120 -0.0844  0.3049
11344TIP3    H155447   4.981   2.395  12.219 -1.7271  2.6413  0.4349
11344TIP3    H255448   5.022   2.324  12.346 -1.2243 -1.2228 -1.7093
11345TIP3   OH255449   2.896   4.435   6.458  0.0927 -0.2587  0.1670
11345TIP3    H155450   2.990   4.423   6.444 -0.0110  1.4334 -2.7589
11345TIP3    H255451   2.891   4.514   6.513  0.3539 -0.5422  0.6105
11346TIP3   OH255452   0.965   6.450   0.781 -0.9572  0.2290  0.1430
11346TIP3    H155453   0.929   6.362   0.789 -2.4152  0.4955 -2.2681
11346TIP3    H255454   0.892   6.508   0.803 -0.3026  0.8593  0.7308
11347TIP3   OH255455   3.323   0.881  16.757  0.1794  0.0753  0.3374
11347TIP3    H155456   3.338   0.796  16.714  1.2425 -0.2262  1.2716
11347TIP3    H255457   3.373   0.876  16.838 -0.5141  1.2511  0.8584
11348TIP3   OH255458   5.769   1.960   3.790  0.2368 -0.0376  0.7957
11348TIP3    H155459   5.829   2.029   3.819  2.0137 -1.1747  0.0157
11348TIP3    H255460   5.693   2.007   3.757  0.3722  1.4385  2.4513
11349TIP3   OH255461   3.350   3.082   2.637 -0.3707  0.2084 -0.3662
11349TIP3    H155462   3.346   3.078   2.732  1.6119  0.7273 -0.2150
11349TIP3    H255463   3.407   3.009   2.612 -0.1826  0.5825 -1.0741
11350TIP3   OH255464   2.031   4.303  12.008 -0.2075  0.3613 -0.4900
11350TIP3    H155465   2.067   4.221  12.044 -2.2699 -0.4028 -0.0297
11350TIP3    H255466   2.051   4.369  12.075  0.1596 -0.0672 -0.1706
11351TIP3   OH255467   5.131   0.063  16.489 -0.1577 -0.5161 -0.4709
11351TIP3    H155468   5.211   0.058  16.437 -1.2588 -0.9430 -2.1833
11351TIP3    H255469   5.076   0.127  16.444 -0.9199 -0.4704  0.4901
11352TIP3   OH255470   4.684   2.022  12.349 -0.2737  0.0448 -0.7939
11352TIP3    H155471   4.756   1.959  12.359 -1.0471 -0.8638 -0.8010
11352TIP3    H255472   4.676   2.063  12.435 -0.1485 -0.2965 -0.6182
11353TIP3   OH255473   0.130   3.220  12.495 -0.2404 -0.1978 -0.3563
11353TIP3    H155474   0.220   3.195  12.476 -0.2813  0.7748 -1.9650
11353TIP3    H255475   0.135   3.265  12.580  0.8343  0.0986 -0.5648
11354TIP3   OH255476   3.338   4.927   6.453  0.1246  0.3312 -0.2390
11354TIP3    H155477   3.390   5.005   6.436  0.4671  0.2870  0.5799
11354TIP3    H255478   3.248   4.953   6.431  0.4768  0.3726 -1.7719
11355TIP3   OH255479   0.840   1.824   0.193 -0.2330 -0.1812  0.0850
11355TIP3    H155480   0.792   1.750   0.230  1.3017 -1.8041 -1.0385
11355TIP3    H255481   0.906   1.845   0.259 -0.5033  0.0282  0.2912
11356TIP3   OH255482   4.540   3.106   1.096 -0.4236  0.3476  0.6499
11356TIP3    H155483   4.570   3.093   1.186 -0.7228 -1.7072  0.4921
11356TIP3    H255484   4.445   3.116   1.103 -0.1495  4.0796  0.8726
11357TIP3   OH255485   5.525   4.907   4.080  0.0411 -0.5009  0.0073
11357TIP3    H155486   5.445   4.943   4.117 -0.1663 -2.7138  1.9277
11357TIP3    H255487   5.586   4.903   4.153  2.1932  1.6480 -1.5215
11358TIP3   OH255488   2.434   4.830  16.321 -0.0299 -0.3317 -0.2562
11358TIP3    H155489   2.357   4.773  16.331  0.8282 -1.4286  0.2475
11358TIP3    H255490   2.418   4.903  16.382 -3.0800  2.2760 -3.7326
11359TIP3   OH255491   0.252   3.040  15.296 -0.5558  0.1766 -0.0604
11359TIP3    H155492   0.159   3.030  15.317 -0.5261 -3.0979 -1.0483
11359TIP3    H255493   0.253   3.090  15.214 -1.4395  0.1219 -0.1164
11360TIP3   OH255494   2.337   5.784   1.451 -0.7979  0.2026 -0.2089
11360TIP3    H155495   2.370   5.823   1.532  0.0971  0.0067 -0.4649
11360TIP3    H255496   2.244   5.807   1.449 -0.6102  1.0577  0.3818
11361TIP3   OH255497   4.791   4.820  13.939  0.0851  0.1642 -0.2014
11361TIP3    H155498   4.853   4.851  13.874 -0.1286  2.2716  0.5058
11361TIP3    H255499   4.723   4.888  13.941 -0.4131 -0.3337  1.5123
11362TIP3   OH255500   6.707   2.141   5.408 -0.0048  0.0917  0.0791
11362TIP3    H155501   6.739   2.120   5.321 -0.3320 -0.5355  0.1022
11362TIP3    H255502   6.783   2.129   5.465  0.1589  0.3167 -0.0893
11363TIP3   OH255503   6.555   3.164  12.583 -0.2693  0.0638 -0.2773
11363TIP3    H155504   6.593   3.187  12.498  1.1398 -0.5033  0.1610
11363TIP3    H255505   6.543   3.248  12.627 -0.3213  0.3148 -0.7624
11364TIP3   OH255506   4.418   0.183  12.756 -0.6892  0.2441 -0.0350
11364TIP3    H155507   4.348   0.174  12.691 -0.4822 -0.0067 -0.2266
11364TIP3    H255508   4.429   0.277  12.766 -1.8663  0.3024  0.8774
11365TIP3   OH255509   5.238   5.544   0.490  0.6387 -0.2122 -0.2040
11365TIP3    H155510   5.279   5.567   0.407  1.7913  0.9122  0.6484
11365TIP3    H255511   5.215   5.628   0.530 -1.3001 -0.7620 -0.0254
11366TIP3   OH255512   2.543   2.041   2.102  0.3630 -0.1573  0.1458
11366TIP3    H155513   2.572   1.960   2.061 -1.9868 -1.0591  0.1346
11366TIP3    H255514   2.454   2.023   2.131  0.6691  1.6048  2.4824
11367TIP3   OH255515   4.097   1.025  14.514  0.0161 -0.8306 -0.1336
11367TIP3    H155516   4.157   1.048  14.584  1.5626 -0.2430 -1.5896
11367TIP3    H255517   4.070   1.109  14.476  0.6835 -1.1589 -1.4081
11368TIP3   OH255518   4.587   4.296  12.067  0.5658 -0.3038  0.2798
11368TIP3    H155519   4.554   4.223  12.120 -2.1291  0.0451 -0.7513
11368TIP3    H255520   4.534   4.294  11.988  0.4763  2.6633  0.1536
11369TIP3   OH255521   0.495   3.323  15.684  0.0797 -0.3831 -0.4776
11369TIP3    H155522   0.457   3.406  15.712  1.8808  0.6302 -0.8646
11369TIP3    H255523   0.428   3.258  15.703 -0.9679  1.0172  0.8297
11370TIP3   OH255524   2.476   6.062  13.983  0.1962 -0.4467  0.1214
11370TIP3    H155525   2.516   5.976  13.999  3.5494  0.9154 -0.0283
11370TIP3    H255526   2.482   6.073  13.888  1.5020  0.5964  0.2878
11371TIP3   OH255527   5.376   5.368   0.031 -0.0375  0.0145  0.1194
11371TIP3    H155528   5.376   5.456  -0.006 -1.2246 -1.3128 -3.4261
11371TIP3    H255529   5.467   5.340   0.028  0.1184  0.5526 -0.2851
11372TIP3   OH255530   6.086   1.875   3.009 -0.6806  0.0507 -0.2086
11372TIP3    H155531   6.036   1.796   2.992 -1.0939  0.5975 -1.7777
11372TIP3    H255532   6.175   1.845   3.026 -1.0294 -0.7880  0.1784
11373TIP3   OH255533   4.838   4.248   4.169 -0.6986  0.4770  0.0144
11373TIP3    H155534   4.774   4.307   4.129  1.3764  1.7556 -1.6104
11373TIP3    H255535   4.793   4.214   4.247 -2.7798  2.4562 -0.2078
11374TIP3   OH255536   4.825   1.034  12.243  0.3072 -0.5818 -0.0856
11374TIP3    H155537   4.917   1.059  12.238  0.4590 -0.8967  1.0362
11374TIP3    H255538   4.825   0.949  12.286 -0.6138  0.2091  1.5573
11375TIP3   OH255539   2.874   1.122   2.756 -0.5901 -0.3792  0.3681
11375TIP3    H155540   2.810   1.083   2.696 -1.2175 -0.9285  1.3688
11375TIP3    H255541   2.831   1.201   2.789 -0.4129 -0.3027  0.4167
11376TIP3   OH255542   1.874   1.782  15.415 -0.7810 -0.4389 -0.5011
11376TIP3    H155543   1.885   1.738  15.330 -0.6563 -1.4838  0.0398
11376TIP3    H255544   1.957   1.769  15.460 -0.0573  1.9737 -1.0160
11377TIP3   OH255545   6.355   5.182  12.590  0.3188 -0.9542  0.4219
11377TIP3    H155546   6.286   5.248  12.598 -0.5210 -1.8364  0.7153
11377TIP3    H255547   6.411   5.214  12.519  0.7757  0.7913  1.5299
11378TIP3   OH255548   3.888   0.531   1.636  0.2387  0.1868  0.1698
11378TIP3    H155549   3.974   0.568   1.617 -0.2767  0.5787 -1.5098
11378TIP3    H255550   3.905   0.437   1.647  1.1134  0.4808  1.5923
11379TIP3   OH255551   1.738   4.166   1.553  0.0945  0.0000 -0.2895
11379TIP3    H155552   1.657   4.150   1.600 -0.0626  1.7544  0.1094
11379TIP3    H255553   1.738   4.100   1.483 -2.1298  0.5044 -0.8605
11380TIP3   OH255554   1.397   2.076   2.503 -0.0537  0.0489 -0.1414
11380TIP3    H155555   1.466   2.121   2.552 -0.4359  0.1649  0.2911
11380TIP3    H255556   1.442   2.002   2.462  0.7088  1.1051 -1.3069
11381TIP3   OH255557   0.022   4.738  15.861  0.3523 -0.0353  0.3789
11381TIP3    H155558   0.073   4.794  15.803  0.6474  0.8539  1.4681
11381TIP3    H255559   0.048   4.764  15.949  0.5434 -1.9218  0.9372
11382TIP3   OH255560   1.444   5.842  14.974  0.5048 -0.4662 -0.1459
11382TIP3    H155561   1.416   5.840  14.882  0.3122  0.2681 -0.1101
11382TIP3    H255562   1.391   5.775  15.017 -1.3093  0.9385 -0.0598
11383TIP3   OH255563   2.335   4.929   1.083  0.0427 -0.4539 -0.0792
11383TIP3    H155564   2.240   4.930   1.068  0.0866  2.1063 -0.7438
11383TIP3    H255565   2.346   4.966   1.170  0.4491 -0.3400 -0.1785
11384TIP3   OH255566   2.330   4.062   3.245 -0.0051 -0.2879 -0.8808
11384TIP3    H155567   2.263   4.123   3.277 -0.4748 -1.8416  1.2297
11384TIP3    H255568   2.372   4.027   3.323 -0.3490 -3.3458 -1.9169
11385TIP3   OH255569   0.444   2.643   1.783  0.2478 -0.1654  0.1620
11385TIP3    H155570   0.525   2.626   1.830 -0.2534  1.3595  1.6728
11385TIP3    H255571   0.455   2.732   1.748  0.1329 -0.8216 -1.6719
11386TIP3   OH255572   0.265   3.276  14.123 -0.4705 -0.5523  0.3729
11386TIP3    H155573   0.243   3.264  14.215 -0.7279  0.3418  0.4401
11386TIP3    H255574   0.259   3.188  14.085  2.4390 -1.4973  1.7876
11387TIP3   OH255575   4.408   2.047   4.404 -0.1515  0.3373 -0.2770
11387TIP3    H155576   4.389   2.139   4.420  1.7159  1.0541 -1.7331
11387TIP3    H255577   4.479   2.026   4.463 -0.5819 -0.2008  0.0630
11388TIP3   OH255578   4.533   5.168   6.037  0.2024 -0.3569 -0.2210
11388TIP3    H155579   4.521   5.233   6.107 -0.3619 -1.7436  1.0351
11388TIP3    H255580   4.628   5.157   6.031  0.3300  0.8481 -0.7365
11389TIP3   OH255581   4.477   6.103  13.552  0.4087  0.2769  0.2637
11389TIP3    H155582   4.386   6.081  13.533  0.5612  1.4191 -2.0304
11389TIP3    H255583   4.476   6.130  13.644 -1.0329 -2.2505  1.0848
11390TIP3   OH255584   4.261   1.979   5.036  0.0979 -0.1281  0.0709
11390TIP3    H155585   4.272   1.997   4.943 -0.1276  2.1713  0.4283
11390TIP3    H255586   4.310   1.898   5.051  1.4732  0.3043 -1.7509
11391TIP3   OH255587   0.377   1.342   0.416  0.1652  0.2710  0.1397
11391TIP3    H155588   0.442   1.373   0.479 -0.4144 -1.8656  1.8991
11391TIP3    H255589   0.337   1.265   0.457 -1.1571 -0.4785 -2.2952
11392TIP3   OH255590   0.277   5.481  11.414  0.3898  0.2668 -0.2350
11392TIP3    H155591   0.361   5.461  11.373  0.4022 -0.2896  0.0507
11392TIP3    H255592   0.217   5.494  11.341 -0.2165 -3.3133 -0.5175
11393TIP3   OH255593   6.609   2.689  16.985  0.0613 -0.1476 -0.1891
11393TIP3    H155594   6.513   2.692  16.979  0.1273  1.0232 -1.3437
11393TIP3    H255595   6.633   2.603  16.952 -0.6320 -0.9650  1.3381
11394TIP3   OH255596   0.301   4.549  16.471  0.2274  0.0398 -0.1386
11394TIP3    H155597   0.315   4.473  16.527  0.9775 -0.2924 -0.7634
11394TIP3    H255598   0.237   4.602  16.519  0.6257 -0.3739  0.8901
11395TIP3   OH255599   2.848   3.254   0.444 -0.2504  0.1131 -0.2787
11395TIP3    H155600   2.814   3.342   0.423  1.2155  0.9080  0.5684
11395TIP3    H255601   2.923   3.243   0.385  0.1686 -0.1717  0.3062
11396TIP3   OH255602   3.800   0.674   5.581  0.0375  0.4207  0.0863
11396TIP3    H155603   3.823   0.766   5.563 -0.5243  0.5686  0.1216
11396TIP3    H255604   3.818   0.664   5.675  3.0276 -0.3705 -0.4674
11397TIP3   OH255605   3.785   6.564   2.209 -0.4364 -0.3998 -0.0926
11397TIP3    H155606   3.819   6.569   2.298 -0.9011  1.0663  0.0181
11397TIP3    H255607   3.829   6.634   2.161 -1.2018 -0.2866 -0.6600
11398TIP3   OH255608   5.243   6.077   2.772 -0.2745 -0.0519  0.3045
11398TIP3    H155609   5.203   5.994   2.797 -1.1369  0.0378 -0.7287
11398TIP3    H255610   5.332   6.072   2.807 -0.3942 -1.3006  0.4756
11399TIP3   OH255611   4.734   4.836  10.649  0.1279 -0.1319 -0.0604
11399TIP3    H155612   4.738   4.766  10.583 -2.1247  2.5320 -3.4279
11399TIP3    H255613   4.644   4.833  10.681 -0.5327  1.9906 -1.4621
11400TIP3   OH255614   0.507   4.946  16.022 -0.1088 -0.1461  0.0627
11400TIP3    H155615   0.571   4.875  16.020 -1.9229 -1.8537 -0.6371
11400TIP3    H255616   0.494   4.970  15.930 -1.4559 -0.8077  0.0530
11401TIP3   OH255617   2.312   0.342   5.039  0.0785  0.2385  0.3763
11401TIP3    H155618   2.311   0.436   5.019  0.6154  0.1880  0.0967
11401TIP3    H255619   2.324   0.300   4.954  0.3074 -0.0646  0.5575
11402TIP3   OH255620   0.517   4.301   4.477 -0.4734 -0.3469  0.3407
11402TIP3    H155621   0.450   4.239   4.507 -0.0013 -0.5166  1.0473
11402TIP3    H255622   0.473   4.386   4.480 -0.9096 -0.5535  0.0219
11403TIP3   OH255623   1.163   4.110  11.522  0.2114  0.1046 -0.3879
11403TIP3    H155624   1.166   4.049  11.596 -0.5753 -1.8734 -1.8990
11403TIP3    H255625   1.089   4.080  11.470 -0.5093  2.6911 -0.9930
11404TIP3   OH255626   1.249   2.807  14.407 -0.7630  0.1106 -0.8080
11404TIP3    H155627   1.189   2.752  14.356 -1.7438 -0.1931  0.6172
11404TIP3    H255628   1.214   2.895  14.397 -1.0924  0.0191 -0.4870
11405TIP3   OH255629   2.940   4.682   0.964 -0.1982 -0.2723 -0.2060
11405TIP3    H155630   2.853   4.642   0.958 -0.5800  0.4732  0.2800
11405TIP3    H255631   2.962   4.703   0.873 -0.4550 -0.6036 -0.3514
11406TIP3   OH255632   0.068   2.435  16.159 -0.8856 -0.0104 -0.6476
11406TIP3    H155633   0.109   2.353  16.188  0.7352  0.5961 -1.1086
11406TIP3    H255634  -0.026   2.416  16.158 -0.4734 -2.3206 -2.0838
11407TIP3   OH255635   0.137   5.920   6.324  0.2585  0.1695 -0.2164
11407TIP3    H155636   0.205   5.888   6.383  0.4869  0.4133 -0.3477
11407TIP3    H255637   0.078   5.970   6.381  0.5810  0.5650 -0.2238
11408TIP3   OH255638   6.232   0.194   6.742  0.3187 -0.4353 -0.1083
11408TIP3    H155639   6.227   0.270   6.799 -1.1615 -1.3359  1.0554
11408TIP3    H255640   6.147   0.151   6.753  0.8932 -1.9142 -1.1892
11409TIP3   OH255641   3.910   0.685   2.529 -0.2635  0.1371 -0.5583
11409TIP3    H155642   3.956   0.644   2.602 -0.6448  0.8303  0.0828
11409TIP3    H255643   3.876   0.767   2.565  1.1946  1.4607 -1.9912
11410TIP3   OH255644   1.694   5.245  16.482  0.6533 -0.1434 -0.7938
11410TIP3    H155645   1.730   5.327  16.514 -1.2689  0.5472 -0.2287
11410TIP3    H255646   1.749   5.177  16.521  1.6927  0.8354 -0.5023
11411TIP3   OH255647   5.800   1.282  15.067  0.7533  0.1165  0.2271
11411TIP3    H155648   5.806   1.262  15.160 -1.8880  0.9267  0.6660
11411TIP3    H255649   5.810   1.377  15.062 -1.0424  0.3356 -0.0099
11412TIP3   OH255650   6.567   4.199  16.522  0.3981  0.3179 -0.6396
11412TIP3    H155651   6.483   4.214  16.479  0.3176  1.4362 -0.1416
11412TIP3    H255652   6.577   4.274  16.581  2.0019  0.5037 -1.0942
11413TIP3   OH255653   2.328   2.845   3.841 -0.0405  0.1790 -0.1440
11413TIP3    H155654   2.397   2.779   3.838  0.1247  0.1494  2.2137
11413TIP3    H255655   2.277   2.830   3.762  2.4050 -0.0235 -1.8188
11414TIP3   OH255656   1.779   3.476  13.763 -0.1166 -0.5564  0.2334
11414TIP3    H155657   1.764   3.427  13.844  0.6066  2.2026  2.1859
11414TIP3    H255658   1.872   3.462  13.745 -0.3793 -1.5395 -0.4189
11415TIP3   OH255659   6.702   5.719  16.568 -0.2750  0.5379 -0.0061
11415TIP3    H155660   6.639   5.766  16.513 -0.5493  0.5169  0.2840
11415TIP3    H255661   6.784   5.769  16.559 -0.2772  0.4458 -0.5472
11416TIP3   OH255662   4.539   1.452   5.277 -0.4461 -0.2562 -0.2178
11416TIP3    H155663   4.496   1.383   5.328 -0.3107  0.5446  1.0232
11416TIP3    H255664   4.594   1.404   5.215 -1.8517 -1.2694 -0.7302
11417TIP3   OH255665   3.028   0.564   5.523 -0.4194  0.2151 -0.3145
11417TIP3    H155666   3.033   0.496   5.590  0.7288  0.3104 -0.2903
11417TIP3    H255667   3.085   0.634   5.554  1.7263 -0.5472 -2.2808
11418TIP3   OH255668   0.208   3.116  17.043 -0.2232  1.0992  0.1329
11418TIP3    H155669   0.191   3.049  17.108  0.4372  0.9462  0.1547
11418TIP3    H255670   0.177   3.079  16.960 -0.3293  0.9787  0.2266
11419TIP3   OH255671   3.017   4.367  13.347 -0.1772  0.1979  0.0028
11419TIP3    H155672   3.011   4.454  13.306  1.2813  0.4604  0.2771
11419TIP3    H255673   3.095   4.328  13.307 -0.6645 -0.8838  0.0859
11420TIP3   OH255674   4.254   0.184  16.720 -0.6202 -0.4836  0.2973
11420TIP3    H155675   4.253   0.258  16.659  1.6097 -1.0569 -0.5385
11420TIP3    H255676   4.164   0.176  16.751 -1.4903  0.7904 -1.7616
11421TIP3   OH255677   4.811   4.801  15.259  0.2812 -0.2363  0.3557
11421TIP3    H155678   4.835   4.797  15.166  0.5795 -2.3964  0.4807
11421TIP3    H255679   4.842   4.887  15.288 -1.0703  1.0987 -1.8538
11422TIP3   OH255680   1.322   5.289  12.099 -0.4071  0.3177 -0.7769
11422TIP3    H155681   1.302   5.376  12.065  0.1486  0.5434 -0.5464
11422TIP3    H255682   1.414   5.295  12.125 -0.0108 -0.6984 -1.8778
11423TIP3   OH255683   5.563   6.560   3.079 -0.2234 -0.8314 -0.0481
11423TIP3    H155684   5.495   6.498   3.051 -0.8501 -1.1447  1.9977
11423TIP3    H255685   5.635   6.504   3.108  0.0720 -0.5450 -0.2311
11424TIP3   OH255686   5.156   5.318  13.409 -0.9723 -0.4899 -0.5845
11424TIP3    H155687   5.160   5.233  13.365 -1.6955 -0.3642 -0.9089
11424TIP3    H255688   5.195   5.380  13.347 -1.9708 -0.3165 -1.0619
11425TIP3   OH255689   1.396   5.075   6.272 -0.0533 -1.2925  0.0552
11425TIP3    H155690   1.427   4.995   6.229 -0.3586 -0.4622 -1.7794
11425TIP3    H255691   1.300   5.066   6.272 -0.0466 -1.4599  0.9553
11426TIP3   OH255692   4.279   1.458  12.368 -0.2956  0.1139 -0.4985
11426TIP3    H155693   4.257   1.551  12.363 -1.6724 -0.1631 -0.1680
11426TIP3    H255694   4.336   1.451  12.445 -0.5394  0.6308 -0.2617
11427TIP3   OH255695   2.361   3.494  14.338  0.5144  0.2180 -0.2113
11427TIP3    H155696   2.295   3.563  14.345  0.0829 -0.2423  0.3606
11427TIP3    H255697   2.406   3.511  14.255  0.6711  1.4058  0.1028
11428TIP3   OH255698   1.831   4.854   5.462 -0.1902  0.0585  0.8626
11428TIP3    H155699   1.778   4.788   5.506 -0.2799 -0.3897  0.1045
11428TIP3    H255700   1.853   4.917   5.530 -0.7084 -0.3760  1.4402
11429TIP3   OH255701   5.306   0.343   3.859 -0.0335 -0.4590  0.2925
11429TIP3    H155702   5.334   0.318   3.947  1.4262  0.6381  0.1810
11429TIP3    H255703   5.369   0.300   3.800 -1.7244 -2.2039 -0.3412
11430TIP3   OH255704   6.328   2.615   2.901 -0.0990 -0.1800  0.1462
11430TIP3    H155705   6.284   2.699   2.899 -0.2060 -0.2488 -1.3220
11430TIP3    H255706   6.400   2.627   2.964 -0.4513  0.8211  0.3705
11431TIP3   OH255707   1.357   1.783  11.416  0.0843 -0.9113  0.3381
11431TIP3    H155708   1.434   1.839  11.405 -0.2631 -0.4581  0.2115
11431TIP3    H255709   1.373   1.709  11.358 -0.4812  0.1364 -1.2063
11432TIP3   OH255710   2.721   4.719  14.689 -0.4084  0.1782  0.7044
11432TIP3    H155711   2.809   4.700  14.721 -0.2455  0.8111  0.6473
11432TIP3    H255712   2.735   4.779  14.615 -0.7926 -0.9604 -0.3239
11433TIP3   OH255713   0.967   1.693   0.979  0.0893 -0.2657 -0.3269
11433TIP3    H155714   1.033   1.633   1.014 -0.5643 -0.0953  1.2826
11433TIP3    H255715   0.887   1.639   0.973 -0.4621  0.3667  0.9866
11434TIP3   OH255716   0.370   6.269   2.741  0.3540  0.0998 -1.0109
11434TIP3    H155717   0.427   6.279   2.817 -0.7723 -2.9846  0.3692
11434TIP3    H255718   0.289   6.314   2.765  0.3693  0.0506 -0.8707
11435TIP3   OH255719   3.109   0.352   0.575 -0.7443 -0.1474  0.5699
11435TIP3    H155720   3.162   0.410   0.631 -1.7246 -0.1720  1.5509
11435TIP3    H255721   3.090   0.276   0.630 -1.2142 -0.4558 -0.0081
11436TIP3   OH255722   1.660   6.446  16.772 -0.2142 -0.2009 -0.2463
11436TIP3    H155723   1.587   6.442  16.834  0.2113  0.0957  0.2766
11436TIP3    H255724   1.618   6.438  16.686 -1.0376  1.5190 -0.0486
11437TIP3   OH255725   1.767   1.464   4.307 -0.6306 -0.2709  0.0415
11437TIP3    H155726   1.734   1.448   4.219  3.8209 -0.9751 -1.7562
11437TIP3    H255727   1.755   1.559   4.320 -1.0816 -0.0977 -1.4428
11438TIP3   OH255728   6.536   0.907  17.055 -0.7778 -0.1187 -0.3976
11438TIP3    H155729   6.554   0.874  16.967 -1.3543 -0.5167 -0.3674
11438TIP3    H255730   6.560   1.000  17.051  0.7936 -0.4983 -0.4916
11439TIP3   OH255731   5.950   2.267   0.404  0.2146 -0.4825  0.4656
11439TIP3    H155732   5.982   2.353   0.432 -0.5401 -0.1212  0.2403
11439TIP3    H255733   5.873   2.251   0.460 -0.1687 -0.6112 -0.0911
11440TIP3   OH255734   2.717   1.250   5.436  0.2120 -0.2376 -0.2664
11440TIP3    H155735   2.763   1.229   5.517 -0.7243  0.6871  0.5392
11440TIP3    H255736   2.780   1.303   5.386  0.7779 -0.7724 -0.1278
11441TIP3   OH255737   6.449   5.635  16.282  0.0655  0.0030  0.0207
11441TIP3    H155738   6.499   5.554  16.289  0.2854  0.1913  0.7939
11441TIP3    H255739   6.371   5.611  16.232 -0.3385 -0.9147  1.0529
11442TIP3   OH255740   5.987   5.805   0.866 -0.1481 -0.2784  0.2771
11442TIP3    H155741   6.011   5.874   0.929 -2.8847  1.6055 -0.5597
11442TIP3    H255742   6.026   5.834   0.784  1.1505 -1.3237  0.4993
11443TIP3   OH255743   6.335   1.117   3.925 -0.6559 -0.3814  0.8511
11443TIP3    H155744   6.294   1.171   3.857 -0.9719  2.3247  2.9818
11443TIP3    H255745   6.348   1.032   3.884 -2.0197  0.7021 -2.1328
11444TIP3   OH255746   0.089   3.196   5.896 -0.0033 -0.1959  0.2517
11444TIP3    H155747   0.043   3.202   5.980  0.5545 -1.5341  0.6757
11444TIP3    H255748   0.169   3.147   5.916  0.3380 -0.1702 -0.9847
11445TIP3   OH255749   5.548   3.524   3.418 -0.5465 -0.0986 -0.4713
11445TIP3    H155750   5.569   3.462   3.487 -1.5128  0.7257  0.6026
11445TIP3    H255751   5.504   3.472   3.351  0.0350 -0.8276 -0.2926
11446TIP3   OH255752   5.205   5.495   3.654  0.3022 -0.2368 -0.5013
11446TIP3    H155753   5.211   5.567   3.717 -3.5791 -0.5573  0.4611
11446TIP3    H255754   5.293   5.457   3.653  1.8107  2.8049  0.9527
11447TIP3   OH255755   1.867   5.770   4.293  0.0653 -0.2919 -0.1931
11447TIP3    H155756   1.913   5.810   4.218  3.3743  0.6118  2.0721
11447TIP3    H255757   1.797   5.832   4.314  0.1456  0.2818 -1.5130
11448TIP3   OH255758   4.786   6.280  16.105 -0.1679  0.1306  0.4170
11448TIP3    H155759   4.852   6.219  16.073 -0.3083  0.3567 -0.3313
11448TIP3    H255760   4.796   6.279  16.200 -0.5165 -1.4322  0.4517
11449TIP3   OH255761   2.688   2.613  15.121  0.1410  0.4228 -0.2701
11449TIP3    H155762   2.693   2.520  15.098 -1.6339  0.1265  0.4126
11449TIP3    H255763   2.758   2.626  15.186 -0.3996 -0.7363  0.5713
11450TIP3   OH255764   0.323   1.658   3.452  0.1158 -0.2669  0.0255
11450TIP3    H155765   0.404   1.658   3.400 -0.6377 -2.7614 -1.3544
11450TIP3    H255766   0.256   1.688   3.391 -0.0531  1.8445  1.1765
11451TIP3   OH255767   4.744   4.312   0.676 -0.1322  0.5743  0.0298
11451TIP3    H155768   4.661   4.272   0.702 -0.8525  0.9536 -1.5812
11451TIP3    H255769   4.741   4.400   0.715 -0.2002  0.3760  0.4831
11452TIP3   OH255770   0.271   1.108   4.584 -0.0793 -0.3872  0.7562
11452TIP3    H155771   0.364   1.087   4.588 -0.2978 -1.9860 -0.9169
11452TIP3    H255772   0.260   1.154   4.501 -0.5871  1.1672  1.6406
11453TIP3   OH255773   2.549   1.866  17.072 -0.4402  0.6478 -0.2271
11453TIP3    H155774   2.630   1.855  17.121 -1.6888  1.2084  2.1203
11453TIP3    H255775   2.574   1.852  16.981  2.1800  0.3599  0.4514
11454TIP3   OH255776   1.437   0.366   4.934  0.0898  0.8229 -0.0248
11454TIP3    H155777   1.497   0.296   4.960  0.6091  0.5053 -1.9339
11454TIP3    H255778   1.469   0.443   4.982  1.8413  0.5834 -0.7351
11455TIP3   OH255779   2.254   3.297   4.787  0.1010 -0.0821  0.3895
11455TIP3    H155780   2.171   3.321   4.745 -0.8155 -1.8722  1.0564
11455TIP3    H255781   2.231   3.284   4.879  1.2183 -0.2651  0.6537
11456TIP3   OH255782   4.344   5.801  11.620 -0.1132 -0.2473 -0.2337
11456TIP3    H155783   4.328   5.893  11.638 -0.3454 -0.1667 -0.8301
11456TIP3    H255784   4.282   5.754  11.675  0.1829 -0.0574  0.2636
11457TIP3   OH255785   5.609   1.315  14.623 -0.3300 -0.1530  0.5545
11457TIP3    H155786   5.672   1.276  14.683 -0.0689 -1.2637 -0.3995
11457TIP3    H255787   5.655   1.320  14.540 -0.1904  2.7177  0.7256
11458TIP3   OH255788   3.658   3.158   6.387 -0.3507 -0.2278 -0.2967
11458TIP3    H155789   3.606   3.218   6.441  0.3342 -0.3097  0.4717
11458TIP3    H255790   3.748   3.186   6.400 -0.0598 -1.1569 -0.2763
11459TIP3   OH255791   0.293   1.346   3.437 -0.5479  0.1933 -0.6673
11459TIP3    H155792   0.358   1.401   3.393  1.5347 -0.6946  1.1339
11459TIP3    H255793   0.209   1.380   3.406  0.6294  3.5401 -0.6227
11460TIP3   OH255794   1.318   0.648  16.601 -0.5886  0.2391 -0.1881
11460TIP3    H155795   1.398   0.697  16.619 -0.2890 -0.3620  0.1775
11460TIP3    H255796   1.347   0.556  16.598 -1.7568 -0.4675  3.6338
11461TIP3   OH255797   3.600   2.309   5.232 -0.4095  0.1984  0.1853
11461TIP3    H155798   3.600   2.315   5.327 -2.6600 -0.4594  0.2698
11461TIP3    H255799   3.515   2.272   5.209 -0.1333  0.7925 -2.1212
11462TIP3   OH255800   5.555   3.376  16.186  0.3061 -0.2140 -0.3558
11462TIP3    H155801   5.635   3.428  16.198  0.5301 -0.6705  0.1855
11462TIP3    H255802   5.494   3.436  16.144  0.8089  0.2590 -0.4327
11463TIP3   OH255803   3.911   5.944   3.579  0.1911 -0.0671  0.0625
11463TIP3    H155804   3.824   5.985   3.569 -0.0607 -0.8162 -1.0677
11463TIP3    H255805   3.933   5.914   3.491  1.4286 -0.2573  0.4202
11464TIP3   OH255806   1.114   3.184   0.222  0.7770  0.3839  0.1906
11464TIP3    H155807   1.063   3.132   0.285  1.5586 -0.4719  0.1382
11464TIP3    H255808   1.129   3.268   0.267 -1.3821  0.9917 -0.1324
11465TIP3   OH255809   0.252   2.147  10.959 -0.0074 -0.0255  0.5871
11465TIP3    H155810   0.326   2.087  10.950 -0.0569 -0.1232  0.8231
11465TIP3    H255811   0.291   2.229  10.991 -0.0211 -0.1243  0.8568
11466TIP3   OH255812   6.301   0.216  14.937  0.2969 -0.2804 -0.4362
11466TIP3    H155813   6.304   0.310  14.955  0.0121 -0.3248 -0.1483
11466TIP3    H255814   6.235   0.207  14.868 -1.9237 -0.5687  1.6050
11467TIP3   OH255815   2.935   2.086   1.282  0.2875  0.4998 -0.1238
11467TIP3    H155816   2.939   2.144   1.205  1.6138  0.0311 -0.4264
11467TIP3    H255817   2.977   2.005   1.253  0.1860  0.0764  0.8983
11468TIP3   OH255818   4.461   2.580  14.706  0.6262  0.2006 -0.2093
11468TIP3    H155819   4.396   2.550  14.771  0.6227 -2.3599 -1.2657
11468TIP3    H255820   4.540   2.531  14.728  0.7718 -0.3183 -1.7896
11469TIP3   OH255821   3.961   2.060   2.811  0.1909 -0.1054  0.5406
11469TIP3    H155822   4.012   2.068   2.730 -0.7401 -0.5324 -0.1061
11469TIP3    H255823   3.893   2.127   2.801 -1.4923 -1.8510 -0.2393
11470TIP3   OH255824   4.532   3.117   6.070 -0.0460  0.2705 -0.2508
11470TIP3    H155825   4.511   3.096   6.161 -0.0928  0.5626 -0.1945
11470TIP3    H255826   4.627   3.127   6.068 -0.1005  0.8736 -0.1037
11471TIP3   OH255827   1.853   3.807  13.282  0.1244 -0.0931 -0.2903
11471TIP3    H155828   1.824   3.751  13.354 -1.7033  0.2187 -0.7404
11471TIP3    H255829   1.840   3.896  13.314  1.2508  0.0875 -0.2805
11472TIP3   OH255830   1.271   4.645   2.421 -0.7727 -0.6685  0.6066
11472TIP3    H155831   1.310   4.600   2.346  1.4349 -1.4380  2.0968
11472TIP3    H255832   1.224   4.719   2.384  0.0496 -1.1645 -1.5440
11473TIP3   OH255833   0.144   5.078  16.374  0.2962 -0.0697 -0.1639
11473TIP3    H155834   0.192   5.010  16.327  0.7808 -0.7389  1.2354
11473TIP3    H255835   0.181   5.160  16.343  0.3492 -0.4582 -1.1897
11474TIP3   OH255836   2.897   3.776  15.475  0.6860 -0.5664  0.3137
11474TIP3    H155837   2.942   3.802  15.394  1.7555 -0.3639  0.9464
11474TIP3    H255838   2.967   3.775  15.541 -0.3014  0.0424  1.4011
11475TIP3   OH255839   2.615   4.169  13.929  0.0652 -0.1766 -0.4288
11475TIP3    H155840   2.521   4.177  13.944  0.3300  1.1508  0.7555
11475TIP3    H255841   2.623   4.160  13.834 -1.1987  1.1321 -0.7029
11476TIP3   OH255842   0.679   0.085  14.244  0.0428  0.0011  0.4115
11476TIP3    H155843   0.659   0.081  14.150  0.1622 -0.7802  0.4193
11476TIP3    H255844   0.696  -0.005  14.270 -0.0501  0.2006  1.2049
11477TIP3   OH255845   1.522   1.180   0.998 -0.2176  0.1600 -0.3448
11477TIP3    H155846   1.609   1.161   0.961  0.3245 -2.1285  1.7903
11477TIP3    H255847   1.468   1.107   0.968 -0.6242  0.0479  0.6272
11478TIP3   OH255848   0.331   4.728  16.866 -0.1852  0.1813  0.5193
11478TIP3    H155849   0.417   4.720  16.825 -1.4056 -1.3822 -1.9998
11478TIP3    H255850   0.274   4.759  16.796 -2.1527 -1.2692  1.3885
11479TIP3   OH255851   3.782   4.414  13.860  0.1028  0.1646  0.7015
11479TIP3    H155852   3.860   4.460  13.889 -1.0838  3.0752 -0.3296
11479TIP3    H255853   3.815   4.343  13.806  2.0723  1.6755 -0.2217
11480TIP3   OH255854   0.870   2.310  13.531 -0.5848  0.3164  0.6737
11480TIP3    H155855   0.808   2.381  13.516 -0.2957  0.7641  1.5176
11480TIP3    H255856   0.951   2.340  13.492 -0.4752  0.4295  0.9873
11481TIP3   OH255857   4.646   6.321   5.440  0.3639  0.5315  0.1938
11481TIP3    H155858   4.725   6.276   5.472  1.1455  0.7935 -1.2672
11481TIP3    H255859   4.645   6.404   5.488 -0.1561 -0.2778  1.6701
11482TIP3   OH255860   3.094   3.280  11.712  1.1104  0.0494  0.4447
11482TIP3    H155861   3.121   3.200  11.667  1.8920  1.3183 -1.4961
11482TIP3    H255862   3.043   3.328  11.647 -0.7248  0.4409  2.1006
11483TIP3   OH255863   1.646   2.326  15.838  1.3649 -0.5578 -0.0832
11483TIP3    H155864   1.610   2.237  15.836 -1.6771  0.4957  1.5271
11483TIP3    H255865   1.692   2.331  15.922 -1.9905  0.4452  1.8839
11484TIP3   OH255866   0.581   1.794  12.046 -0.0970 -0.0696 -0.2390
11484TIP3    H155867   0.674   1.802  12.068  0.2630  1.1379 -2.0250
11484TIP3    H255868   0.551   1.885  12.036 -1.4322 -0.4511  0.0947
11485TIP3   OH255869   1.111   4.417  12.618  0.0279  0.4225 -0.2457
11485TIP3    H155870   1.116   4.379  12.705 -1.4610  0.4974 -0.1152
11485TIP3    H255871   1.023   4.453  12.611 -0.5585 -1.1938 -2.4523
11486TIP3   OH255872   5.371   1.771   3.636 -0.0402  0.1863  0.1275
11486TIP3    H155873   5.402   1.774   3.545  0.2249  0.1878  0.2165
11486TIP3    H255874   5.280   1.740   3.629 -0.0520  0.2768 -0.1443
11487TIP3   OH255875   2.924   6.465   5.269 -0.5919  0.4737 -0.3957
11487TIP3    H155876   2.870   6.440   5.194  0.2137  0.4022 -0.9695
11487TIP3    H255877   2.927   6.560   5.266 -0.0357  0.4461 -0.8424
11488TIP3   OH255878   6.350   3.264   2.895  0.3339  0.6184  0.4727
11488TIP3    H155879   6.381   3.337   2.842  0.3337  0.9537  0.9270
11488TIP3    H255880   6.420   3.250   2.959  0.4391  0.0653  0.2465
11489TIP3   OH255881   1.269   6.524   0.121 -0.0513 -0.2395 -0.3901
11489TIP3    H155882   1.174   6.538   0.123 -0.5073 -2.8034 -0.5307
11489TIP3    H255883   1.305   6.605   0.084 -2.0674  1.1923  0.6098
11490TIP3   OH255884   0.100   3.960  11.605 -0.0446  0.8067  0.4005
11490TIP3    H155885   0.196   3.957  11.601 -0.0851  0.4017 -0.6351
11490TIP3    H255886   0.080   3.971  11.698  0.9722 -0.9397  0.8750
11491TIP3   OH255887   6.324   5.397  11.266  0.0893  0.9415 -0.0601
11491TIP3    H155888   6.289   5.463  11.326 -2.4113 -0.5709  0.3080
11491TIP3    H255889   6.316   5.314  11.314  1.8300  0.1638 -1.0171
11492TIP3   OH255890   3.543   6.250   6.614 -0.8049 -0.2104  0.4977
11492TIP3    H155891   3.621   6.265   6.668 -0.0839  2.9421 -1.2031
11492TIP3    H255892   3.497   6.334   6.613 -2.6066 -1.1238 -1.0615
11493TIP3   OH255893   2.658   6.090   0.979 -0.0454 -0.2939 -0.0013
11493TIP3    H155894   2.617   6.004   0.984 -0.6153  0.0020  0.5315
11493TIP3    H255895   2.669   6.117   1.071  2.0821 -0.7042 -0.0804
11494TIP3   OH255896   2.960   1.503  14.293 -0.2636  0.5757 -0.4488
11494TIP3    H155897   3.013   1.576  14.325  0.5457  0.3974 -1.3242
11494TIP3    H255898   2.994   1.486  14.205 -0.6605 -0.6297 -0.3898
11495TIP3   OH255899   0.748   0.694  15.868 -0.4741 -0.4277 -0.3882
11495TIP3    H155900   0.765   0.651  15.952  1.9265  1.4778  0.2090
11495TIP3    H255901   0.660   0.731  15.878 -1.8461 -3.4388 -0.2536
11496TIP3   OH255902   5.585   2.425   2.002 -0.2381  0.4852 -0.0457
11496TIP3    H155903   5.593   2.329   1.999  1.6721  0.6049 -0.1247
11496TIP3    H255904   5.625   2.455   1.921 -1.2456  1.3560 -0.2372
11497TIP3   OH255905   5.997   5.488  15.858  0.2858  0.4334 -0.3533
11497TIP3    H155906   5.903   5.475  15.847  0.4295 -0.5951 -0.5322
11497TIP3    H255907   6.005   5.570  15.906 -0.6083  1.5908 -2.1092
11498TIP3   OH255908   2.733   4.897   3.345 -0.2457 -0.0025 -0.6173
11498TIP3    H155909   2.760   4.974   3.395 -2.6196 -0.4188  1.4643
11498TIP3    H255910   2.805   4.835   3.358 -0.2726  0.3203  1.3617
11499TIP3   OH255911   4.786   1.462   0.316 -0.1844 -0.2487  0.2697
11499TIP3    H155912   4.783   1.377   0.360 -1.2376 -1.5905 -2.1832
11499TIP3    H255913   4.745   1.446   0.231  2.1881  2.0227 -1.4467
11500TIP3   OH255914   0.835   2.750  14.062 -0.0491 -0.2988  0.2599
11500TIP3    H155915   0.823   2.679  13.998 -0.9836 -1.0015  1.1773
11500TIP3    H255916   0.909   2.800  14.028 -0.6465 -0.5278 -1.4718
11501TIP3   OH255917   3.665   1.869  15.939 -0.4614  0.0533 -0.3644
11501TIP3    H155918   3.729   1.898  15.875  2.4016 -1.8040  1.4073
11501TIP3    H255919   3.711   1.874  16.023 -2.9641 -0.5678  1.1670
11502TIP3   OH255920   0.658   5.994  17.249 -0.0619 -1.0909  0.1809
11502TIP3    H155921   0.564   6.007  17.260 -0.1304 -0.9550 -0.5201
11502TIP3    H255922   0.698   6.054  17.313 -0.4512 -1.5040  0.8165
11503TIP3   OH255923   6.154   4.595  17.001  0.0026  0.3354  0.3207
11503TIP3    H155924   6.072   4.563  17.037  0.2718 -0.3633  0.3202
11503TIP3    H255925   6.129   4.668  16.944 -0.6821 -0.3122 -0.2164
11504TIP3   OH255926   1.614   2.455   0.603 -0.5638 -0.7015  0.2836
11504TIP3    H155927   1.627   2.421   0.691 -1.7046  0.9834  1.1565
11504TIP3    H255928   1.589   2.546   0.616  0.3711 -0.0871 -1.8539
11505TIP3   OH255929   6.388   5.364  13.395 -0.0327 -0.5546  0.0163
11505TIP3    H155930   6.475   5.400  13.414  0.0204 -0.1516 -0.9225
11505TIP3    H255931   6.404   5.293  13.333 -0.2716 -1.2907  0.7832
11506TIP3   OH255932   5.691   3.892   1.918  0.5471 -0.7531  0.0936
11506TIP3    H155933   5.737   3.864   1.839  0.1418 -2.4463  0.4334
11506TIP3    H255934   5.611   3.840   1.920 -0.7779  1.1957  0.2214
11507TIP3   OH255935   6.468   3.634  13.742 -0.8048 -0.7221  0.0834
11507TIP3    H155936   6.438   3.636  13.832 -0.4429  1.1770  0.2054
11507TIP3    H255937   6.503   3.546  13.730 -1.1376 -1.0982  1.6839
11508TIP3   OH255938   6.505   6.513   0.248  0.0787 -0.3969 -0.2085
11508TIP3    H155939   6.579   6.562   0.283  0.0455  0.0236 -0.7150
11508TIP3    H255940   6.429   6.550   0.293  0.2360 -1.3490  0.8757
11509TIP3   OH255941   4.779   2.501   1.907  0.3010 -0.0378  0.8630
11509TIP3    H155942   4.724   2.573   1.938  0.8033  1.6203 -1.8244
11509TIP3    H255943   4.730   2.463   1.834  0.9439 -1.1473  0.9826
11510TIP3   OH255944   0.302   1.525   1.944  0.4093  0.2455 -0.1305
11510TIP3    H155945   0.309   1.578   2.023 -0.5356  1.0091 -0.5385
11510TIP3    H255946   0.353   1.446   1.963 -1.2786 -0.4355  1.9092
11511TIP3   OH255947   0.110   2.477  16.557  0.0280  0.1033  0.1493
11511TIP3    H155948   0.117   2.411  16.488 -2.5809 -0.0681 -0.0515
11511TIP3    H255949   0.174   2.451  16.622  1.6482 -0.4910 -1.5812
11512TIP3   OH255950   0.815   5.469   1.193 -0.0869 -0.1999  0.0192
11512TIP3    H155951   0.775   5.554   1.210  0.8662  0.0692  1.0518
11512TIP3    H255952   0.907   5.488   1.176  0.1066 -1.0020  0.0900
11513TIP3   OH255953   6.179   4.031  17.612  0.2184  0.1293 -0.0152
11513TIP3    H155954   6.105   3.988  17.569  1.9023 -1.9028 -1.0590
11513TIP3    H255955   6.173   4.005  17.703  0.9948 -2.1338 -0.5615
11514TIP3   OH255956   2.275   3.496  13.389 -0.2250  0.1069 -0.0178
11514TIP3    H155957   2.318   3.428  13.336 -2.8625  0.1596 -2.4631
11514TIP3    H255958   2.186   3.463  13.403 -1.0186  2.2243  0.3027
11515TIP3   OH255959   0.680   1.523   1.392 -0.7394  0.4347 -0.0979
11515TIP3    H155960   0.593   1.512   1.430 -0.6143  1.5350  0.5436
11515TIP3    H255961   0.706   1.612   1.417  0.0927  0.5382 -1.2637
11516TIP3   OH255962   5.364   6.380   3.004 -0.3552  0.1929  0.6130
11516TIP3    H155963   5.356   6.421   2.917 -0.9873  0.4193  0.7739
11516TIP3    H255964   5.395   6.292   2.985  0.3129  0.5047  0.2115
11517TIP3   OH255965   4.960   3.217  16.704  0.2646  0.0353  0.0881
11517TIP3    H155966   5.027   3.275  16.740  0.1156  1.1164 -1.3001
11517TIP3    H255967   4.907   3.273  16.648 -0.7283 -1.1749 -0.2255
11518TIP3   OH255968   1.164   0.484   5.926  0.1321 -0.3161  0.1729
11518TIP3    H155969   1.258   0.488   5.946  0.1680 -0.7909  0.1228
11518TIP3    H255970   1.157   0.517   5.836  0.2662 -0.3743  0.1404
11519TIP3   OH255971   4.460   3.705  11.175  0.5064 -0.2119  0.4240
11519TIP3    H155972   4.514   3.754  11.113  1.5380  0.2938  1.6706
11519TIP3    H255973   4.515   3.696  11.253 -0.8074 -0.6783  1.3359
11520TIP3   OH255974   2.939   6.183   3.517 -0.3309  0.4639  0.4579
11520TIP3    H155975   2.944   6.266   3.564  1.5485  0.9675 -0.5285
11520TIP3    H255976   2.961   6.117   3.583 -1.3373  0.7514  1.1218
11521TIP3   OH255977   1.820   0.251   3.681  0.1093 -0.7328  0.1964
11521TIP3    H155978   1.911   0.224   3.692  0.8802  0.3216 -2.6865
11521TIP3    H255979   1.819   0.342   3.711 -0.0632 -0.8203  0.4584
11522TIP3   OH255980   6.321   2.714  16.902  0.1046 -0.0995 -0.5076
11522TIP3    H155981   6.292   2.624  16.910 -1.3176  0.4264  0.8698
11522TIP3    H255982   6.241   2.766  16.904  0.9144  1.2234 -0.7154
11523TIP3   OH255983   2.624   2.776   6.380 -0.0659 -1.0959 -0.3376
11523TIP3    H155984   2.600   2.866   6.399  0.2323 -0.8653 -1.0449
11523TIP3    H255985   2.666   2.745   6.461  0.0423 -0.5327 -0.1776
11524TIP3   OH255986   6.334   6.159  16.063 -0.4244 -0.8970 -0.6665
11524TIP3    H155987   6.413   6.179  16.013 -0.5408  0.2812 -0.4025
11524TIP3    H255988   6.297   6.081  16.020 -1.1783  0.7323 -3.1804
11525TIP3   OH255989   0.841   3.881  11.167 -0.2486 -0.1405 -0.1168
11525TIP3    H155990   0.809   3.905  11.079  0.3965  1.0924 -0.0386
11525TIP3    H255991   0.912   3.819  11.151 -0.1393  0.0729 -0.4654
11526TIP3   OH255992   0.469   4.435   5.662 -0.0494  0.2141 -0.4178
11526TIP3    H155993   0.383   4.401   5.684  0.1490 -0.8504 -1.1982
11526TIP3    H255994   0.519   4.433   5.744 -0.3431 -0.4701 -0.2544
11527TIP3   OH255995   5.360   0.528   5.626 -0.2436  0.3620  0.4707
11527TIP3    H155996   5.422   0.497   5.692 -0.1969  1.3031  0.9000
11527TIP3    H255997   5.383   0.620   5.613  1.2427 -0.3214 -2.5717
11528TIP3   OH255998   0.167   2.409  17.298  0.2305 -0.4466  0.1646
11528TIP3    H155999   0.152   2.351  17.372  1.4535 -2.8470 -1.3380
11528TIP3    H256000   0.079   2.431  17.266 -0.2699 -1.2343  0.9713
11529TIP3   OH256001   4.190   3.856   0.594  0.6220  0.2093 -0.4636
11529TIP3    H156002   4.205   3.923   0.661 -1.1812 -0.8936  1.1497
11529TIP3    H256003   4.129   3.795   0.634 -1.3862  0.0103 -3.4979
11530TIP3   OH256004   5.499   0.235  10.666  0.2251  0.1231  0.1187
11530TIP3    H156005   5.569   0.283  10.621 -0.0625  0.1490 -0.3100
11530TIP3    H256006   5.514   0.143  10.643  1.2586 -0.1065  1.5986
11531TIP3   OH256007   2.497   4.331  12.373 -0.3307  0.0667  0.1510
11531TIP3    H156008   2.460   4.336  12.285  0.8510 -0.0718 -0.3659
11531TIP3    H256009   2.422   4.346  12.431 -1.0412  0.6230 -0.8791
11532TIP3   OH256010   2.412   2.644   5.792  0.0550 -0.1791 -0.5184
11532TIP3    H156011   2.338   2.587   5.812  1.0097 -0.9402  1.0458
11532TIP3    H256012   2.479   2.621   5.857  0.9178  1.9064 -0.5846
11533TIP3   OH256013   2.533   3.019  16.746 -0.4296  0.2876 -0.0953
11533TIP3    H156014   2.520   2.996  16.838 -1.9694  1.8971  0.1419
11533TIP3    H256015   2.521   2.936  16.699  0.0334 -0.4903  1.1107
11534TIP3   OH256016   4.414   1.676  15.723  0.4230 -0.1452 -0.7188
11534TIP3    H156017   4.479   1.636  15.666  1.6251 -0.6506  0.9155
11534TIP3    H256018   4.415   1.769  15.701 -0.7256 -0.6009 -2.9569
11535TIP3   OH256019   0.662   4.220   3.247  0.0222  0.0502 -0.0012
11535TIP3    H156020   0.615   4.188   3.170 -1.7782  0.4423  0.8744
11535TIP3    H256021   0.700   4.141   3.286 -0.6906 -0.4292 -0.2507
11536TIP3   OH256022   2.005   4.753  15.011 -0.1395 -0.2963  0.2173
11536TIP3    H156023   2.086   4.784  14.971  0.3687 -2.4443 -0.5553
11536TIP3    H256024   1.984   4.819  15.077  1.5357  0.9571 -0.4235
11537TIP3   OH256025   0.886   0.514   3.558  0.1010  0.6433 -0.2727
11537TIP3    H156026   0.900   0.559   3.641  0.9096  1.3824 -0.7861
11537TIP3    H256027   0.944   0.559   3.497  0.4544 -0.6980 -0.9562
11538TIP3   OH256028   2.784   1.786  17.183  0.6221 -0.6583  0.1533
11538TIP3    H156029   2.843   1.854  17.150  1.3878 -1.6253 -0.4874
11538TIP3    H256030   2.831   1.748  17.258 -0.8582  1.1401  2.1161
11539TIP3   OH256031   0.493   1.320   5.521 -0.4041 -0.3967 -0.4596
11539TIP3    H156032   0.575   1.331   5.570 -0.3485  0.9993 -0.8147
11539TIP3    H256033   0.427   1.365   5.573 -1.9186 -4.7300  1.8764
11540TIP3   OH256034   6.476   1.228   5.752 -0.1027  0.1484 -0.0156
11540TIP3    H156035   6.456   1.290   5.822  0.7439  0.3824  0.0397
11540TIP3    H256036   6.514   1.282   5.683  0.6164 -0.2868  0.0212
11541TIP3   OH256037   5.372   0.709   0.709 -0.2389  0.0380 -0.3752
11541TIP3    H156038   5.318   0.761   0.769 -0.3371 -0.9215  0.4031
11541TIP3    H256039   5.461   0.717   0.744 -0.0899  0.5026 -0.8519
11542TIP3   OH256040   3.170   4.586   4.107  0.1484 -0.6932 -0.2888
11542TIP3    H156041   3.223   4.575   4.186 -0.7534 -1.0829  0.2876
11542TIP3    H256042   3.233   4.605   4.038  0.8357  1.3140  0.8105
11543TIP3   OH256043   1.103   0.066   4.604  0.8060 -0.2234 -0.2071
11543TIP3    H156044   1.012   0.058   4.632  0.8948 -0.1532  0.1040
11543TIP3    H256045   1.125  -0.020   4.568  0.7851 -0.4119  0.2249
11544TIP3   OH256046   5.382   6.290   3.412 -0.2328 -0.2999  0.1754
11544TIP3    H156047   5.315   6.339   3.364 -0.6121  0.2916  1.2723
11544TIP3    H256048   5.333   6.224   3.460 -0.0159 -0.0019  0.8137
11545TIP3   OH256049   4.353   1.337   5.983 -0.1761  0.2458  0.3059
11545TIP3    H156050   4.318   1.422   6.010  2.2026  0.7445  2.1637
11545TIP3    H256051   4.320   1.276   6.049 -0.9715 -0.1245 -0.4035
11546TIP3   OH256052   5.393   4.763  14.861 -0.2598  0.1359 -0.2369
11546TIP3    H156053   5.298   4.759  14.863 -0.2304 -2.4117  1.8407
11546TIP3    H256054   5.414   4.856  14.852 -2.8916  0.6824 -1.6189
11547TIP3   OH256055   3.141   0.768  16.029  0.2757 -0.0436 -0.6653
11547TIP3    H156056   3.214   0.745  16.087  0.6642  1.4836 -0.5043
11547TIP3    H256057   3.122   0.688  15.980  1.4481 -0.7177 -0.0372
11548TIP3   OH256058   1.510   5.172  15.992  0.5021 -0.3452 -0.2367
11548TIP3    H156059   1.490   5.246  15.935  0.3611 -1.2512 -1.3975
11548TIP3    H256060   1.476   5.096  15.945 -0.6886 -1.0145  1.5909
11549TIP3   OH256061   3.774   5.922  14.412  0.2334  0.7774 -0.1037
11549TIP3    H156062   3.758   5.915  14.506  0.4319 -0.9454 -0.1668
11549TIP3    H256063   3.779   5.831  14.381  1.2640  1.2947 -1.5962
11550TIP3   OH256064   0.197   6.293   5.388 -0.5714 -0.1565  0.0378
11550TIP3    H156065   0.167   6.342   5.464  4.4404  1.3777  1.4019
11550TIP3    H256066   0.200   6.202   5.417 -0.8979  0.0940  0.8726
11551TIP3   OH256067   2.432   2.400  13.781 -0.2706  0.3429 -0.9828
11551TIP3    H156068   2.400   2.392  13.691 -0.5274 -0.5877 -0.8210
11551TIP3    H256069   2.526   2.414  13.770  0.0356 -1.6506 -1.4033
11552TIP3   OH256070   4.399   1.710  12.188 -0.5396  0.3147 -0.3075
11552TIP3    H156071   4.460   1.702  12.262  1.7797 -0.1105 -2.1711
11552TIP3    H256072   4.421   1.794  12.148 -1.9644  0.6682 -0.4354
11553TIP3   OH256073   2.235   1.356  12.826  0.4121 -0.3049 -0.4258
11553TIP3    H156074   2.152   1.332  12.868  0.4900 -0.1598 -0.1938
11553TIP3    H256075   2.277   1.417  12.886 -0.6587  1.9733 -1.8337
11554TIP3   OH256076   2.118   6.252   3.203  0.2772 -0.0623 -0.2871
11554TIP3    H156077   2.087   6.285   3.287  0.2241  1.0043 -0.7037
11554TIP3    H256078   2.134   6.159   3.218  0.6854  0.1943  1.0258
11555TIP3   OH256079   5.126   5.548   0.155 -0.3290  0.1466 -0.7504
11555TIP3    H156080   5.215   5.514   0.155  0.4907  2.0131  1.7119
11555TIP3    H256081   5.070   5.470   0.162  1.0582 -1.0432 -2.2038
11556TIP3   OH256082   4.098   1.791   6.168 -0.0008  0.3815 -0.0190
11556TIP3    H156083   4.005   1.810   6.176 -0.0255 -0.2898  2.1276
11556TIP3    H256084   4.141   1.876   6.180 -0.3065  0.6381 -0.6757
11557TIP3   OH256085   6.216   4.413   5.928  0.3695 -0.0183  0.2941
11557TIP3    H156086   6.293   4.439   5.978  0.6692  0.1941 -0.2640
11557TIP3    H256087   6.166   4.358   5.988  0.5099  0.5647  0.9639
11558TIP3   OH256088   2.823   3.224   3.142 -0.2197 -0.2183  0.0289
11558TIP3    H156089   2.775   3.259   3.217  2.3776 -0.5134  1.9688
11558TIP3    H256090   2.899   3.283   3.133  1.5337 -2.3445  0.1357
11559TIP3   OH256091   0.917   2.939  13.469  0.1353 -0.2813 -0.6207
11559TIP3    H156092   0.991   2.987  13.505 -0.8747  0.7048  0.2307
11559TIP3    H256093   0.876   3.000  13.407  1.9262 -1.9916 -3.7259
11560TIP3   OH256094   0.019   1.982  10.953 -0.0311  0.2684  0.2170
11560TIP3    H156095   0.094   2.041  10.944 -0.0165  0.4673  1.5490
11560TIP3    H256096   0.055   1.901  10.988 -0.4104  0.3356  0.7813
11561TIP3   OH256097   2.180   4.846   5.701 -0.4213  0.4410 -0.0325
11561TIP3    H156098   2.268   4.874   5.676  0.1797 -0.8300  0.5699
11561TIP3    H256099   2.130   4.928   5.710  0.6076  1.1603 -0.6656
11562TIP3   OH256100   3.120   3.782  16.340 -0.8777  0.4515 -0.2985
11562TIP3    H156101   3.210   3.751  16.353 -0.2243  2.3344 -0.0177
11562TIP3    H256102   3.068   3.702  16.336  0.9066 -0.7283 -1.3596
11563TIP3   OH256103   5.500   0.747   4.060 -0.6345  0.3628  0.6032
11563TIP3    H156104   5.557   0.740   4.137  1.0975 -2.1296 -0.7497
11563TIP3    H256105   5.543   0.813   4.005 -0.0415 -0.2104  0.3709
11564TIP3   OH256106   3.827   5.255  14.260  0.0316  0.1996 -0.6502
11564TIP3    H156107   3.765   5.308  14.210  0.7589  1.7011 -0.0198
11564TIP3    H256108   3.909   5.305  14.258  1.3950 -1.9080 -1.8079
11565TIP3   OH256109   4.673   5.443  17.057 -0.1933  0.2060  0.1422
11565TIP3    H156110   4.623   5.415  17.134 -0.0846  0.0219  0.1475
11565TIP3    H256111   4.647   5.382  16.989 -1.4987  1.3324 -0.4134
11566TIP3   OH256112   5.868   0.581  14.307  0.1641 -0.1046 -0.0017
11566TIP3    H156113   5.917   0.644  14.253 -1.5027 -0.0919 -1.6020
11566TIP3    H256114   5.890   0.496  14.270  1.4866 -0.4221  1.4046
11567TIP3   OH256115   6.569   3.277   1.374 -0.2751  0.7149 -0.1572
11567TIP3    H156116   6.619   3.279   1.456 -1.5928 -0.5940  0.7448
11567TIP3    H256117   6.487   3.232   1.398 -0.6287  0.1789 -2.2398
11568TIP3   OH256118   0.384   0.996   6.271  1.1288  0.1951  0.1519
11568TIP3    H156119   0.298   1.010   6.230  1.9818 -0.5633 -2.0555
11568TIP3    H256120   0.383   1.053   6.348 -0.9110  1.0713 -0.4429
11569TIP3   OH256121   1.828   4.867  11.940 -0.1049 -0.1868  0.3469
11569TIP3    H156122   1.795   4.778  11.928  0.7231 -0.3610 -0.7490
11569TIP3    H256123   1.874   4.864  12.024 -0.9185 -0.5185  0.8004
11570TIP3   OH256124   4.736   3.842   1.431  0.3680 -0.1182 -0.1791
11570TIP3    H156125   4.722   3.935   1.414  0.1521 -0.0013  0.5846
11570TIP3    H256126   4.741   3.802   1.344  1.7645  0.7793 -0.5486
11571TIP3   OH256127   1.863   4.218  16.416 -0.5413 -0.0789 -0.1167
11571TIP3    H156128   1.814   4.136  16.424  1.5069 -1.6709 -2.4830
11571TIP3    H256129   1.801   4.279  16.376 -1.2807 -1.3347 -0.9491
11572TIP3   OH256130   2.323   3.013   6.841 -0.2645 -0.3444  0.0821
11572TIP3    H156131   2.258   3.065   6.793 -1.3900 -1.1645  0.6448
11572TIP3    H256132   2.391   3.075   6.866 -1.7220  0.9357  1.0207
11573TIP3   OH256133   2.704   2.324   0.020  0.1638  0.4895  0.0301
11573TIP3    H156134   2.647   2.299  -0.053  0.7720 -1.6170  0.1958
11573TIP3    H256135   2.646   2.330   0.095 -0.1685  0.5628 -0.2319
11574TIP3   OH256136   3.643   2.248  12.626 -0.1274  0.1059  0.3927
11574TIP3    H156137   3.560   2.284  12.658 -1.1245 -0.4987 -1.3522
11574TIP3    H256138   3.684   2.210  12.703 -2.4054 -1.2989  1.0221
11575TIP3   OH256139   5.170   5.328   4.038  0.1328  0.0445 -0.3834
11575TIP3    H156140   5.130   5.284   3.963  0.8967 -0.7460 -0.3485
11575TIP3    H256141   5.127   5.289   4.114 -1.2507  1.4563 -0.4087
11576TIP3   OH256142   5.963   3.431  15.115  0.1343 -0.0086  0.8370
11576TIP3    H156143   6.014   3.506  15.147 -0.5106  0.2981  1.1586
11576TIP3    H256144   5.934   3.386  15.194 -1.4460  0.7366  0.7201
11577TIP3   OH256145   5.278   2.829  17.427  0.4391 -0.2755 -0.1254
11577TIP3    H156146   5.222   2.768  17.474  2.0200 -0.5069  1.5986
11577TIP3    H256147   5.288   2.903  17.487 -1.2316  1.6587 -2.0557
11578TIP3   OH256148   5.652   4.940   4.320  0.2258  0.4093  0.2201
11578TIP3    H156149   5.747   4.931   4.334  0.1299  1.3480  1.6516
11578TIP3    H256150   5.617   4.964   4.406 -1.2540  0.5517 -0.3977
11579TIP3   OH256151   3.679   3.712   3.480  0.3533  0.0084  0.4168
11579TIP3    H156152   3.649   3.635   3.431  0.9860 -0.3435  0.5702
11579TIP3    H256153   3.615   3.780   3.460 -0.5582 -0.7299  0.7417
11580TIP3   OH256154   2.106   3.208   5.515 -0.5778  0.5999 -0.2643
11580TIP3    H156155   2.039   3.173   5.456 -0.8165 -0.6768  0.7254
11580TIP3    H256156   2.172   3.139   5.520  1.0477  1.9494 -1.4744
11581TIP3   OH256157   1.806   1.983  16.508 -0.0234 -0.6284 -0.1646
11581TIP3    H156158   1.710   1.986  16.501 -0.0682 -1.5433 -0.0424
11581TIP3    H256159   1.833   2.075  16.500 -1.1673  0.1965  3.6525
11582TIP3   OH256160   2.767   5.562   0.619 -0.3347  0.4731 -0.1354
11582TIP3    H156161   2.673   5.573   0.635 -0.1564  2.0375 -0.0460
11582TIP3    H256162   2.780   5.597   0.531  0.1148 -0.0749 -0.2901
11583TIP3   OH256163   0.292   0.837   5.779  0.8089 -0.1301 -0.3121
11583TIP3    H156164   0.221   0.787   5.818  0.8210  0.0343 -0.0748
11583TIP3    H256165   0.348   0.772   5.736  0.9729 -0.3511  0.2271
11584TIP3   OH256166   1.761   1.987  16.028 -0.3740 -0.4071  0.2899
11584TIP3    H156167   1.779   2.035  16.109 -0.7938 -0.3706  0.3628
11584TIP3    H256168   1.723   1.905  16.057 -0.4467 -0.4296  0.1305
11585TIP3   OH256169   1.407   4.591  12.875  0.3114  0.0216 -0.1088
11585TIP3    H156170   1.391   4.617  12.785 -1.2855 -0.1427  0.0963
11585TIP3    H256171   1.480   4.646  12.904  1.0138 -0.1039 -1.5617
11586TIP3   OH256172   2.231   4.673  11.819  0.0044  0.3851 -0.2334
11586TIP3    H156173   2.291   4.721  11.762  1.8632 -1.1822  0.2915
11586TIP3    H256174   2.241   4.714  11.905 -0.3898  0.7287 -0.3530
11587TIP3   OH256175   3.150   0.926  12.219 -0.0586  0.2706  0.7227
11587TIP3    H156176   3.068   0.975  12.216  0.2342  0.7439 -1.1061
11587TIP3    H256177   3.207   0.972  12.158  1.0089 -1.0141  0.7155
11588TIP3   OH256178   0.575   5.426   4.974  0.4333  0.0369 -0.4269
11588TIP3    H156179   0.536   5.485   4.910  0.1676 -0.0933 -0.3841
11588TIP3    H256180   0.502   5.375   5.008  0.1983  1.5537  1.5460
11589TIP3   OH256181   3.100   0.309  14.096 -0.3722  0.9334 -0.3316
11589TIP3    H156182   3.055   0.239  14.050 -0.5789  0.9225 -0.1140
11589TIP3    H256183   3.129   0.269  14.178 -0.4699  1.0958 -0.2175
11590TIP3   OH256184   6.370   0.794   0.472 -0.0692  0.5792  0.0601
11590TIP3    H156185   6.362   0.785   0.567 -0.7928 -2.4879 -0.2027
11590TIP3    H256186   6.464   0.786   0.456 -0.0860 -0.6481  0.4398
11591TIP3   OH256187   5.955   4.908   2.161 -0.1144  0.5343 -0.1860
11591TIP3    H156188   5.951   4.813   2.144  0.8532  0.7418 -1.7645
11591TIP3    H256189   5.869   4.940   2.135 -0.3110  0.1527 -0.0244
11592TIP3   OH256190   5.761   0.391   3.758 -0.2071 -0.3306 -0.2643
11592TIP3    H156191   5.812   0.311   3.748  0.4578 -0.2665  2.0627
11592TIP3    H256192   5.814   0.459   3.715 -0.0011 -0.8405 -0.8306
11593TIP3   OH256193   0.541   5.564  10.877  0.6303  0.3260  0.4021
11593TIP3    H156194   0.480   5.633  10.904 -0.0369 -0.0407 -0.1264
11593TIP3    H256195   0.627   5.607  10.874  0.5380  0.6572  1.9289
11594TIP3   OH256196   3.985   1.396   1.640 -0.1050 -0.0888 -0.1699
11594TIP3    H156197   3.972   1.490   1.630  1.0395 -0.1383 -3.3633
11594TIP3    H256198   3.897   1.360   1.648 -0.7002  1.1256 -0.8864
11595TIP3   OH256199   2.590   4.089  11.372 -0.1014  0.1258  0.1395
11595TIP3    H156200   2.529   4.038  11.425  1.6863 -0.3547  1.8387
11595TIP3    H256201   2.668   4.034  11.365  0.3728  0.9355 -1.5207
11596TIP3   OH256202   6.271   6.235  15.315 -0.5409 -0.2851  0.3689
11596TIP3    H156203   6.302   6.184  15.240  0.9519  0.2642  0.5764
11596TIP3    H256204   6.264   6.324  15.281 -1.5037 -0.3304  0.4431
11597TIP3   OH256205   4.718   1.712  15.869 -0.6226 -0.2637 -0.3006
11597TIP3    H156206   4.678   1.777  15.813  0.0653  0.8261  0.4411
11597TIP3    H256207   4.646   1.679  15.923 -0.5807  1.6236  0.9743
11598TIP3   OH256208   1.117   2.273   3.219 -0.4055  0.0063 -0.3343
11598TIP3    H156209   1.111   2.186   3.258 -0.6252  0.2742  0.2483
11598TIP3    H256210   1.073   2.266   3.134  0.4548 -0.6963 -0.7365
11599TIP3   OH256211   0.581   3.610   5.133 -0.2307  0.3224  0.2240
11599TIP3    H156212   0.539   3.692   5.105 -0.2850  0.2372  0.0584
11599TIP3    H256213   0.509   3.547   5.139  0.1887 -0.5755 -2.7258
11600TIP3   OH256214   2.144   6.565   4.020  0.1556 -0.4196  0.0026
11600TIP3    H156215   2.210   6.547   4.087  0.5909  0.5132 -0.1545
11600TIP3    H256216   2.098   6.643   4.053  0.9204  0.5508 -1.1553
11601TIP3   OH256217   3.510   0.513   3.131  0.1022  0.3247  0.0914
11601TIP3    H156218   3.441   0.579   3.137  0.6983  0.9154  0.6928
11601TIP3    H256219   3.468   0.431   3.159  0.1193  1.0558  2.4790
11602TIP3   OH256220   0.736   5.879  13.021  0.0522 -0.2465 -0.0246
11602TIP3    H156221   0.831   5.873  13.037  0.4016  0.8527 -1.5256
11602TIP3    H256222   0.697   5.858  13.106  1.5937 -1.6487  0.4050
11603TIP3   OH256223   6.328   2.741   4.457 -0.0881 -0.0898 -0.0286
11603TIP3    H156224   6.265   2.774   4.521  0.7866 -0.8627  1.2863
11603TIP3    H256225   6.392   2.811   4.448 -1.4311  0.9974 -1.9124
11604TIP3   OH256226   2.755   6.683   5.381 -0.0702  0.3980 -0.1164
11604TIP3    H156227   2.845   6.713   5.377  0.6528 -1.6843 -0.6659
11604TIP3    H256228   2.705   6.751   5.335  1.6881 -0.0188 -2.8192
11605TIP3   OH256229   2.889   4.270  11.217  0.4224 -0.3861 -0.3180
11605TIP3    H156230   2.881   4.177  11.238  0.6225  0.0780  2.1377
11605TIP3    H256231   2.967   4.275  11.161 -2.1516 -2.1160 -4.5951
11606TIP3   OH256232   3.663   2.500   4.210 -0.0479 -0.5157 -0.5241
11606TIP3    H156233   3.757   2.514   4.193 -0.0851  1.3750  0.5861
11606TIP3    H256234   3.640   2.427   4.153  1.9620 -0.6384 -1.2844
11607TIP3   OH256235   4.557   2.494  13.924  0.1368  0.2455  0.2616
11607TIP3    H156236   4.616   2.569  13.932  0.9016 -0.1494 -1.2385
11607TIP3    H256237   4.505   2.512  13.845 -1.4353  0.3451  1.2704
11608TIP3   OH256238   3.666   2.039  12.448  0.2001  0.2054  0.2186
11608TIP3    H156239   3.674   2.118  12.502  1.7734 -0.9262  1.7451
11608TIP3    H256240   3.707   1.970  12.500  0.9034 -1.1728 -2.0214
11609TIP3   OH256241   6.330   5.815  15.310  0.4996 -0.3884 -0.0101
11609TIP3    H156242   6.358   5.725  15.329 -1.5339 -0.8770  0.9407
11609TIP3    H256243   6.284   5.808  15.226  0.6788 -0.1580 -0.1276
11610TIP3   OH256244   5.257   4.344   2.512 -0.5167  0.2563 -0.1052
11610TIP3    H156245   5.219   4.412   2.457 -0.3100  0.5457  0.1077
11610TIP3    H256246   5.201   4.340   2.590 -0.0600  0.7599  0.2594
11611TIP3   OH256247   3.150   6.220   4.872 -0.0410 -0.0332  0.5100
11611TIP3    H156248   3.067   6.199   4.914 -0.4266 -0.8839 -0.6279
11611TIP3    H256249   3.125   6.271   4.794  0.2712 -2.1244 -1.0494
11612TIP3   OH256250   1.738   1.692  12.458  0.3545  0.8118  0.4797
11612TIP3    H156251   1.747   1.670  12.551  0.0070  1.2450  0.6189
11612TIP3    H256252   1.661   1.748  12.454  0.5863  1.1009 -0.0202
11613TIP3   OH256253   1.235   2.111  15.359 -0.1135  0.0171 -0.0047
11613TIP3    H156254   1.142   2.110  15.384 -0.3459 -0.6890 -0.8448
11613TIP3    H256255   1.244   2.036  15.300  1.6134 -1.7255  2.2822
11614TIP3   OH256256   2.887   3.790   5.053 -0.3088 -0.4823  0.3274
11614TIP3    H156257   2.856   3.711   5.099  3.2853 -1.8197  0.8206
11614TIP3    H256258   2.893   3.763   4.961  0.7651 -0.8007  0.4725
11615TIP3   OH256259   5.057   0.271  11.856 -0.1165  0.3945 -0.0905
11615TIP3    H156260   5.134   0.327  11.860 -0.8857  1.6110 -1.5806
11615TIP3    H256261   5.063   0.228  11.771  0.4609 -1.8834  1.0079
11616TIP3   OH256262   1.206   0.793  15.872 -0.3188 -0.1584 -0.2199
11616TIP3    H156263   1.160   0.877  15.868 -0.9096 -0.3296  1.6999
11616TIP3    H256264   1.275   0.807  15.938  2.1726 -0.0635 -2.6493
11617TIP3   OH256265   5.301   4.676  11.699 -0.2361  0.1544 -0.1173
11617TIP3    H156266   5.254   4.657  11.618 -0.7690  1.5111 -0.1635
11617TIP3    H256267   5.254   4.629  11.767  0.7582 -1.7449 -0.6846
11618TIP3   OH256268   1.480   3.446  10.784 -0.1894  0.2797  0.5368
11618TIP3    H156269   1.430   3.409  10.857 -1.3437 -0.3669 -0.5637
11618TIP3    H256270   1.561   3.396  10.783 -0.1934  0.2341  1.3018
11619TIP3   OH256271   0.296   1.941   6.927 -0.0460 -0.6588 -0.7046
11619TIP3    H156272   0.351   1.903   6.858 -0.2827 -3.2630  0.4397
11619TIP3    H256273   0.350   1.937   7.006 -0.0397  1.6420 -0.5206
11620TIP3   OH256274   0.996   5.873  17.157  0.1657 -0.1300 -0.2974
11620TIP3    H156275   0.993   5.941  17.224  1.8661 -0.6629  0.3681
11620TIP3    H256276   0.937   5.805  17.189  0.5088 -0.1166  0.3742
11621TIP3   OH256277   4.047   4.250   0.977 -0.1760  0.3968  0.1030
11621TIP3    H156278   4.035   4.212   1.064 -0.6566 -0.1372 -0.1844
11621TIP3    H256279   4.033   4.176   0.917  2.2248  0.2613 -0.3788
11622TIP3   OH256280   3.406   6.439  13.855  1.0335 -0.0491  0.4299
11622TIP3    H156281   3.476   6.374  13.863  1.3491  0.3110  0.6619
11622TIP3    H256282   3.442   6.505  13.795  1.2222  0.5533  1.1818
11623TIP3   OH256283   4.112   5.722   6.012 -0.4929 -0.1541 -0.0385
11623TIP3    H156284   4.200   5.736   6.049 -0.0930 -0.9887 -0.6553
11623TIP3    H256285   4.054   5.724   6.089  0.3306 -1.9031  0.6940
11624TIP3   OH256286   0.888   2.102  13.690 -0.4952 -0.0141  0.0777
11624TIP3    H156287   0.960   2.064  13.640 -0.5196 -1.2835  0.9812
11624TIP3    H256288   0.838   2.152  13.625  0.5620 -0.0297 -0.7723
11625TIP3   OH256289   0.287   2.310   4.094  0.4773  0.5439 -0.6384
11625TIP3    H156290   0.261   2.232   4.045 -0.6402  1.4658 -1.5840
11625TIP3    H256291   0.252   2.296   4.182  0.3173 -0.0393 -0.7927
11626TIP3   OH256292   3.472   0.799   1.732 -0.0964  0.1656  0.2027
11626TIP3    H156293   3.466   0.738   1.659 -0.9139  2.1218 -1.4593
11626TIP3    H256294   3.381   0.814   1.758  0.2214 -2.1406  3.1810
11627TIP3   OH256295   0.052   3.532  12.182 -0.0991 -0.3700 -0.3217
11627TIP3    H156296   0.139   3.521  12.219  0.8091  0.5529 -2.0641
11627TIP3    H256297   0.031   3.447  12.143  0.4773 -0.2821 -0.8253
11628TIP3   OH256298   2.303   0.240  11.727 -0.2667 -0.3814  0.2299
11628TIP3    H156299   2.318   0.235  11.822  1.3746 -1.3707 -0.0484
11628TIP3    H256300   2.359   0.172  11.691  0.5356  1.1919 -1.6201
11629TIP3   OH256301   3.304   1.144  15.161 -0.3485 -0.1128 -0.1787
11629TIP3    H156302   3.341   1.147  15.250 -0.3154 -0.0359 -0.1947
11629TIP3    H256303   3.333   1.225  15.121 -1.6897  0.6032  0.2673
11630TIP3   OH256304   5.333   6.376  14.540  0.2063 -0.1614  0.6496
11630TIP3    H156305   5.406   6.363  14.479  2.4395  0.6800  2.9574
11630TIP3    H256306   5.326   6.293  14.586 -0.1491 -0.1713  0.5751
11631TIP3   OH256307   0.771   1.223  15.072  0.0728  0.3203  0.1443
11631TIP3    H156308   0.866   1.232  15.078  0.0749 -0.2088  1.2391
11631TIP3    H256309   0.738   1.278  15.143 -0.3310 -1.0048  1.0139
11632TIP3   OH256310   6.513   4.906  11.873 -0.3819 -0.2690 -0.1377
11632TIP3    H156311   6.484   4.894  11.782  0.6814 -0.5845 -0.4507
11632TIP3    H256312   6.453   4.852  11.924  0.0437 -1.4807 -0.8436
11633TIP3   OH256313   2.192   1.299   1.819  0.2801  0.0128 -0.0828
11633TIP3    H156314   2.147   1.221   1.852 -0.5364  0.7606  0.6056
11633TIP3    H256315   2.262   1.264   1.764 -0.0496 -1.2090  0.2381
11634TIP3   OH256316   3.840   2.466   5.682 -0.4282 -0.1675 -0.7300
11634TIP3    H156317   3.835   2.475   5.777  1.1714 -3.3323 -0.2251
11634TIP3    H256318   3.933   2.478   5.662 -0.6210 -0.3309 -1.8049
11635TIP3   OH256319   5.034   4.754   2.148  0.2934 -0.3907 -0.0924
11635TIP3    H156320   5.128   4.747   2.136  0.4235  0.1742  0.5545
11635TIP3    H256321   5.007   4.666   2.173  0.7713 -0.3671  0.5171
11636TIP3   OH256322   6.202   6.367   4.914  0.2636 -0.5928  0.3454
11636TIP3    H156323   6.202   6.287   4.862  0.0849 -0.1632 -0.3228
11636TIP3    H256324   6.149   6.429   4.864  1.3982  0.3375  0.2577
11637TIP3   OH256325   1.549   1.939   5.896 -0.2371 -0.1962  0.1895
11637TIP3    H156326   1.515   1.973   5.813 -0.8522 -1.6260 -0.1828
11637TIP3    H256327   1.632   1.985   5.909 -0.8129  1.0836 -0.4818
11638TIP3   OH256328   2.704   2.955   1.988 -0.8552  0.0539 -0.3076
11638TIP3    H156329   2.744   2.926   1.906  0.7612  1.3599 -0.0208
11638TIP3    H256330   2.770   3.010   2.029 -0.1718 -3.1690  3.5512
11639TIP3   OH256331   2.090   2.280  15.207 -0.4844  0.2229  0.1082
11639TIP3    H156332   2.127   2.294  15.120 -0.9904 -0.3048 -0.1975
11639TIP3    H256333   2.050   2.364  15.230 -0.7027  0.2433 -0.3409
11640TIP3   OH256334   3.806   6.418   2.797 -0.2215  0.2262 -0.2101
11640TIP3    H156335   3.899   6.396   2.801 -0.5674 -1.2450  0.2846
11640TIP3    H256336   3.788   6.465   2.879 -0.0581 -0.0568 -0.0127
11641TIP3   OH256337   3.012   2.652   3.908 -0.8058  0.2922  0.5372
11641TIP3    H156338   3.006   2.600   3.988 -1.4108 -0.2705  0.1434
11641TIP3    H256339   3.043   2.590   3.841  0.3710  0.9275  0.4812
11642TIP3   OH256340   4.919   4.391   0.449 -0.1877 -0.0524  0.4736
11642TIP3    H156341   4.896   4.380   0.541 -0.5515 -2.4818  0.1701
11642TIP3    H256342   4.975   4.316   0.429  1.5080  1.4701 -0.8195
11643TIP3   OH256343   6.252   1.360  13.035  0.3502  0.5487 -0.2484
11643TIP3    H156344   6.317   1.411  12.987 -0.6050  0.8905 -1.1952
11643TIP3    H256345   6.218   1.421  13.101  0.6246  0.5180 -0.0742
11644TIP3   OH256346   5.507   3.991   5.170  0.1111 -0.2492 -0.2423
11644TIP3    H156347   5.512   4.024   5.260  3.2621  2.6479 -1.2376
11644TIP3    H256348   5.527   3.898   5.177  1.1197  0.0739  1.9893
11645TIP3   OH256349   5.723   5.622  12.748 -0.4774 -0.9014  0.0505
11645TIP3    H156350   5.756   5.707  12.775 -0.7917 -1.0111  0.8137
11645TIP3    H256351   5.784   5.559  12.786 -0.8718 -1.0550  0.4379
11646TIP3   OH256352   1.681   2.211   4.766 -0.3617 -0.1710 -0.3955
11646TIP3    H156353   1.653   2.147   4.832 -1.3242 -0.2154 -0.8308
11646TIP3    H256354   1.746   2.265   4.812 -0.4965 -0.6317  0.3726
11647TIP3   OH256355   2.907   4.128   3.670  0.0362 -0.0280  0.0725
11647TIP3    H156356   2.836   4.063   3.668 -1.3192  1.3483  0.7224
11647TIP3    H256357   2.891   4.176   3.752  0.4314  1.6944 -0.8388
11648TIP3   OH256358   2.068   0.144  11.045 -0.2600  0.0406 -0.1942
11648TIP3    H156359   2.110   0.064  11.015 -0.4425  0.2752 -1.1031
11648TIP3    H256360   2.140   0.202  11.067 -0.1231 -0.1388 -0.1667
11649TIP3   OH256361   5.362   2.329  15.921 -0.1436 -0.0565 -0.2688
11649TIP3    H156362   5.362   2.419  15.956  0.9132 -0.5372  1.0605
11649TIP3    H256363   5.410   2.336  15.839  1.1330  0.3958  0.4824
11650TIP3   OH256364   4.813   6.316  16.888  0.0929  0.0485  0.0774
11650TIP3    H156365   4.806   6.406  16.859  0.7784  0.0977  0.0387
11650TIP3    H256366   4.850   6.269  16.814  1.2024  0.0442  0.6068
11651TIP3   OH256367   5.892   1.439   0.645  0.3521 -0.1714  0.0223
11651TIP3    H156368   5.940   1.388   0.580  1.3584 -1.4367  1.6891
11651TIP3    H256369   5.958   1.497   0.683  0.3691 -1.1246  1.5384
11652TIP3   OH256370   6.342   4.196   1.760 -0.2581 -0.0765  0.3382
11652TIP3    H156371   6.395   4.276   1.765  0.7287 -0.6383 -0.7289
11652TIP3    H256372   6.251   4.228   1.759  0.0650  0.9436  1.3246
11653TIP3   OH256373   1.474   1.392   0.803 -0.2356  0.0450 -0.3772
11653TIP3    H156374   1.564   1.403   0.773  0.9371 -2.7348  1.6719
11653TIP3    H256375   1.479   1.325   0.871 -3.7139  0.6860  0.7221
11654TIP3   OH256376   0.320   1.416   5.715 -0.6075 -0.1866 -0.1817
11654TIP3    H156377   0.377   1.415   5.792 -0.3418 -1.4957 -0.3698
11654TIP3    H256378   0.252   1.481   5.736  0.9385  1.4457  0.0280
11655TIP3   OH256379   1.431   1.866   1.143 -0.6906  0.2171  0.0439
11655TIP3    H156380   1.393   1.838   1.226 -0.5273 -0.3463 -0.0624
11655TIP3    H256381   1.417   1.960   1.140  0.0339  0.3793  1.0958
11656TIP3   OH256382   3.142   6.646  14.311 -0.0534  0.8012  0.4087
11656TIP3    H156383   3.054   6.638  14.348 -1.2782  1.6790 -2.0694
11656TIP3    H256384   3.129   6.695  14.229  2.2811 -1.6411 -1.6095
11657TIP3   OH256385   5.557   3.517   0.729 -0.1163 -0.3270  0.1883
11657TIP3    H156386   5.594   3.555   0.648 -0.7700  0.2668  0.1585
11657TIP3    H256387   5.611   3.555   0.799 -0.7704  0.6974  0.1598
11658TIP3   OH256388   0.422   4.828  13.419 -0.0704  0.4665 -0.0310
11658TIP3    H156389   0.330   4.848  13.406 -0.2336 -0.0645  0.2766
11658TIP3    H256390   0.423   4.738  13.450  0.6052  0.2209 -0.7295
11659TIP3   OH256391   3.083   4.781   1.997 -0.5455 -0.6572 -0.3932
11659TIP3    H156392   3.134   4.794   1.918  0.9637  1.4955  0.7995
11659TIP3    H256393   2.994   4.808   1.974  0.1597  1.2474 -1.0682
11660TIP3   OH256394   1.815   4.675  13.516  0.1554 -0.1514  0.2269
11660TIP3    H156395   1.732   4.628  13.511  0.6591 -0.9946 -0.7155
11660TIP3    H256396   1.798   4.750  13.572 -0.4694 -1.9371  2.5589
11661TIP3   OH256397   0.002   3.018  15.426  0.1998 -0.1645 -0.3488
11661TIP3    H156398   0.059   2.964  15.480  0.1766  0.6066  0.4689
11661TIP3    H256399  -0.027   3.089  15.484 -3.0979 -1.5146 -0.1129
11662TIP3   OH256400   2.323   2.216  16.163 -0.3664  0.0723  0.1432
11662TIP3    H156401   2.365   2.291  16.205 -0.8594  0.0611  0.6651
11662TIP3    H256402   2.311   2.153  16.234  0.3061 -0.6325 -0.3416
11663TIP3   OH256403   0.418   6.519  14.154 -0.0259 -0.6064  0.0272
11663TIP3    H156404   0.429   6.451  14.088 -3.8139 -1.5307  0.0787
11663TIP3    H256405   0.453   6.598  14.113  0.1844 -1.6808 -1.9964
11664TIP3   OH256406   2.623   2.144  17.372 -0.6721 -0.0176  0.4889
11664TIP3    H156407   2.587   2.185  17.450 -0.8967 -0.1572  0.4574
11664TIP3    H256408   2.577   2.187  17.299 -0.6084 -0.0322  0.4397
11665TIP3   OH256409   3.680   6.560  12.343 -0.4439 -0.1094  1.2035
11665TIP3    H156410   3.735   6.613  12.286 -1.8903 -0.3846 -0.5359
11665TIP3    H256411   3.638   6.496  12.285  1.0332 -3.0879  3.1372
11666TIP3   OH256412   4.017   2.472  16.519  0.2677 -0.0391  0.4610
11666TIP3    H156413   4.037   2.564  16.505  1.6458 -0.2662  0.8012
11666TIP3    H256414   4.050   2.452  16.606 -1.5073 -0.4741  1.0740
11667TIP3   OH256415   0.075   1.450   0.641 -0.6298  0.2500 -0.0581
11667TIP3    H156416   0.004   1.485   0.695 -0.7286 -0.5204  0.3274
11667TIP3    H256417   0.033   1.428   0.558 -1.1434 -1.3204  0.5607
11668TIP3   OH256418   0.999   5.568   1.865 -0.5915 -0.2790 -0.1622
11668TIP3    H156419   1.053   5.586   1.942  1.0019 -1.2300 -1.0178
11668TIP3    H256420   0.927   5.631   1.872  1.7049  2.5428 -0.0502
11669TIP3   OH256421   6.576   2.233  13.841  0.7240 -0.3079 -0.4563
11669TIP3    H156422   6.544   2.168  13.778 -2.5072  0.4031  0.2899
11669TIP3    H256423   6.622   2.297  13.787  1.3744 -1.6589 -1.5691
11670TIP3   OH256424   0.781   3.062  15.664 -0.6029  0.3146  0.3422
11670TIP3    H156425   0.738   3.124  15.605  0.5944  1.5418  0.7060
11670TIP3    H256426   0.870   3.096  15.673 -0.6810  0.0191  2.6433
11671TIP3   OH256427   3.843   3.390   3.318  0.0189  0.0703  0.6530
11671TIP3    H156428   3.791   3.446   3.260  1.7773  0.1921 -0.9034
11671TIP3    H256429   3.847   3.438   3.400  0.0369  1.4279 -0.1020
11672TIP3   OH256430   1.296   3.436  13.850  0.7581 -0.0198 -0.7026
11672TIP3    H156431   1.235   3.504  13.878  1.9308  0.9622 -0.4472
11672TIP3    H256432   1.286   3.433  13.754  0.0925 -0.0963 -0.6350
11673TIP3   OH256433   3.133   5.030  14.838  0.4504  0.2172  0.0545
11673TIP3    H156434   3.226   5.015  14.821  0.9558  2.0987  0.9196
11673TIP3    H256435   3.090   5.007  14.755  1.2045 -3.8271  0.5828
11674TIP3   OH256436   2.492   6.062  13.495 -0.4777 -0.1985  0.2125
11674TIP3    H156437   2.579   6.068  13.456  0.0633  0.2026  1.4155
11674TIP3    H256438   2.498   5.988  13.556 -1.0490 -0.3171  0.1277
11675TIP3   OH256439   2.028   6.625   2.556 -0.0272  0.3189 -0.0178
11675TIP3    H156440   1.935   6.649   2.548  0.1098  0.9444  0.2468
11675TIP3    H256441   2.026   6.536   2.590 -0.5377  0.1856 -0.3774
11676TIP3   OH256442   5.503   5.252  11.619  0.0474  0.6571  0.0811
11676TIP3    H156443   5.518   5.162  11.647  2.8887  1.1182  0.3420
11676TIP3    H256444   5.463   5.244  11.532  0.2716 -0.8529  0.0995
11677TIP3   OH256445   6.505   1.542   0.214 -0.5511  0.1468 -0.0970
11677TIP3    H156446   6.562   1.546   0.138  1.8350  0.0252  1.5793
11677TIP3    H256447   6.527   1.619   0.266  0.3335 -1.4195  2.0245
11678TIP3   OH256448   3.553   4.309  11.790  0.5612  0.3162  0.6506
11678TIP3    H156449   3.578   4.275  11.875  2.9687  1.4129  0.4723
11678TIP3    H256450   3.596   4.251  11.727  0.3396  0.6016  0.2289
11679TIP3   OH256451   6.375   1.782   3.062  0.0805  0.4776  0.0539
11679TIP3    H156452   6.466   1.812   3.054 -0.3988  1.5672 -2.1958
11679TIP3    H256453   6.379   1.690   3.034  0.7794 -0.2007  2.1663
11680TIP3   OH256454   5.408   0.258  11.354  0.6749 -1.0338 -0.3921
11680TIP3    H156455   5.471   0.214  11.297  1.5698  0.0457 -0.2885
11680TIP3    H256456   5.393   0.343  11.312  2.8747  0.6307  1.8480
11681TIP3   OH256457   0.516   5.466   2.321 -0.4425  0.1717  0.2321
11681TIP3    H156458   0.472   5.535   2.371  0.4774  1.6980 -0.9752
11681TIP3    H256459   0.583   5.433   2.381 -0.4772  0.7753  0.6115
11682TIP3   OH256460   5.159   0.312  16.818 -0.4010  0.1482  0.3629
11682TIP3    H156461   5.112   0.264  16.750  0.4909  0.1785 -0.2863
11682TIP3    H256462   5.122   0.279  16.900 -2.3216  0.9446 -0.1207
11683TIP3   OH256463   4.359   2.926   0.845 -0.0186  0.0372  0.0039
11683TIP3    H156464   4.306   2.875   0.906  0.0058 -1.5339 -1.1960
11683TIP3    H256465   4.447   2.922   0.882  0.0652 -1.2013 -0.2659
11684TIP3   OH256466   5.267   5.926   2.176  0.0105 -1.1472 -0.5868
11684TIP3    H156467   5.215   5.989   2.226  1.3233  2.6917 -3.6189
11684TIP3    H256468   5.341   5.906   2.234 -1.3526 -1.5174  1.1470
11685TIP3   OH256469   2.623   3.840  13.512 -0.6698  0.1074  0.1664
11685TIP3    H156470   2.561   3.771  13.488 -2.0277  1.4556 -0.3610
11685TIP3    H256471   2.683   3.846  13.438 -0.5257 -0.5197  0.2289
11686TIP3   OH256472   6.328   3.749   6.615  0.0739  0.0203 -0.2288
11686TIP3    H156473   6.422   3.747   6.634  0.3748 -1.9358 -1.6305
11686TIP3    H256474   6.322   3.780   6.525 -0.5914 -0.4182 -0.3416
11687TIP3   OH256475   0.394   6.652  14.777  0.2283 -0.0305 -0.1360
11687TIP3    H156476   0.306   6.628  14.807 -0.5741  2.4242 -0.2653
11687TIP3    H256477   0.410   6.596  14.701 -0.4403 -1.7606  0.9392
11688TIP3   OH256478   3.838   5.668   0.325  0.3252 -0.0650  0.0858
11688TIP3    H156479   3.814   5.727   0.253 -0.9218 -1.2224 -0.4980
11688TIP3    H256480   3.915   5.621   0.293 -0.0766 -0.3988 -0.4103
11689TIP3   OH256481   1.835   0.114  13.194  0.3558  0.2364  0.7667
11689TIP3    H156482   1.915   0.160  13.221  0.6889  0.8592 -1.1681
11689TIP3    H256483   1.785   0.104  13.275  0.2487  4.0308  1.3424
11690TIP3   OH256484   1.791   4.338   3.408 -0.1695 -0.3674 -0.2585
11690TIP3    H156485   1.794   4.244   3.425  0.0524 -0.3832 -0.3866
11690TIP3    H256486   1.740   4.374   3.481 -0.1177 -0.5655 -0.1255
11691TIP3   OH256487   2.514   6.568   5.056  0.1497  0.4032 -0.2254
11691TIP3    H156488   2.422   6.568   5.081  0.5126  2.6371  1.4027
11691TIP3    H256489   2.561   6.541   5.135  0.9287 -0.3207 -0.9131
11692TIP3   OH256490   4.441   1.331  12.551  0.4212  0.1692  0.4203
11692TIP3    H156491   4.474   1.348  12.639  1.6077 -1.0153  0.2320
11692TIP3    H256492   4.509   1.277  12.510 -0.3781  0.2256 -1.0241
11693TIP3   OH256493   1.389   1.277   3.843 -0.2457 -0.1178  0.2272
11693TIP3    H156494   1.442   1.208   3.804  1.3460  1.1690  0.0159
11693TIP3    H256495   1.411   1.276   3.936 -1.8038 -1.2125  0.6396
11694TIP3   OH256496   5.522   3.249   0.783  0.0735 -1.0779 -0.4139
11694TIP3    H156497   5.609   3.222   0.813  0.0982 -0.3467  0.2170
11694TIP3    H256498   5.526   3.345   0.782 -0.6749 -1.0457 -0.5314
11695TIP3   OH256499   6.490   3.210  16.241  0.2175  0.2488  0.3199
11695TIP3    H156500   6.403   3.222  16.278 -1.2044  0.7216 -2.8408
11695TIP3    H256501   6.492   3.118  16.213  1.1758 -0.0479  1.2832
11696TIP3   OH256502   1.529   4.759  11.326  0.4471 -0.3390 -0.5544
11696TIP3    H156503   1.497   4.671  11.306 -1.0955 -0.0333  0.3720
11696TIP3    H256504   1.455   4.817  11.306  1.9128  0.9499 -2.5668
11697TIP3   OH256505   6.354   1.457  16.550  0.0139  0.1964  0.6092
11697TIP3    H156506   6.288   1.509  16.595 -2.5224 -0.9572 -1.5301
11697TIP3    H256507   6.389   1.516  16.483  1.3734  0.8446  1.8150
11698TIP3   OH256508   4.652   1.576  12.693 -0.1959 -0.5180  0.9493
11698TIP3    H156509   4.606   1.521  12.756  1.9612 -2.3254  1.0562
11698TIP3    H256510   4.635   1.535  12.608  0.9326 -1.0622  0.9637
11699TIP3   OH256511   1.445   3.678  12.126 -0.3572 -0.0926  0.4330
11699TIP3    H156512   1.391   3.604  12.098  0.8125 -1.0705  0.6361
11699TIP3    H256513   1.535   3.649  12.108  0.1224  1.2580  0.5900
11700TIP3   OH256514   0.917   0.978  11.588  0.3058  0.3286 -0.5298
11700TIP3    H156515   0.952   1.064  11.613 -0.1994  0.3983 -0.0270
11700TIP3    H256516   0.865   0.951  11.664  0.8202 -0.6254 -0.4992
11701TIP3   OH256517   1.754   1.292  13.505 -0.1952  0.3519 -0.5645
11701TIP3    H156518   1.794   1.252  13.582  1.3991  0.8040 -1.1117
11701TIP3    H256519   1.681   1.343  13.539  1.2372  1.5770  0.8480
11702TIP3   OH256520   0.737   0.209   1.841 -0.2837 -0.5976 -0.1368
11702TIP3    H156521   0.794   0.147   1.795  1.5799  0.4254  0.6649
11702TIP3    H256522   0.697   0.261   1.771  0.0420 -1.1255 -0.7215
11703TIP3   OH256523   6.450   6.709  14.809  0.0297  0.3892  0.1836
11703TIP3    H156524   6.392   6.784  14.823 -0.2277  0.1885  0.1943
11703TIP3    H256525   6.412   6.639  14.861 -0.0543  0.0823 -0.2836
11704TIP3   OH256526   6.487   3.587  13.158 -0.1551 -0.5190 -0.2632
11704TIP3    H156527   6.485   3.516  13.222 -1.8292 -0.5611 -0.3078
11704TIP3    H256528   6.463   3.545  13.076 -2.4388  0.2638 -0.0566
11705TIP3   OH256529   3.223   4.859  17.478 -0.3455 -0.4273  0.2266
11705TIP3    H156530   3.133   4.885  17.499  0.6963  2.7185  1.3719
11705TIP3    H256531   3.267   4.856  17.563  0.9410 -0.5028 -0.4249
11706TIP3   OH256532   5.456   3.519   4.416 -0.1022 -0.5724  1.1582
11706TIP3    H156533   5.372   3.543   4.456  0.0386 -0.1042  1.1700
11706TIP3    H256534   5.431   3.465   4.341 -0.4919  0.7992  0.2651
11707TIP3   OH256535   0.116   1.482   3.840 -0.2073 -0.4848  0.0835
11707TIP3    H156536   0.103   1.523   3.754 -0.7278  0.0143  0.3950
11707TIP3    H256537   0.039   1.428   3.853 -0.2243 -0.4041  0.3236
11708TIP3   OH256538   0.770   5.917   0.178 -0.0032  0.2943  0.8133
11708TIP3    H156539   0.701   5.931   0.242  0.2879  0.2468  1.1375
11708TIP3    H256540   0.724   5.910   0.094 -0.3867  0.2937  1.0240
11709TIP3   OH256541   1.911   6.340   6.696 -0.3109 -0.0697  0.0461
11709TIP3    H156542   1.857   6.368   6.622  1.5441  0.6840 -1.0685
11709TIP3    H256543   1.937   6.421   6.739 -1.7928 -0.5098  1.9108
11710TIP3   OH256544   0.192   0.999   1.383 -0.2249  0.1660 -0.7995
11710TIP3    H156545   0.199   1.007   1.478 -0.7833 -0.6421 -0.6768
11710TIP3    H256546   0.214   1.085   1.350 -0.6480  0.6353  0.1027
11711TIP3   OH256547   5.493   2.068   2.462 -0.2716 -0.4790  0.6174
11711TIP3    H156548   5.432   2.098   2.529 -0.1847  1.3070 -0.0765
11711TIP3    H256549   5.573   2.046   2.511 -0.4252  0.1830  1.1793
11712TIP3   OH256550   2.566   5.257   4.573 -0.6736  0.0022 -0.2894
11712TIP3    H156551   2.553   5.303   4.490 -1.2189  0.2752 -0.0606
11712TIP3    H256552   2.543   5.322   4.640 -0.2467 -0.2193  0.0733
11713TIP3   OH256553   3.006   0.169  11.556  0.4205  0.7970 -0.0597
11713TIP3    H156554   3.025   0.253  11.514  0.9441  0.4004 -0.6367
11713TIP3    H256555   2.999   0.107  11.484 -0.8895  0.5010  0.2937
11714TIP3   OH256556   1.990   1.150   4.205 -0.1417 -0.5376  0.3709
11714TIP3    H156557   1.970   1.133   4.113 -1.4141 -0.7642  0.6632
11714TIP3    H256558   2.006   1.244   4.209  0.6004 -0.6331 -0.1860
11715TIP3   OH256559   1.404   4.320  12.357 -0.1020 -0.0359  0.1480
11715TIP3    H156560   1.450   4.399  12.385  0.7507 -1.4494  3.1977
11715TIP3    H256561   1.316   4.350  12.335  0.5043  1.8827  0.1334
11716TIP3   OH256562   4.618   4.894  14.499 -0.2078 -0.0970 -0.0544
11716TIP3    H156563   4.650   4.818  14.547  1.7122 -0.4236 -1.7450
11716TIP3    H256564   4.609   4.864  14.409 -0.3402  1.4394 -0.5891
11717TIP3   OH256565   2.866   5.621   5.186  0.2702 -0.1882  0.1351
11717TIP3    H156566   2.863   5.541   5.239  0.7361  0.3044  0.9176
11717TIP3    H256567   2.829   5.595   5.102  1.3824 -1.5217  0.0167
11718TIP3   OH256568   2.107   3.212   0.372 -0.4388 -0.3227 -0.1215
11718TIP3    H156569   2.188   3.227   0.324 -0.7530 -0.4523 -0.7048
11718TIP3    H256570   2.133   3.161   0.448 -0.1123 -1.2016 -0.8127
11719TIP3   OH256571   5.840   4.180   1.913 -0.4570 -0.0768 -0.5527
11719TIP3    H156572   5.796   4.150   1.833 -0.7058 -0.4510 -0.2799
11719TIP3    H256573   5.806   4.268   1.928  0.0191  0.2261 -1.1728
11720TIP3   OH256574   3.426   2.439   4.321 -0.3701  0.0514 -0.0191
11720TIP3    H156575   3.513   2.468   4.294 -0.7367 -0.6857 -2.1968
11720TIP3    H256576   3.370   2.455   4.245 -2.2181  0.7131  1.4009
11721TIP3   OH256577   5.841   1.341   6.270 -0.4017 -0.7862 -0.2773
11721TIP3    H156578   5.746   1.352   6.266 -0.4748 -1.2837  0.0175
11721TIP3    H256579   5.858   1.311   6.359  0.1688  0.5462  0.0837
11722TIP3   OH256580   4.023   6.399   2.198 -0.3929  0.0162  0.2406
11722TIP3    H156581   3.992   6.340   2.129 -1.8609 -0.3373  1.1389
11722TIP3    H256582   3.952   6.398   2.263  0.1996  1.6478  0.9631
11723TIP3   OH256583   3.769   4.060   2.850  0.2312 -0.1487  0.1533
11723TIP3    H156584   3.741   3.979   2.893  1.5294 -0.5914  0.2133
11723TIP3    H256585   3.772   4.125   2.920  4.3056 -1.3249  1.3595
11724TIP3   OH256586   0.669   5.301   5.382 -0.5713  0.6699  0.4361
11724TIP3    H156587   0.639   5.215   5.351 -0.0960  0.5168  0.3854
11724TIP3    H256588   0.749   5.282   5.431 -0.4929  1.0785  0.4706
11725TIP3   OH256589   0.693   4.836   0.413  0.1038 -0.1596 -0.3442
11725TIP3    H156590   0.740   4.807   0.491  0.3780  0.2933 -0.3403
11725TIP3    H256591   0.720   4.774   0.345 -0.3616 -0.7325 -0.0153
11726TIP3   OH256592   0.933   3.422  13.208  0.2901  0.3722  0.4019
11726TIP3    H156593   0.946   3.433  13.303 -0.3541 -1.3262  0.7297
11726TIP3    H256594   0.898   3.505  13.179  0.3776  0.8882  1.6903
11727TIP3   OH256595   1.106   0.467  15.085  0.6440 -0.0886  0.6920
11727TIP3    H156596   1.098   0.530  15.156  0.4836  0.5752  0.0957
11727TIP3    H256597   1.071   0.386  15.121 -0.3091  0.4767  1.0819
11728TIP3   OH256598   4.102   1.172  11.347 -0.2973  0.5685 -0.2739
11728TIP3    H156599   4.036   1.215  11.292  0.2020  0.2556 -1.1287
11728TIP3    H256600   4.123   1.092  11.301 -0.1086  0.1292  0.5521
11729TIP3   OH256601   5.552   6.140  14.946  0.1896 -0.2806 -0.7377
11729TIP3    H156602   5.509   6.201  15.006  2.3058  0.1195  0.4525
11729TIP3    H256603   5.499   6.145  14.866 -1.6651  0.5179  0.4530
11730TIP3   OH256604   2.025   4.222  11.432  0.1238 -0.0534  1.0086
11730TIP3    H156605   2.006   4.307  11.393 -1.6704 -1.6902 -2.0758
11730TIP3    H256606   1.950   4.167  11.410  1.5300 -2.6679  2.1666
11731TIP3   OH256607   2.866   0.098  14.601  0.6213 -0.5955 -0.6444
11731TIP3    H156608   2.953   0.113  14.636  0.6631 -1.1523 -0.4898
11731TIP3    H256609   2.855   0.163  14.531  1.4416 -0.9917 -1.1530
11732TIP3   OH256610   0.411   2.082   1.219  0.0089 -0.0807  0.0215
11732TIP3    H156611   0.396   2.104   1.127  1.1924  0.7519  0.0045
11732TIP3    H256612   0.419   1.986   1.220 -0.8401 -0.1589 -0.6066
11733TIP3   OH256613   6.250   2.435  16.889 -0.0678  0.0247 -0.1078
11733TIP3    H156614   6.342   2.434  16.865  0.1659  0.2843  0.7692
11733TIP3    H256615   6.214   2.357  16.847  1.1314 -1.6217  1.7406
11734TIP3   OH256616   0.208   4.393  15.755 -0.6271 -0.4122 -0.2806
11734TIP3    H156617   0.189   4.446  15.678  1.8740 -0.6835 -1.1737
11734TIP3    H256618   0.209   4.303  15.722  0.2389 -0.5499  0.1169
11735TIP3   OH256619   2.482   2.074  15.849  0.3845 -0.3662 -0.5390
11735TIP3    H156620   2.392   2.099  15.830 -0.0259 -1.7242 -0.4490
11735TIP3    H256621   2.529   2.157  15.855 -0.0727  0.2879 -4.2109
11736TIP3   OH256622   1.297   0.789  12.012 -0.3196  0.4359 -0.4602
11736TIP3    H156623   1.235   0.839  12.064 -0.2862 -0.6613  0.6955
11736TIP3    H256624   1.245   0.719  11.973 -0.5759  1.8849 -2.9208
11737TIP3   OH256625   6.087   4.913   6.412 -0.1299  0.1222 -0.1557
11737TIP3    H156626   6.071   4.824   6.379  1.6701  0.0011 -0.8766
11737TIP3    H256627   6.150   4.901   6.483 -0.5459  0.7513  0.3227
11738TIP3   OH256628   1.294   4.227   0.200 -0.1219 -0.7139 -0.0799
11738TIP3    H156629   1.315   4.198   0.111 -0.9541 -0.7736 -0.2638
11738TIP3    H256630   1.372   4.204   0.252  0.9009  0.4813 -1.0246
11739TIP3   OH256631   2.915   5.856   0.909 -0.5206 -0.3733 -0.7163
11739TIP3    H156632   2.971   5.801   0.854 -0.0161  0.9278 -1.5548
11739TIP3    H256633   2.974   5.924   0.942 -1.3302  0.2303 -0.4917
11740TIP3   OH256634   5.460   5.876   2.648 -0.4687  0.2049  0.5297
11740TIP3    H156635   5.410   5.795   2.658  0.9931 -0.6485  1.3971
11740TIP3    H256636   5.535   5.865   2.707  0.8960  1.2917 -0.9088
11741TIP3   OH256637   2.819   5.354  17.091  0.2003  0.6355  0.0238
11741TIP3    H156638   2.747   5.304  17.131  0.2901  1.2964  1.0460
11741TIP3    H256639   2.866   5.290  17.038 -0.0285 -0.2525  0.8519
11742TIP3   OH256640   3.889   5.931   4.860  0.7149  0.3019 -0.0618
11742TIP3    H156641   3.912   5.978   4.941  0.0685 -0.0347  0.3256
11742TIP3    H256642   3.801   5.961   4.839 -0.2986 -1.6994  0.9630
11743TIP3   OH256643   0.481   1.717   0.093 -0.6901  0.0470  0.0775
11743TIP3    H156644   0.501   1.624   0.085  0.8727  0.4715 -1.3831
11743TIP3    H256645   0.467   1.731   0.187  0.1623 -1.4386  0.4465
11744TIP3   OH256646   3.043   1.153   5.218 -0.2367  0.1094 -0.4078
11744TIP3    H156647   3.131   1.190   5.211 -0.9344  2.2735  1.0990
11744TIP3    H256648   3.014   1.142   5.128  1.4100 -0.2814 -0.9223
11745TIP3   OH256649   2.300   6.690   0.502 -0.2831  0.3848 -0.2478
11745TIP3    H156650   2.242   6.648   0.565  1.4588 -0.5413  0.8390
11745TIP3    H256651   2.348   6.755   0.554  2.4317 -1.5660 -0.0598
11746TIP3   OH256652   1.167   3.447   1.611 -0.2752  0.0585 -0.3003
11746TIP3    H156653   1.144   3.483   1.697  1.5531  1.1724 -0.2246
11746TIP3    H256654   1.230   3.509   1.575  0.7256 -1.5761 -1.4800
11747TIP3   OH256655   1.713   6.313   6.469  0.6528  0.7268 -0.4728
11747TIP3    H156656   1.772   6.246   6.501  0.7804  0.3032 -1.5566
11747TIP3    H256657   1.625   6.275   6.477  0.5657  1.1046  0.5192
11748TIP3   OH256658   6.194   4.131   4.359 -0.4316  0.0629 -0.6177
11748TIP3    H156659   6.171   4.186   4.434  0.1087 -1.2710  0.5561
11748TIP3    H256660   6.238   4.191   4.299 -2.1657  1.4861 -0.5764
11749TIP3   OH256661   1.307   3.338  11.626  0.2884 -0.1261 -0.1121
11749TIP3    H156662   1.339   3.251  11.651  1.1995  0.1592 -0.2265
11749TIP3    H256663   1.387   3.389  11.611 -0.1755  0.0494 -2.4122
11750TIP3   OH256664   3.289   3.072  11.897  0.3117  0.2651  0.2316
11750TIP3    H156665   3.196   3.076  11.876 -0.0776 -0.0758  1.7384
11750TIP3    H256666   3.332   3.112  11.822 -0.9859 -0.3026 -0.8663
11751TIP3   OH256667   4.311   5.819   2.312  0.2230 -0.0300  0.1979
11751TIP3    H156668   4.346   5.880   2.377  2.4773  0.6484 -1.5464
11751TIP3    H256669   4.272   5.876   2.245  0.3363 -0.5982 -0.3569
11752TIP3   OH256670   5.245   2.103   3.051 -1.0273  0.3225 -0.3337
11752TIP3    H156671   5.283   2.189   3.032 -0.9769  0.1197 -1.2052
11752TIP3    H256672   5.151   2.118   3.045 -1.0440  0.4893  0.3098
11753TIP3   OH256673   6.040   3.104   0.262  0.3859  0.6353  0.2586
11753TIP3    H156674   6.087   3.093   0.345  0.1590 -1.4444  0.1493
11753TIP3    H256675   6.105   3.143   0.204  1.1747  0.2424  0.8479
11754TIP3   OH256676   0.866   4.365   3.097  0.0207 -0.2373  0.1999
11754TIP3    H156677   0.923   4.332   3.167  0.6609  0.6980  0.1303
11754TIP3    H256678   0.778   4.336   3.122  0.3284 -0.4623  1.0539
11755TIP3   OH256679   4.990   1.203   0.509  0.2698  0.2862  0.3738
11755TIP3    H156680   4.996   1.298   0.520  1.0513  0.2868  0.0159
11755TIP3    H256681   5.043   1.167   0.580 -0.1156  0.1053  0.5770
11756TIP3   OH256682   4.263   1.276   0.796 -0.0137 -0.1107  0.3441
11756TIP3    H156683   4.338   1.318   0.838 -0.4137 -0.0996  1.0439
11756TIP3    H256684   4.281   1.182   0.803 -1.0420 -0.1936  2.3641
11757TIP3   OH256685   4.041   5.836   2.720  0.0043  0.6556 -0.0408
11757TIP3    H156686   3.987   5.821   2.797  1.5857  1.6178  1.3366
11757TIP3    H256687   4.015   5.767   2.658 -0.3802 -0.9916  1.8546
11758TIP3   OH256688   3.943   4.976  13.363 -0.6432  0.5042 -0.1035
11758TIP3    H156689   3.887   5.051  13.377  0.0824  1.4492 -1.8787
11758TIP3    H256690   3.886   4.909  13.324 -1.6426 -0.5319  2.8507
11759TIP3   OH256691   3.302   0.770  12.428 -0.1366 -0.0425  0.2927
11759TIP3    H156692   3.392   0.774  12.395  0.3203  1.0718  1.5821
11759TIP3    H256693   3.252   0.822  12.365  0.4159  0.6380  0.3949
11760TIP3   OH256694   3.370   3.258  10.949  0.0661  0.5008  0.5815
11760TIP3    H156695   3.397   3.338  10.995 -3.5323  1.3879  1.4793
11760TIP3    H256696   3.349   3.196  11.019  2.4474 -1.2335 -0.1011
11761TIP3   OH256697   3.412   5.700   4.311 -0.5269  0.1859  0.5049
11761TIP3    H156698   3.371   5.786   4.302 -0.0169  0.6611  2.2715
11761TIP3    H256699   3.339   5.640   4.328 -0.8858  0.2270 -0.7499
11762TIP3   OH256700   1.849   5.546  17.514  0.1529 -0.1475  0.1343
11762TIP3    H156701   1.838   5.575  17.605 -0.2012  1.0621 -0.2710
11762TIP3    H256702   1.870   5.453  17.521 -0.5318 -0.2304  1.4169
11763TIP3   OH256703   1.385   3.899   6.906 -0.5096 -0.3543  0.2192
11763TIP3    H156704   1.388   3.804   6.901  2.1152 -0.2513 -2.5085
11763TIP3    H256705   1.308   3.923   6.854  1.4973 -0.9895 -3.3678
11764TIP3   OH256706   3.467   6.594  11.661 -0.4213  0.5512 -0.1945
11764TIP3    H156707   3.528   6.648  11.612 -0.2457 -0.2848 -0.9324
11764TIP3    H256708   3.429   6.535  11.595  0.4057 -1.1398  0.7765
11765TIP3   OH256709   6.629   0.829  15.555 -0.0945  0.2441  0.1123
11765TIP3    H156710   6.630   0.868  15.467 -1.8622 -1.7632 -0.8953
11765TIP3    H256711   6.721   0.816  15.577  0.4651  2.6226 -0.5360
11766TIP3   OH256712   1.774   3.743   5.005 -0.1930 -0.1348 -0.0512
11766TIP3    H156713   1.854   3.702   4.974  1.2627  2.1525  0.4917
11766TIP3    H256714   1.704   3.685   4.973  1.6601 -2.7622  0.3441
11767TIP3   OH256715   3.626   6.414  12.126 -0.0500 -0.1818 -0.1359
11767TIP3    H156716   3.660   6.395  12.039  0.1282 -0.4036 -0.0184
11767TIP3    H256717   3.576   6.336  12.150 -0.7084  0.1668 -0.3363
11768TIP3   OH256718   1.046   6.692   2.450  0.4957 -0.0774 -0.4855
11768TIP3    H156719   1.049   6.633   2.375  1.1133  0.3772 -0.8249
11768TIP3    H256720   1.041   6.780   2.413  2.1631  0.2443 -0.0508
11769TIP3   OH256721   6.048   4.248  14.288 -0.2936  0.2261 -0.2280
11769TIP3    H156722   6.093   4.179  14.337  2.7316  0.5021 -2.2799
11769TIP3    H256723   6.056   4.325  14.343 -1.1362 -0.4299  0.8392
11770TIP3   OH256724   1.601   2.844   0.274  0.3170  0.6639 -0.1855
11770TIP3    H156725   1.564   2.773   0.327  0.1031 -0.0266 -1.2328
11770TIP3    H256726   1.695   2.840   0.292  0.1056  1.4195  1.2814
11771TIP3   OH256727   5.750   5.113  15.243  0.5681 -0.2764  0.5032
11771TIP3    H156728   5.740   5.029  15.288  0.6739  0.3053  1.6690
11771TIP3    H256729   5.666   5.128  15.201  0.4131 -0.7847  0.6202
11772TIP3   OH256730   5.287   2.936  12.431 -0.1759  0.2743 -0.0229
11772TIP3    H156731   5.272   2.896  12.345  1.2130  0.0468 -0.1851
11772TIP3    H256732   5.209   2.912  12.482  0.4797 -2.5630 -0.1464
11773TIP3   OH256733   3.651   3.443   0.065  0.1471  0.0132 -0.0495
11773TIP3    H156734   3.562   3.458   0.034 -0.7837 -2.1997  1.3544
11773TIP3    H256735   3.666   3.513   0.129 -0.3538  0.7130 -0.6760
11774TIP3   OH256736   4.290   2.721   3.019 -0.9791 -0.2734 -0.3600
11774TIP3    H156737   4.267   2.811   3.041 -1.0833 -0.4875  0.4263
11774TIP3    H256738   4.383   2.725   2.997 -0.8928 -0.0431  0.0430
11775TIP3   OH256739   3.649   4.645   2.368 -0.5026 -0.0846 -0.4059
11775TIP3    H156740   3.697   4.669   2.447  0.8486  0.1328 -1.2727
11775TIP3    H256741   3.576   4.591   2.400  0.5298 -0.7537  0.9061
11776TIP3   OH256742   1.481   1.947   3.689  0.0779  0.3070  0.5081
11776TIP3    H156743   1.499   1.887   3.616  0.4977  0.6661  0.3101
11776TIP3    H256744   1.426   1.897   3.749 -0.9043  0.2693 -0.4146
11777TIP3   OH256745   1.337   0.608   0.801  0.2691  0.0122 -0.3220
11777TIP3    H156746   1.306   0.521   0.827 -0.8502  0.6206  0.4926
11777TIP3    H256747   1.331   0.608   0.705 -0.8862 -0.4087 -0.2700
11778TIP3   OH256748   5.968   6.003   4.220  0.0445  0.0146 -0.4785
11778TIP3    H156749   5.943   6.024   4.310 -3.0892  0.4525 -1.3055
11778TIP3    H256750   5.943   5.911   4.208  1.8671 -0.5153 -0.5220
11779TIP3   OH256751   0.842   2.412   6.722 -0.5427  0.4154 -0.5788
11779TIP3    H156752   0.759   2.460   6.722 -0.8988 -0.1868 -0.3185
11779TIP3    H256753   0.821   2.328   6.764  0.9603  1.5820  2.8750
11780TIP3   OH256754   0.628   1.355   3.863 -0.4959  0.0154 -0.1639
11780TIP3    H156755   0.641   1.289   3.795 -1.2453 -0.8489  0.5277
11780TIP3    H256756   0.557   1.322   3.917  1.1561 -0.1576  2.0657
11781TIP3   OH256757   1.933   3.862   5.226 -0.3348 -0.3944 -0.0911
11781TIP3    H156758   1.883   3.826   5.153 -0.5440 -0.1874 -0.0512
11781TIP3    H256759   2.014   3.811   5.227 -1.4888 -2.3329  1.2797
11782TIP3   OH256760   4.519   0.962  14.165  0.2614 -0.2691 -0.1221
11782TIP3    H156761   4.559   1.044  14.135  0.5390 -1.2691 -2.7367
11782TIP3    H256762   4.486   0.983  14.252  1.8579  2.1052  0.0305
11783TIP3   OH256763   1.324   0.117  11.380  0.0300 -0.6683 -0.9365
11783TIP3    H156764   1.419   0.125  11.391 -0.3507  0.7555  2.9221
11783TIP3    H256765   1.311   0.030  11.342  2.8146 -1.1564 -0.9655
11784TIP3   OH256766   5.622   1.547  17.377  0.0393  0.8469  0.5169
11784TIP3    H156767   5.675   1.499  17.314 -0.8609 -2.8608  2.3169
11784TIP3    H256768   5.661   1.635  17.380  1.0385  0.7823 -3.9194
11785TIP3   OH256769   4.619   2.914   3.476  0.0189  0.6158  0.4594
11785TIP3    H156770   4.661   3.000   3.477  0.3512  0.4719  2.1173
11785TIP3    H256771   4.567   2.912   3.556  0.8388 -1.1101  0.9959
11786TIP3   OH256772   4.811   0.573   6.222 -0.0758 -0.2800 -0.7129
11786TIP3    H156773   4.768   0.521   6.155  1.7573 -1.5946 -0.9147
11786TIP3    H256774   4.816   0.661   6.185 -0.0223 -0.7518 -1.8409
11787TIP3   OH256775   1.949   1.038  12.046  0.3941 -0.2468 -0.6853
11787TIP3    H156776   2.016   1.101  12.021  0.2109 -0.3748 -1.5139
11787TIP3    H256777   1.907   1.013  11.964 -0.8328  0.0140 -0.1601
11788TIP3   OH256778   1.252   6.283  15.872  0.0155 -0.4432 -0.3809
11788TIP3    H156779   1.310   6.207  15.877 -1.1144 -1.2667  0.8802
11788TIP3    H256780   1.296   6.350  15.925 -0.0608 -0.9875  0.3810
11789TIP3   OH256781   1.310   3.306   5.195 -0.4378  0.5898 -0.3458
11789TIP3    H156782   1.383   3.305   5.257 -0.8108 -1.4622  0.1284
11789TIP3    H256783   1.336   3.369   5.128  1.0333  1.0890  0.6454
11790TIP3   OH256784   3.027   5.435  12.146 -1.2987 -0.3610 -0.0898
11790TIP3    H156785   3.029   5.366  12.079 -1.3440 -1.1508  0.7087
11790TIP3    H256786   2.935   5.444  12.168 -1.2879 -0.0670 -0.1613
11791TIP3   OH256787   6.300   5.584   1.751 -0.0925 -0.1560  0.4372
11791TIP3    H156788   6.392   5.558   1.744  0.0709  0.1937  1.2167
11791TIP3    H256789   6.300   5.676   1.721 -0.5879 -0.8257 -1.8523
11792TIP3   OH256790   5.562   6.325   6.663  0.1705  0.9191  0.5971
11792TIP3    H156791   5.628   6.270   6.620 -1.3424  1.2126 -2.3717
11792TIP3    H256792   5.594   6.414   6.651 -0.2891  1.0060 -0.0188
11793TIP3   OH256793   1.132   4.364   3.871  0.2006 -0.0441 -0.1236
11793TIP3    H156794   1.124   4.447   3.918 -2.8974 -0.2954 -0.0234
11793TIP3    H256795   1.094   4.381   3.785 -0.4360 -1.3379 -0.1235
11794TIP3   OH256796   0.354   2.000  13.097  0.0129 -0.2968 -0.2558
11794TIP3    H156797   0.431   2.051  13.075 -0.5096 -0.0001 -1.4828
11794TIP3    H256798   0.288   2.028  13.034 -0.6361 -1.6382 -0.2082
11795TIP3   OH256799   0.292   0.518   3.233 -0.0950 -0.3766 -0.5290
11795TIP3    H156800   0.321   0.602   3.270 -1.6850  0.8355 -1.8925
11795TIP3    H256801   0.373   0.468   3.221  1.1298  1.7035 -1.4242
11796TIP3   OH256802   0.808   4.544  10.816  0.1193  0.2621 -0.3681
11796TIP3    H156803   0.898   4.526  10.791  0.4724  0.6368  0.6089
11796TIP3    H256804   0.813   4.623  10.870 -0.6973 -0.2021  0.4059
11797TIP3   OH256805   3.088   6.059   5.199  0.2669  0.8285  0.8476
11797TIP3    H156806   3.013   6.025   5.249 -0.4931  1.4709  0.1841
11797TIP3    H256807   3.107   6.144   5.241 -0.6160  1.5457 -0.1444
11798TIP3   OH256808   3.227   0.569   5.911 -0.2231 -0.1830 -0.3196
11798TIP3    H156809   3.239   0.584   6.005  0.1471  1.7256 -0.6375
11798TIP3    H256810   3.201   0.654   5.876  0.5867 -0.6275 -2.1122
11799TIP3   OH256811   3.134   5.220  12.561 -0.2651  0.2653 -0.5963
11799TIP3    H156812   3.210   5.238  12.505  0.9756  2.1571  1.5285
11799TIP3    H256813   3.105   5.133  12.534  1.8196  0.0258 -2.3916
11800TIP3   OH256814   3.773   1.258   2.322 -0.1665 -0.1939  0.5374
11800TIP3    H156815   3.717   1.190   2.284 -1.5306  1.2894 -0.2068
11800TIP3    H256816   3.752   1.337   2.272  2.4514  0.4895  0.3776
11801TIP3   OH256817   1.444   2.429  17.410  0.2765 -0.2016 -0.6163
11801TIP3    H156818   1.488   2.461  17.488  0.1701 -0.0153 -0.6330
11801TIP3    H256819   1.465   2.335  17.407  1.1441 -0.0091 -0.9320
11802TIP3   OH256820   0.800   3.618  13.057 -0.3598  0.2004 -0.4086
11802TIP3    H156821   0.778   3.528  13.032  2.3703 -1.2727  2.0117
11802TIP3    H256822   0.880   3.637  13.008  0.5121  0.3038  1.0270
11803TIP3   OH256823   2.844   0.221  12.895 -0.3715 -0.0839  0.1525
11803TIP3    H156824   2.900   0.183  12.828 -1.1915  0.2415 -0.7550
11803TIP3    H256825   2.795   0.147  12.931 -0.8036 -0.1165 -0.4802
11804TIP3   OH256826   4.585   0.258   1.852  0.3361  0.2447 -0.1740
11804TIP3    H156827   4.606   0.341   1.895 -0.5644  0.2045  0.3468
11804TIP3    H256828   4.662   0.203   1.867 -1.0875 -0.9002  4.1901
11805TIP3   OH256829   0.041   1.131   0.383  0.3088 -0.0550  0.3954
11805TIP3    H156830   0.125   1.100   0.348  0.1040  1.0004 -1.1673
11805TIP3    H256831   0.037   1.223   0.355 -0.6081  0.4068  1.9355
11806TIP3   OH256832   5.810   6.467  11.238  0.1514 -0.0190  0.1773
11806TIP3    H156833   5.870   6.542  11.238  0.1325  0.0215  1.8348
11806TIP3    H256834   5.724   6.505  11.222  0.0314  0.4488  1.7594
11807TIP3   OH256835   2.051   6.417   6.200  0.7431  0.2212 -0.2349
11807TIP3    H156836   2.125   6.420   6.261  0.5074 -0.4099  0.0961
11807TIP3    H256837   1.983   6.469   6.243 -0.3431 -2.2972  1.3517
11808TIP3   OH256838   0.404   1.193  14.700  0.2713  0.4089 -0.4462
11808TIP3    H156839   0.397   1.260  14.632  0.6521  1.7691  0.8306
11808TIP3    H256840   0.396   1.240  14.782 -1.6875 -1.3929  0.4795
11809TIP3   OH256841   1.087   6.561   5.767 -0.1997 -0.1325 -0.2226
11809TIP3    H156842   1.115   6.510   5.691 -1.3962 -1.4615  0.1774
11809TIP3    H256843   1.014   6.613   5.736  0.4000  0.6405 -0.3823
11810TIP3   OH256844   6.299   4.781  15.081 -0.0357 -0.2222 -0.1024
11810TIP3    H156845   6.309   4.807  14.989  0.0802 -1.2317 -0.3820
11810TIP3    H256846   6.217   4.823  15.109  0.1612  0.4656 -0.5228
11811TIP3   OH256847   3.236   5.316   3.730 -0.1654  0.4136  0.4946
11811TIP3    H156848   3.228   5.256   3.804  0.4162  0.8479  0.9153
11811TIP3    H256849   3.243   5.402   3.770 -1.5485  0.8355 -0.1168
11812TIP3   OH256850   1.724   5.022   1.692  0.2263  0.1076  0.3544
11812TIP3    H156851   1.672   4.998   1.615  1.0240  0.3800 -0.2784
11812TIP3    H256852   1.742   4.940   1.736 -0.1947 -0.0576  0.2225
11813TIP3   OH256853   2.692   2.140   4.474 -0.0191  0.3336 -0.2967
11813TIP3    H156854   2.606   2.175   4.449 -0.6556 -1.8369 -1.3624
11813TIP3    H256855   2.675   2.049   4.497  2.0163 -0.1814 -0.6426
11814TIP3   OH256856   1.275   2.938  15.932 -0.0134 -0.3101 -0.1847
11814TIP3    H156857   1.273   2.983  15.848  1.2126 -1.4095 -0.8427
11814TIP3    H256858   1.242   2.850  15.913 -0.8221 -0.2221  0.7388
11815TIP3   OH256859   4.382   6.437   0.775 -0.3488 -0.3246 -0.2159
11815TIP3    H156860   4.407   6.367   0.835  2.0670  0.3300 -0.3604
11815TIP3    H256861   4.377   6.395   0.689 -2.5467 -0.9963  0.1736
11816TIP3   OH256862   2.763   1.399   5.117 -0.5858  0.4901  0.2571
11816TIP3    H156863   2.703   1.332   5.085  0.4643 -0.6398  0.5576
11816TIP3    H256864   2.786   1.449   5.038  1.0645 -1.5335 -0.6599
11817TIP3   OH256865   2.241   5.755  15.491 -0.1144 -0.4189  0.2152
11817TIP3    H156866   2.229   5.721  15.402  2.2845 -0.5868 -0.1161
11817TIP3    H256867   2.268   5.846  15.478  0.9168 -0.6368  0.7087
11818TIP3   OH256868   0.805   4.674  16.968 -0.5413  0.4358 -1.2361
11818TIP3    H156869   0.827   4.687  17.060  1.0858 -1.8026 -1.2237
11818TIP3    H256870   0.890   4.664  16.924 -1.3291 -0.7118 -2.5951
11819TIP3   OH256871   0.942   2.643  17.420 -0.5234  0.2198  0.0120
11819TIP3    H156872   1.021   2.611  17.464  0.0629  0.1764 -1.0560
11819TIP3    H256873   0.877   2.574  17.435 -0.2130  0.0165  0.4578
11820TIP3   OH256874   2.275   1.131   5.025 -0.0612 -0.1870  0.0152
11820TIP3    H156875   2.304   1.079   4.950 -0.4149 -0.7628  0.2716
11820TIP3    H256876   2.299   1.079   5.101  0.8184  0.6570  0.3372
11821TIP3   OH256877   2.897   0.558  14.079  0.3413  0.0351 -0.1202
11821TIP3    H156878   2.972   0.551  14.138  0.8450 -1.3500 -0.8706
11821TIP3    H256879   2.878   0.468  14.054 -0.9129  0.4595 -0.7774
11822TIP3   OH256880   0.938   1.303   5.097  0.7675 -0.3522  0.6627
11822TIP3    H156881   0.849   1.314   5.063  1.4456 -2.2123 -2.0474
11822TIP3    H256882   0.926   1.272   5.187 -1.2648  0.1841  0.6314
11823TIP3   OH256883   1.197   5.286  14.339  0.1673  0.4739  0.1995
11823TIP3    H156884   1.265   5.227  14.306 -1.7875 -1.1490 -1.1782
11823TIP3    H256885   1.195   5.358  14.277  0.0053  0.0463 -0.2955
11824TIP3   OH256886   1.392   0.833  11.636 -0.2616 -0.0570  0.0811
11824TIP3    H156887   1.463   0.803  11.693 -0.3290 -1.0337 -0.3278
11824TIP3    H256888   1.315   0.836  11.692 -0.3987 -1.3241 -0.0077
11825TIP3   OH256889   2.487   4.873  15.722  0.5616 -0.0704 -0.1263
11825TIP3    H156890   2.559   4.935  15.735  0.7613 -0.1518 -0.7941
11825TIP3    H256891   2.444   4.903  15.642 -0.3979  0.2124  0.4807
11826TIP3   OH256892   4.468   4.722   5.765 -0.2710 -0.5520 -0.1426
11826TIP3    H156893   4.511   4.647   5.805 -0.1762 -1.0065 -1.0770
11826TIP3    H256894   4.492   4.717   5.673  0.0956  0.8817 -0.1458
11827TIP3   OH256895   5.719   0.486  11.423 -0.0761 -0.6597  0.1227
11827TIP3    H156896   5.659   0.557  11.402  0.4796 -0.6511 -1.6407
11827TIP3    H256897   5.806   0.523  11.410  0.2727 -1.2236  0.7391
11828TIP3   OH256898   1.193   6.014   7.008 -0.3908  0.3437  0.1331
11828TIP3    H156899   1.260   6.064   7.055 -0.5754  1.7662 -1.0370
11828TIP3    H256900   1.114   6.022   7.061  0.0647 -0.3965  0.9466
11829TIP3   OH256901   1.253   5.759  16.002 -0.4907 -0.5241  0.4978
11829TIP3    H156902   1.234   5.780  15.911  0.4029 -0.1899  0.3858
11829TIP3    H256903   1.272   5.665  16.002  0.8723 -0.2694  0.0992
11830TIP3   OH256904   3.341   4.529   0.287  0.2348 -0.3285 -0.3618
11830TIP3    H156905   3.310   4.442   0.263 -2.1249  0.4857 -0.5587
11830TIP3    H256906   3.261   4.578   0.309  1.6992  0.7955  3.2399
11831TIP3   OH256907   3.449   4.826   1.497 -0.6919  1.1685  0.6643
11831TIP3    H156908   3.518   4.792   1.555 -1.2159 -0.5521  0.3386
11831TIP3    H256909   3.414   4.748   1.454 -0.6311  2.3410 -1.6542
11832TIP3   OH256910   3.059   5.096  15.688  0.2422 -0.0978  0.0503
11832TIP3    H156911   3.114   5.157  15.640 -0.1694 -1.1965 -1.9254
11832TIP3    H256912   2.974   5.099  15.643 -0.8001  0.2461  1.9323
11833TIP3   OH256913   6.614   2.617   3.064 -0.0276 -0.0455 -0.5143
11833TIP3    H156914   6.591   2.627   3.157  1.2347 -0.7982 -0.0990
11833TIP3    H256915   6.658   2.699   3.041  0.0395 -0.0262 -0.3206
11834TIP3   OH256916   5.162   1.209  11.644  0.2471  0.2493 -0.2052
11834TIP3    H156917   5.146   1.242  11.555  1.1251 -0.5301 -0.6675
11834TIP3    H256918   5.075   1.206  11.684  0.0734  2.7190 -0.2455
11835TIP3   OH256919   2.126   0.605  13.717  0.3005 -0.7877 -0.0633
11835TIP3    H156920   2.215   0.634  13.739  0.2489 -0.7503  0.0930
11835TIP3    H256921   2.139   0.534  13.655  0.4203  0.0582 -1.0439
11836TIP3   OH256922   1.872   3.074   0.512  0.5312 -0.6166  0.5189
11836TIP3    H156923   1.810   3.133   0.556  1.2058  1.9141 -1.6652
11836TIP3    H256924   1.958   3.110   0.533  0.9404 -0.4444 -1.2733
11837TIP3   OH256925   6.057   4.023  16.102 -0.3348  0.1491 -0.6274
11837TIP3    H156926   6.070   4.108  16.060  0.1027  0.3622 -0.0851
11837TIP3    H256927   5.972   4.030  16.146 -0.0162  0.5465 -0.0519
11838TIP3   OH256928   5.449   4.449  17.491 -0.4722  0.2319 -0.4038
11838TIP3    H156929   5.513   4.520  17.487 -0.8953  0.7544  1.3217
11838TIP3    H256930   5.385   4.478  17.556 -1.2350 -1.2755 -0.4427
11839TIP3   OH256931   6.202   5.159   1.246  0.2767  0.5574 -0.2363
11839TIP3    H156932   6.127   5.100   1.233  0.2921  0.9007 -2.0656
11839TIP3    H256933   6.172   5.243   1.213  1.2182  0.8895 -0.2691
11840TIP3   OH256934   2.413   5.837   6.208  0.1693 -0.5036 -0.6678
11840TIP3    H156935   2.377   5.827   6.296  0.4035 -2.0128 -0.7293
11840TIP3    H256936   2.444   5.928   6.205 -3.2158  0.8163 -0.4975
11841TIP3   OH256937   3.162   3.226  13.570 -0.7059 -0.1478 -0.1229
11841TIP3    H156938   3.095   3.259  13.629 -1.2242 -1.9498  0.3714
11841TIP3    H256939   3.124   3.147  13.533 -0.4101  0.9342 -2.9442
11842TIP3   OH256940   6.328   3.173   1.441 -0.1262 -0.2999  0.3291
11842TIP3    H156941   6.304   3.191   1.532 -1.4711  0.5546 -0.1640
11842TIP3    H256942   6.265   3.222   1.389  1.5561  0.4917 -1.0906
11843TIP3   OH256943   3.651   5.959  14.761  0.2787  0.5666  0.0532
11843TIP3    H156944   3.600   6.033  14.726 -0.0806  0.7546  0.9622
11843TIP3    H256945   3.728   6.000  14.801  0.8082  0.3301 -0.6937
11844TIP3   OH256946   2.583   4.929   3.693 -0.1101  0.3642  0.7328
11844TIP3    H156947   2.663   4.980   3.685  0.6965 -0.6668  1.9046
11844TIP3    H256948   2.556   4.941   3.784  1.3190 -2.9406  1.7373
11845TIP3   OH256949   4.867   1.162  13.871 -0.0749 -0.2333  0.0791
11845TIP3    H156950   4.891   1.131  13.783 -0.4269  0.5572 -0.3029
11845TIP3    H256951   4.950   1.166  13.918  0.2253  0.0953 -0.4659
11846TIP3   OH256952   4.953   3.582   2.162  0.6834 -0.5120 -0.0446
11846TIP3    H156953   4.874   3.528   2.170  0.4917  0.0491  3.0283
11846TIP3    H256954   5.025   3.522   2.180  0.9858 -0.8988 -2.2926
11847TIP3   OH256955   2.457   2.975  13.508  0.1626  0.2568  0.2399
11847TIP3    H156956   2.503   3.009  13.585 -1.6866  1.4047  0.8788
11847TIP3    H256957   2.493   3.025  13.435  1.1333 -0.0669  0.4736
11848TIP3   OH256958   1.420   6.168  12.538  0.7410  0.1391 -0.2541
11848TIP3    H156959   1.516   6.166  12.533  0.7977 -1.8588  0.6624
11848TIP3    H256960   1.400   6.160  12.631 -0.2560 -2.5940 -0.5930
11849TIP3   OH256961   0.028   0.371   3.396 -0.1888 -0.2801 -0.0142
11849TIP3    H156962   0.103   0.315   3.377 -0.0651 -0.8578  1.9227
11849TIP3    H256963   0.064   0.440   3.451 -1.1484 -0.9867  1.5849
11850TIP3   OH256964   3.375   0.231   0.952  0.2873 -0.6060 -0.1257
11850TIP3    H156965   3.467   0.209   0.966  0.7339  0.4983 -1.0816
11850TIP3    H256966   3.342   0.254   1.039  1.1389 -0.2599  0.1229
11851TIP3   OH256967   3.406   5.439  17.126  0.0406 -0.4514 -0.6241
11851TIP3    H156968   3.374   5.420  17.215  0.2246 -0.2954 -0.5235
11851TIP3    H256969   3.500   5.452  17.137  0.3624 -2.1430 -1.1037
11852TIP3   OH256970   2.660   6.579   2.196  0.3133 -0.2643 -0.2205
11852TIP3    H156971   2.753   6.566   2.178  0.2004  0.5105 -1.4796
11852TIP3    H256972   2.637   6.657   2.146 -1.3093 -1.1706 -0.9764
11853TIP3   OH256973   0.004   4.377   3.506 -0.1272  0.0259  0.3051
11853TIP3    H156974  -0.010   4.342   3.418  1.4243 -2.6540  1.0215
11853TIP3    H256975   0.067   4.448   3.493 -2.1843  1.7560 -1.0038
11854TIP3   OH256976   5.456   2.620  14.434 -0.4854 -0.1028  0.6066
11854TIP3    H156977   5.532   2.661  14.474  0.3543 -2.2564  1.3501
11854TIP3    H256978   5.384   2.639  14.494  0.1719 -0.8580  1.6675
11855TIP3   OH256979   1.772   4.531   6.150 -0.0918  0.7256 -0.8400
11855TIP3    H156980   1.857   4.487   6.156 -0.4342  0.1785  0.2936
11855TIP3    H256981   1.779   4.604   6.212 -0.3297  0.9132 -1.0306
11856TIP3   OH256982   0.720   0.817   6.844  0.7328 -0.5436  0.1168
11856TIP3    H156983   0.795   0.828   6.903  0.7959 -2.6406  0.5058
11856TIP3    H256984   0.648   0.861   6.889  1.5557  0.9080  0.0661
11857TIP3   OH256985   5.112   2.429   5.947 -0.0070  0.2790  0.2264
11857TIP3    H156986   5.106   2.519   5.915 -1.5141  0.0328 -0.2780
11857TIP3    H256987   5.033   2.417   6.000  1.0231 -0.2345  1.6906
11858TIP3   OH256988   1.037   5.064  15.315 -0.3575  0.1914 -0.0902
11858TIP3    H156989   0.958   5.036  15.362  1.1491 -2.1239  1.2547
11858TIP3    H256990   1.040   5.007  15.238  0.8666 -1.0304  0.8052
11859TIP3   OH256991   0.858   0.528  16.028 -0.0680 -0.4496 -0.7650
11859TIP3    H156992   0.791   0.461  16.011  0.4882 -0.8506 -1.3929
11859TIP3    H256993   0.931   0.505  15.971 -0.0587  1.0041 -1.3836
11860TIP3   OH256994   5.748   0.465   5.664  0.1800 -0.3967  0.1515
11860TIP3    H156995   5.784   0.548   5.697  0.2409 -0.5861  0.5651
11860TIP3    H256996   5.679   0.443   5.727  0.8726 -1.2048  0.6434
11861TIP3   OH256997   6.447   0.599  13.571 -0.6815  0.5746 -0.3899
11861TIP3    H156998   6.508   0.569  13.503 -1.6706  1.7351 -1.8646
11861TIP3    H256999   6.462   0.540  13.644  1.3943  0.1096 -1.1103
11862TIP3   OH257000   2.221   6.393   3.821 -0.6435 -0.2504  0.1963
11862TIP3    H157001   2.304   6.440   3.813 -1.0747  0.3645 -0.9483
11862TIP3    H257002   2.179   6.431   3.898 -0.3265  0.1792  0.1607
11863TIP3   OH257003   5.755   1.103  13.283  0.4225 -0.3200  0.1518
11863TIP3    H157004   5.731   1.139  13.198  0.2726 -1.1019 -0.1489
11863TIP3    H257005   5.674   1.061  13.314  0.0981  1.0826  1.2791
11864TIP3   OH257006   1.154   2.826   1.639  1.2361  0.0288  0.2741
11864TIP3    H157007   1.064   2.851   1.619  1.9450  0.9646 -2.1797
11864TIP3    H257008   1.200   2.910   1.647  2.5679 -0.3063 -2.4473
11865TIP3   OH257009   1.626   5.292   2.888 -0.3541  0.3861 -0.4122
11865TIP3    H157010   1.666   5.363   2.837 -0.4256  0.3959 -0.4556
11865TIP3    H257011   1.699   5.253   2.935  0.0310 -0.7544 -1.8763
11866TIP3   OH257012   2.875   2.085   3.263  0.5363 -0.4817  0.1138
11866TIP3    H157013   2.852   2.173   3.236 -0.3436 -1.0062 -0.9471
11866TIP3    H257014   2.960   2.069   3.222  0.4077 -0.3378 -0.2121
11867TIP3   OH257015   4.000   4.644  16.973 -0.2595  0.2148 -0.2276
11867TIP3    H157016   4.046   4.642  16.889  1.6647  0.8390  0.7486
11867TIP3    H257017   4.008   4.735  17.003 -1.1894  0.0757  0.5003
11868TIP3   OH257018   0.040   3.773  17.222  0.3161 -0.2742  0.2185
11868TIP3    H157019   0.077   3.685  17.213  1.5248  0.2631 -0.3533
11868TIP3    H257020   0.027   3.803  17.132  2.2493  1.0374  0.3118
11869TIP3   OH257021   1.423   3.739   6.446 -1.1018  0.5390 -0.3118
11869TIP3    H157022   1.503   3.749   6.498 -1.5290 -2.6781  1.1870
11869TIP3    H257023   1.354   3.778   6.500 -1.0930 -0.0878  0.1588
11870TIP3   OH257024   4.656   1.808   6.044 -0.1263 -0.2193 -0.4538
11870TIP3    H157025   4.743   1.791   6.006 -0.8391 -0.3607 -2.1132
11870TIP3    H257026   4.668   1.886   6.098  0.9984 -0.1622 -0.7622
11871TIP3   OH257027   0.189   4.604   1.106  0.3741  0.2648  0.0863
11871TIP3    H157028   0.227   4.535   1.160 -0.0179  0.3832  0.5196
11871TIP3    H257029   0.108   4.566   1.071 -0.1352  0.6806  0.7783
11872TIP3   OH257030   4.959   2.358   1.310  0.1793 -0.2377 -0.3296
11872TIP3    H157031   5.039   2.372   1.359  0.2236 -1.2760 -0.0773
11872TIP3    H257032   4.935   2.267   1.328 -1.2170  0.1384 -0.1630
11873TIP3   OH257033   0.984   6.010   2.457  0.1105  0.2089 -0.1459
11873TIP3    H157034   0.996   6.102   2.432 -2.5015  0.8330  0.5471
11873TIP3    H257035   1.063   5.988   2.506 -0.4454  3.1759  2.4700
11874TIP3   OH257036   3.947   0.296  11.722 -0.8150  0.2989  0.4086
11874TIP3    H157037   3.899   0.221  11.756 -0.4430 -0.3543 -0.4551
11874TIP3    H257038   3.959   0.276  11.629  1.3579  0.2671  0.6352
11875TIP3   OH257039   5.083   1.210  14.032  0.8952 -0.0091 -0.3938
11875TIP3    H157040   5.141   1.258  13.974  0.8257  0.5771  0.0157
11875TIP3    H257041   5.132   1.201  14.114  0.3102  0.7275  0.0478
11876TIP3   OH257042   5.987   5.207  12.560 -0.4244 -0.0423  0.0215
11876TIP3    H157043   5.936   5.260  12.500 -0.5880  0.5822  0.6930
11876TIP3    H257044   6.068   5.256  12.574 -0.7087  0.2142  0.8884
11877TIP3   OH257045   0.075   5.151   0.489 -0.0436 -0.4270  0.1914
11877TIP3    H157046   0.056   5.244   0.478 -1.8302 -0.7108  0.6210
11877TIP3    H257047  -0.010   5.108   0.486  0.8353 -2.2370 -1.5504
11878TIP3   OH257048   6.294   2.218   3.024  0.5238 -0.5049 -0.5496
11878TIP3    H157049   6.222   2.230   2.963  0.1555  1.5281  0.1880
11878TIP3    H257050   6.312   2.307   3.057  2.5349 -1.1390  0.2067
11879TIP3   OH257051   2.053   4.332   5.097 -0.2390  0.2187 -0.1150
11879TIP3    H157052   2.037   4.301   5.186  1.2855 -0.6477 -0.1179
11879TIP3    H257053   2.020   4.422   5.097  0.0090  0.3343  1.4221
11880TIP3   OH257054   4.775   2.816  15.275  0.1552  0.0750  0.5238
11880TIP3    H157055   4.698   2.862  15.244  1.1896  1.3951 -0.1860
11880TIP3    H257056   4.780   2.737  15.220  1.6899  2.1227 -2.5849
11881TIP3   OH257057   4.481   6.078  12.667  0.4221 -0.1902  0.8124
11881TIP3    H157058   4.525   6.153  12.627  0.1492 -0.2794  0.3339
11881TIP3    H257059   4.433   6.115  12.741 -1.2123  0.4295 -0.5041
11882TIP3   OH257060   0.659   4.913  17.247  0.4206  0.0676  0.1214
11882TIP3    H157061   0.753   4.921  17.259  0.3629  0.6684  0.2011
11882TIP3    H257062   0.636   4.987  17.190  0.1866 -0.7947 -0.9491
11883TIP3   OH257063   2.200   5.980  17.076 -0.6471 -0.2090 -0.2472
11883TIP3    H157064   2.269   6.040  17.104 -0.6781 -0.3001  0.0294
11883TIP3    H257065   2.247   5.905  17.040 -0.5222 -1.1723  1.7432
11884TIP3   OH257066   2.677   6.385   6.331  0.6372 -0.0080 -0.0171
11884TIP3    H157067   2.587   6.362   6.308  0.7240 -0.2755 -0.0913
11884TIP3    H257068   2.706   6.316   6.390  0.3605  0.7628  1.0638
11885TIP3   OH257069   5.010   3.448   5.098 -0.6274  0.0056 -0.1035
11885TIP3    H157070   5.080   3.439   5.163  0.0112  0.0344 -0.7717
11885TIP3    H257071   5.055   3.477   5.019 -1.4732  0.5326 -0.4038
11886TIP3   OH257072   6.189   2.253  13.615 -0.5102 -0.4812  0.0982
11886TIP3    H157073   6.236   2.170  13.616  2.8199  1.2306 -0.0814
11886TIP3    H257074   6.258   2.320  13.622 -3.1321  2.2560  2.5508
11887TIP3   OH257075   6.312   5.444  13.679  0.0603  0.3922 -0.1694
11887TIP3    H157076   6.353   5.477  13.599 -2.4080  1.1523 -1.2067
11887TIP3    H257077   6.222   5.425  13.654 -0.4269 -0.6616  2.1331
11888TIP3   OH257078   5.638   4.733  12.503 -0.1435  0.4225 -0.2744
11888TIP3    H157079   5.638   4.810  12.446 -0.5642  1.1970  0.7323
11888TIP3    H257080   5.726   4.733  12.541 -0.4526  0.9963  0.4683
11889TIP3   OH257081   6.364   6.493  17.130 -0.0771 -0.0991 -0.3511
11889TIP3    H157082   6.378   6.422  17.193  0.1558 -0.7544 -1.1257
11889TIP3    H257083   6.351   6.448  17.046 -1.3258  0.7214 -0.6228
11890TIP3   OH257084   1.857   6.602  17.593 -0.2187 -0.5372  0.0072
11890TIP3    H157085   1.780   6.642  17.553 -1.9110 -2.8745  0.7084
11890TIP3    H257086   1.890   6.541  17.526  1.0272  0.3609 -0.2480
11891TIP3   OH257087   0.751   1.838  12.308 -0.2263 -0.4769 -0.0616
11891TIP3    H157088   0.745   1.929  12.338 -1.1166  0.4261 -2.6849
11891TIP3    H257089   0.820   1.839  12.241  1.9856 -2.4758  2.0102
11892TIP3   OH257090   4.871   2.907  11.209  0.1502 -1.1790  0.7645
11892TIP3    H157091   4.954   2.929  11.167  0.0874  0.4992  1.4411
11892TIP3    H257092   4.893   2.897  11.301 -0.3562 -0.8856  0.9205
11893TIP3   OH257093   4.876   4.942  17.343  0.1079  0.1810  0.0632
11893TIP3    H157094   4.879   4.870  17.405 -2.5421  1.0316  1.3481
11893TIP3    H257095   4.885   5.021  17.397 -4.8232  1.0867  0.0515
11894TIP3   OH257096   1.658   5.217  12.741  0.0842 -0.4272 -0.4474
11894TIP3    H157097   1.691   5.149  12.681  0.3345 -0.6609 -0.0479
11894TIP3    H257098   1.596   5.266  12.688  0.4925 -0.4699 -0.9863
11895TIP3   OH257099   1.841   1.766   4.143 -0.2406 -0.1414 -0.2241
11895TIP3    H157100   1.867   1.740   4.054 -0.2786 -1.7308  0.1880
11895TIP3    H257101   1.923   1.761   4.193  0.0173  1.8975 -0.3816
11896TIP3   OH257102   5.894   3.074  13.204 -0.4625  0.4193  0.4583
11896TIP3    H157103   5.824   3.071  13.139  1.1979 -0.3613 -1.3846
11896TIP3    H257104   5.969   3.111  13.157  1.3344 -1.9012  1.3500
11897TIP3   OH257105   3.723   0.179  13.463 -0.3633  0.4503 -0.0627
11897TIP3    H157106   3.640   0.228  13.469 -0.9331 -0.7010  2.4270
11897TIP3    H257107   3.780   0.222  13.526  0.5300  0.4314 -0.8454
11898TIP3   OH257108   2.113   2.516   1.049 -0.1194 -0.3884  0.0060
11898TIP3    H157109   2.129   2.467   1.130  0.4254  0.4371  0.4138
11898TIP3    H257110   2.139   2.455   0.979 -2.7090 -1.9552  0.2798
11899TIP3   OH257111   2.852   4.682   0.138  0.2359  0.0339 -0.0735
11899TIP3    H157112   2.767   4.718   0.163 -1.1185 -1.5076 -2.1862
11899TIP3    H257113   2.888   4.747   0.077  0.0770  0.1582 -0.0360
11900TIP3   OH257114   3.867   0.938   2.619 -0.3150 -0.4538  0.6370
11900TIP3    H157115   3.937   0.982   2.668 -0.2593 -1.2695  1.3144
11900TIP3    H257116   3.818   1.009   2.578 -0.1206  0.2318  1.5582
11901TIP3   OH257117   1.351   6.510  16.001 -0.8577 -0.0705 -0.4230
11901TIP3    H157118   1.424   6.461  16.041 -0.9288 -0.9294 -1.3135
11901TIP3    H257119   1.382   6.600  15.998  0.6968 -0.6064 -1.9152
11902TIP3   OH257120   2.057   2.693  15.583 -0.3111 -0.2536  0.4842
11902TIP3    H157121   2.043   2.712  15.676  0.6298 -0.7100  0.7282
11902TIP3    H257122   2.066   2.779  15.542  2.2746 -0.0396  1.3178
11903TIP3   OH257123   0.785   3.597   0.732 -0.4281 -0.0096 -0.0551
11903TIP3    H157124   0.823   3.531   0.673  1.2583 -0.6906  1.6716
11903TIP3    H257125   0.700   3.561   0.757 -0.2104 -0.7639 -0.3791
11904TIP3   OH257126   6.280   4.571   4.515 -0.2520  0.2358 -0.4563
11904TIP3    H157127   6.262   4.629   4.588  1.4215 -1.5436  1.4937
11904TIP3    H257128   6.217   4.500   4.524 -0.6582  0.4582 -1.3573
11905TIP3   OH257129   1.778   1.328  16.028  0.3393 -0.3947 -0.4748
11905TIP3    H157130   1.805   1.417  16.049  0.2273 -0.8938  2.1333
11905TIP3    H257131   1.849   1.273  16.059 -0.7123 -1.3433  0.3461
11906TIP3   OH257132   1.135   5.301   3.778  0.0095  0.1916  0.6743
11906TIP3    H157133   1.066   5.321   3.714 -0.0243  1.6851  1.1254
11906TIP3    H257134   1.174   5.220   3.747  0.3888  1.1576 -1.6145
11907TIP3   OH257135   4.898   3.744  14.699 -0.0525 -0.2251 -0.2066
11907TIP3    H157136   4.825   3.702  14.745  0.6373 -0.2606  0.8962
11907TIP3    H257137   4.914   3.689  14.623 -0.9275 -0.4269 -0.2465
11908TIP3   OH257138   3.463   3.609  16.364  0.0789  0.0062  0.2052
11908TIP3    H157139   3.513   3.535  16.329 -1.4670  0.3661 -3.2087
11908TIP3    H257140   3.413   3.572  16.437 -0.2857 -2.2551 -1.0877
11909TIP3   OH257141   5.769   4.540   0.327  0.1985 -0.1370 -0.9302
11909TIP3    H157142   5.696   4.536   0.265  1.1006  0.1324 -2.0614
11909TIP3    H257143   5.796   4.449   0.339  1.7341 -0.0714 -3.1361
11910TIP3   OH257144   5.912   6.448   5.066  0.0729  0.2088  0.0798
11910TIP3    H157145   5.935   6.364   5.028 -0.0864  0.1813  0.0433
11910TIP3    H257146   5.930   6.512   4.997  2.4866  0.4937  0.8825
11911TIP3   OH257147   0.952   1.241   2.375 -0.8750 -0.6084  0.1088
11911TIP3    H157148   0.998   1.159   2.390 -0.6100 -0.5070 -0.1162
11911TIP3    H257149   0.863   1.226   2.405 -1.4688 -1.7410 -2.0492
11912TIP3   OH257150   3.161   2.591   2.862  0.8465 -0.0861  0.3375
11912TIP3    H157151   3.172   2.650   2.787 -0.1360 -1.0219 -0.5753
11912TIP3    H257152   3.104   2.639   2.922  0.3575  0.0616 -0.2306
11913TIP3   OH257153   5.114   5.746   4.710 -0.2217 -0.1152 -0.2964
11913TIP3    H157154   5.146   5.835   4.699  0.0658  0.0549  1.5750
11913TIP3    H257155   5.140   5.701   4.629  2.8803  0.5650  0.1904
11914TIP3   OH257156   1.015   5.814  13.145 -0.6949 -0.2968  0.3484
11914TIP3    H157157   1.097   5.857  13.120 -1.2764 -0.5150 -2.1976
11914TIP3    H257158   1.011   5.737  13.089 -2.4605 -0.4846  0.7021
11915TIP3   OH257159   1.403   6.471  14.140  0.1786 -0.0698 -0.7527
11915TIP3    H157160   1.496   6.486  14.154  0.4574  0.0383 -2.5363
11915TIP3    H257161   1.380   6.403  14.204  0.9036  1.5129  1.3068
11916TIP3   OH257162   4.175   0.980  10.972  0.2926 -0.0944 -0.1275
11916TIP3    H157163   4.156   0.985  11.066  0.0527  1.4981 -0.2229
11916TIP3    H257164   4.222   1.061  10.953 -1.1898  0.4668 -1.6935
11917TIP3   OH257165   5.982   0.354  14.164  0.3272 -0.3275  0.0377
11917TIP3    H157166   5.936   0.277  14.131 -3.2894  1.8995 -0.7456
11917TIP3    H257167   6.001   0.406  14.085  0.1350  0.8337  0.7393
11918TIP3   OH257168   1.231   4.166   1.816 -0.1386  0.9049 -0.0543
11918TIP3    H157169   1.169   4.231   1.782  0.5149  0.6407 -1.8909
11918TIP3    H257170   1.259   4.117   1.738 -1.7993 -2.7135  1.3515
11919TIP3   OH257171   0.773   3.748   6.771  0.2890  0.7074  0.1124
11919TIP3    H157172   0.789   3.661   6.808  0.3309  0.3217 -0.8039
11919TIP3    H257173   0.712   3.734   6.700  1.3712  1.2233 -0.9525
11920TIP3   OH257174   4.476   2.320  15.456  0.1716 -0.1690  0.0682
11920TIP3    H157175   4.520   2.255  15.402 -1.1516 -0.8315 -0.2450
11920TIP3    H257176   4.543   2.349  15.518  0.6384 -2.1816  0.5456
11921TIP3   OH257177   3.129   2.548   5.438 -0.2898  0.5210 -0.5246
11921TIP3    H157178   3.187   2.498   5.380 -1.3964  1.2289 -2.3428
11921TIP3    H257179   3.118   2.632   5.394 -2.6798  0.3984 -0.2803
11922TIP3   OH257180   1.868   5.044  17.078 -0.1071  0.2782 -0.1244
11922TIP3    H157181   1.817   5.039  16.998  1.2075  0.1795 -0.9883
11922TIP3    H257182   1.886   5.138  17.089 -1.2816  0.4264  0.7330
11923TIP3   OH257183   5.762   5.938  11.267 -0.2004  0.1492  0.6983
11923TIP3    H157184   5.669   5.938  11.291 -0.1308  1.0151  0.9838
11923TIP3    H257185   5.789   6.029  11.272  0.1701  0.1936 -1.4208
11924TIP3   OH257186   6.542   3.293   3.909 -0.0322  0.0218 -0.1471
11924TIP3    H157187   6.634   3.268   3.903 -0.4891 -1.7064 -0.6127
11924TIP3    H257188   6.511   3.252   3.990 -0.5314  0.0838 -0.2993
11925TIP3   OH257189   6.148   3.441   4.908 -0.1761 -0.0678 -0.0430
11925TIP3    H157190   6.137   3.439   5.003  1.3456 -1.2165  0.1433
11925TIP3    H257191   6.095   3.369   4.876 -2.1334  1.3964 -0.2936
11926TIP3   OH257192   5.672   2.451  14.530 -0.5486  0.6275 -0.4664
11926TIP3    H157193   5.741   2.389  14.505  0.0191 -0.0890  2.4164
11926TIP3    H257194   5.650   2.427  14.620 -1.6651  3.4422  0.1301
11927TIP3   OH257195   4.748   5.979   1.863  0.4496 -0.6978 -0.1307
11927TIP3    H157196   4.654   5.966   1.847  0.4026  0.4607 -1.0032
11927TIP3    H257197   4.759   6.074   1.864  1.6800 -0.8158 -0.4319
11928TIP3   OH257198   5.455   2.718  11.881  0.4172 -0.0112  0.0247
11928TIP3    H157199   5.474   2.757  11.967  1.8805 -0.0175 -0.2633
11928TIP3    H257200   5.382   2.769  11.847  1.2903  1.5230  0.3188
11929TIP3   OH257201   3.365   2.757  14.846  0.1853 -0.2846 -0.1923
11929TIP3    H157202   3.438   2.813  14.819  0.4918 -0.1636  0.8340
11929TIP3    H257203   3.396   2.715  14.927 -1.1496  0.3287  0.6659
11930TIP3   OH257204   1.971   3.794   1.082  0.0728  0.3268  0.9015
11930TIP3    H157205   1.893   3.764   1.128 -0.6753  0.8222 -0.0054
11930TIP3    H257206   2.021   3.714   1.064 -0.6428 -0.0895  0.7483
11931TIP3   OH257207   3.903   3.823   5.211  0.0566 -0.0809  0.0863
11931TIP3    H157208   3.946   3.844   5.127 -0.9016  1.5442 -0.0364
11931TIP3    H257209   3.810   3.816   5.189 -0.0766 -0.7174  0.8332
11932TIP3   OH257210   1.433   2.404   2.639 -0.0777 -0.0648  0.1370
11932TIP3    H157211   1.491   2.406   2.715 -2.0406  0.1569  1.7204
11932TIP3    H257212   1.423   2.495   2.614  1.0007 -0.1778 -0.7825
11933TIP3   OH257213   4.337   5.721   1.347 -0.0183  0.4313  0.1814
11933TIP3    H157214   4.248   5.721   1.313 -0.0147 -1.7996  0.0460
11933TIP3    H257215   4.392   5.738   1.270 -0.2612  1.0190  0.1282
11934TIP3   OH257216   4.942   2.999   3.447  0.1363 -0.1774  0.4106
11934TIP3    H157217   4.891   2.921   3.424  1.3350 -1.0120  0.4933
11934TIP3    H257218   4.931   3.058   3.372 -0.8172 -0.3898  0.3661
11935TIP3   OH257219   2.344   5.175   2.984 -0.2280  0.1706 -0.0003
11935TIP3    H157220   2.395   5.101   3.018 -0.2138  0.6175  0.9793
11935TIP3    H257221   2.367   5.248   3.041  0.3284  1.1394 -1.3955
11936TIP3   OH257222   5.460   3.092  11.878 -0.1409 -0.3928  0.3455
11936TIP3    H157223   5.551   3.095  11.906 -0.5820 -2.2642  2.2316
11936TIP3    H257224   5.416   3.040  11.946 -2.1480 -1.6010 -1.7584
11937TIP3   OH257225   1.472   5.062   1.865  0.1594  0.1797 -0.1222
11937TIP3    H157226   1.398   5.119   1.882  0.3940  0.0859  1.3801
11937TIP3    H257227   1.532   5.115   1.813 -0.6062  0.5227 -0.6666
11938TIP3   OH257228   6.065   1.958   3.602 -0.1708  0.4207  0.4946
11938TIP3    H157229   5.983   1.971   3.554 -0.1884  0.0706  0.4292
11938TIP3    H257230   6.131   1.944   3.534 -0.1023  0.4494  0.5551
11939TIP3   OH257231   4.861   5.655  15.881 -0.0156 -0.1361  0.2926
11939TIP3    H157232   4.874   5.602  15.803 -1.5205 -0.3918  0.1972
11939TIP3    H257233   4.843   5.743  15.848  2.6480  0.5635  0.4520
11940TIP3   OH257234   5.355   3.393  12.179 -0.7772 -0.3710 -0.5007
11940TIP3    H157235   5.341   3.299  12.187 -0.6893 -0.4363 -1.0920
11940TIP3    H257236   5.320   3.429  12.261 -0.5810 -0.9373 -0.1594
11941TIP3   OH257237   0.656   5.244  15.722  0.9354 -0.4534 -0.1771
11941TIP3    H157238   0.662   5.154  15.752  2.6146 -0.6649 -1.0022
11941TIP3    H257239   0.631   5.237  15.630  2.0374 -0.1671 -0.5208
11942TIP3   OH257240   1.603   1.294  17.233  0.0543  0.5965 -0.2395
11942TIP3    H157241   1.630   1.289  17.325 -1.1223  2.6360  0.2730
11942TIP3    H257242   1.644   1.373  17.200 -1.0155  0.8884 -0.9295
11943TIP3   OH257243   1.871   2.824   4.896  0.1927 -0.3431 -0.4491
11943TIP3    H157244   1.879   2.826   4.801  1.0618 -0.2220 -0.3881
11943TIP3    H257245   1.903   2.738   4.921 -2.7427 -1.5205 -0.4460
11944TIP3   OH257246   3.189   3.595  11.263 -0.2131  0.3702  0.3954
11944TIP3    H157247   3.135   3.626  11.336  0.5269 -3.3181  2.7461
11944TIP3    H257248   3.275   3.635  11.277 -0.3311  0.4195  0.9776
11945TIP3   OH257249   4.097   1.775   2.713 -0.1590  0.3125  0.1610
11945TIP3    H157250   4.112   1.867   2.691  1.5752  0.4414  1.6110
11945TIP3    H257251   4.009   1.772   2.750 -1.0476  0.9777 -1.7800
11946TIP3   OH257252   5.201   1.574   2.713  0.2981 -0.0893  0.0115
11946TIP3    H157253   5.175   1.482   2.719 -0.3406  0.0347 -0.6366
11946TIP3    H257254   5.165   1.614   2.792 -2.3559  0.2490 -1.2411
11947TIP3   OH257255   5.331   0.464  14.017 -0.4508  0.6112 -0.3879
11947TIP3    H157256   5.424   0.447  14.002 -0.3187  2.1324 -1.5054
11947TIP3    H257257   5.296   0.380  14.045  1.1600 -0.1134 -0.4141
11948TIP3   OH257258   1.070   5.675  15.444 -0.1657 -0.0204 -0.1003
11948TIP3    H157259   1.107   5.736  15.508  0.4522 -1.3499  0.8559
11948TIP3    H257260   1.144   5.620  15.418 -1.2298 -2.2382  1.2717
11949TIP3   OH257261   2.048   3.684  13.971 -0.1585 -0.0427  0.3757
11949TIP3    H157262   2.036   3.604  14.024 -0.1177  0.0399  0.5111
11949TIP3    H257263   1.965   3.731  13.980 -0.1078  0.0297  0.4648
11950TIP3   OH257264   3.570   1.592  17.245  0.4257 -0.0206  0.6362
11950TIP3    H157265   3.664   1.605  17.255  0.5514  1.5920 -1.9388
11950TIP3    H257266   3.531   1.667  17.290  0.3903 -0.1388  0.8060
11951TIP3   OH257267   4.014   0.532   5.439  0.4625  0.2681  0.1885
11951TIP3    H157268   4.066   0.609   5.463  1.1978  0.3918 -1.6677
11951TIP3    H257269   3.985   0.550   5.350 -0.4564 -1.0446  0.2008
11952TIP3   OH257270   4.192   5.063   2.497  0.5624 -0.5978 -0.0935
11952TIP3    H157271   4.253   5.061   2.423 -0.5659 -0.8136 -1.0538
11952TIP3    H257272   4.177   5.156   2.514 -0.3423 -0.5151 -1.1758
11953TIP3   OH257273   5.033   3.270   4.857 -0.0382  0.2196 -0.3979
11953TIP3    H157274   4.951   3.302   4.894 -0.0597  0.4099 -0.6043
11953TIP3    H257275   5.023   3.284   4.762  0.7480  1.4427 -0.3163
11954TIP3   OH257276   1.496   2.776  16.015  0.2769  0.5184  0.1695
11954TIP3    H157277   1.405   2.808  16.015 -0.3888 -1.2344 -0.2687
11954TIP3    H257278   1.496   2.707  15.948  1.4895 -0.7085  1.3881
11955TIP3   OH257279   5.566   0.934   5.098 -0.2273 -0.3084  0.1329
11955TIP3    H157280   5.597   0.854   5.140 -0.6256 -1.0468 -0.9420
11955TIP3    H257281   5.493   0.906   5.044 -0.0436  0.6936 -0.6661
11956TIP3   OH257282   3.667   1.877  12.804  0.1610  0.1340 -0.2862
11956TIP3    H157283   3.575   1.857  12.783 -0.6619  1.3441  1.8281
11956TIP3    H257284   3.693   1.941  12.737 -1.4005  1.6602  0.4678
11957TIP3   OH257285   2.344   1.728   5.178  0.5784 -0.1145  0.0624
11957TIP3    H157286   2.270   1.744   5.236  1.5689 -2.2424  2.1296
11957TIP3    H257287   2.395   1.809   5.181 -0.5816  0.6306  0.3057
11958TIP3   OH257288   4.209   1.376  13.624 -0.1238 -0.0562  0.0953
11958TIP3    H157289   4.204   1.449  13.685  0.6042  1.2555 -1.3350
11958TIP3    H257290   4.247   1.304  13.675 -2.8290 -0.1947  2.1345
11959TIP3   OH257291   6.230   4.787   3.796  0.0157  0.6503 -0.2613
11959TIP3    H157292   6.238   4.706   3.846  2.1999  2.2581  2.2902
11959TIP3    H257293   6.224   4.758   3.705 -0.8769 -2.3678  0.6341
11960TIP3   OH257294   2.202   0.858   7.036 -0.1826 -1.1972  0.2240
11960TIP3    H157295   2.290   0.888   7.060 -0.2952 -0.4921 -0.2099
11960TIP3    H257296   2.177   0.799   7.107  0.3934 -0.9169  0.6706
11961TIP3   OH257297   3.442   4.039   5.071  0.7465  0.0156 -0.2716
11961TIP3    H157298   3.480   4.119   5.105 -0.7524  0.2694  0.9070
11961TIP3    H257299   3.352   4.039   5.103  0.3928 -1.6226 -1.1233
11962TIP3   OH257300   0.772   2.064   5.602 -0.3297  0.0063 -0.7967
11962TIP3    H157301   0.862   2.043   5.628  0.1305  1.2853 -1.2549
11962TIP3    H257302   0.729   1.980   5.594  0.6575 -0.6050  0.0388
11963TIP3   OH257303   6.674   5.177   4.280 -0.1683 -0.2231 -0.0422
11963TIP3    H157304   6.691   5.083   4.277 -1.1012 -0.3854 -0.9623
11963TIP3    H257305   6.760   5.218   4.269 -0.0026 -0.9760 -1.8556
11964TIP3   OH257306   5.722   2.128  16.271 -0.0946  0.1569  0.4335
11964TIP3    H157307   5.690   2.108  16.359  0.9189 -0.4299  0.6849
11964TIP3    H257308   5.658   2.190  16.235 -1.1086 -0.4363  1.1686
11965TIP3   OH257309   1.716   1.693   6.042 -0.4475 -0.3316 -0.3979
11965TIP3    H157310   1.707   1.781   6.005 -0.4042  0.6386  1.7598
11965TIP3    H257311   1.803   1.691   6.081 -0.3202 -1.4560 -0.6907
11966TIP3   OH257312   3.880   4.454  16.195  0.1380  0.3801 -0.0941
11966TIP3    H157313   3.869   4.463  16.290  0.9327  1.1759 -0.0621
11966TIP3    H257314   3.801   4.410  16.165 -0.1170  0.1185  0.9412
11967TIP3   OH257315   6.419   6.538   2.378  0.7606  0.0845 -0.1172
11967TIP3    H157316   6.375   6.517   2.296 -0.1464 -1.0740  0.6400
11967TIP3    H257317   6.511   6.551   2.353  1.0329 -2.7695 -1.0163
11968TIP3   OH257318   4.993   1.183  11.887  0.1948 -0.2691 -0.6772
11968TIP3    H157319   4.910   1.147  11.921  0.3735  0.2035  0.2639
11968TIP3    H257320   5.049   1.191  11.964  0.5284  1.0297 -1.0460
11969TIP3   OH257321   5.286   3.288   0.533 -0.2929 -0.3534  0.5657
11969TIP3    H157322   5.218   3.256   0.593 -0.3218 -2.5622 -0.5714
11969TIP3    H257323   5.237   3.328   0.461 -0.3168 -0.1492  0.6925
11970TIP3   OH257324   4.264   3.070   6.014  0.0091  0.2191 -0.1832
11970TIP3    H157325   4.296   2.981   6.001  1.5072  0.6900  0.1334
11970TIP3    H257326   4.337   3.117   6.053 -1.1311  1.3251  0.7021
11971TIP3   OH257327   5.870   1.637  13.129 -0.2526  0.2862 -0.2292
11971TIP3    H157328   5.901   1.618  13.217 -2.4569 -1.9204  0.1963
11971TIP3    H257329   5.925   1.585  13.071 -0.7878 -0.7684  0.1821
11972TIP3   OH257330   3.059   5.172   5.259 -0.0914 -0.3219  0.6133
11972TIP3    H157331   2.998   5.246   5.261  0.7695  0.4122  0.3508
11972TIP3    H257332   3.039   5.127   5.177  0.3159  0.4385  0.0886
11973TIP3   OH257333   1.746   2.506  13.949  0.6785 -0.1631 -0.1236
11973TIP3    H157334   1.720   2.513  14.040  1.0817 -0.2512 -0.0004
11973TIP3    H257335   1.835   2.471  13.952  0.0865 -1.8257 -0.5920
11974TIP3   OH257336   0.235   3.981   5.097 -0.2993  0.7033 -0.3985
11974TIP3    H157337   0.220   4.037   5.173  1.3691  3.1747 -1.7543
11974TIP3    H257338   0.327   3.956   5.103 -0.7765 -1.1814 -0.3457
11975TIP3   OH257339   0.213   2.465  11.824 -0.3772  0.2407 -0.2633
11975TIP3    H157340   0.212   2.525  11.898  0.2753  1.5766 -1.2903
11975TIP3    H257341   0.122   2.440  11.811 -0.4873 -0.0490  0.9966
11976TIP3   OH257342   3.205   4.708   4.675  0.5578  0.0202 -0.1212
11976TIP3    H157343   3.232   4.720   4.766  1.1973  0.3653 -0.3517
11976TIP3    H257344   3.200   4.796   4.640  2.2230 -0.1745 -0.9562
11977TIP3   OH257345   3.576   3.049   0.527  0.2881 -0.2258 -0.0276
11977TIP3    H157346   3.619   3.135   0.532  0.9643 -0.4569 -1.4141
11977TIP3    H257347   3.584   3.013   0.615 -1.1679  1.6533  0.9590
11978TIP3   OH257348   0.624   5.756  17.550 -0.6742  0.0028 -0.0561
11978TIP3    H157349   0.664   5.670  17.563 -0.6205  0.0496  0.0902
11978TIP3    H257350   0.532   5.737  17.530 -0.4179 -0.1440 -1.1718
11979TIP3   OH257351   1.191   6.707   5.502  0.2575  0.5271 -0.1833
11979TIP3    H157352   1.168   6.617   5.481  1.7456  0.5599 -2.2366
11979TIP3    H257353   1.109   6.756   5.492 -0.8841 -0.7150  2.2705
11980TIP3   OH257354   2.657   5.012  12.990  0.0775  0.5471  0.3299
11980TIP3    H157355   2.718   5.051  12.928 -1.1495  1.0942 -0.5831
11980TIP3    H257356   2.583   4.983  12.936 -0.6001  0.1600  1.4226
11981TIP3   OH257357   2.316   4.341   0.099 -0.6785  0.0388  0.0088
11981TIP3    H157358   2.251   4.336   0.028 -0.3421 -1.9191 -0.2199
11981TIP3    H257359   2.290   4.273   0.160  0.4369  0.0961  0.5692
11982TIP3   OH257360   3.442   0.880  13.032 -0.1061  0.2556 -0.4634
11982TIP3    H157361   3.414   0.871  12.941 -3.9218  1.1616  0.4268
11982TIP3    H257362   3.439   0.974  13.049  0.5167  0.0942  0.6374
11983TIP3   OH257363   4.952   4.175  12.632  0.5698 -0.0807 -0.0506
11983TIP3    H157364   4.954   4.158  12.726 -1.0854 -3.5565 -0.4683
11983TIP3    H257365   4.881   4.238  12.620 -0.0105 -0.5301  0.9472
11984TIP3   OH257366   0.605   4.738  16.775 -0.2257  0.0861  0.0840
11984TIP3    H157367   0.628   4.822  16.734 -1.1945  1.4721  2.2298
11984TIP3    H257368   0.668   4.729  16.847 -0.1113 -1.0734 -0.1541
11985TIP3   OH257369   0.909   4.248  13.413  0.2147  0.1677 -0.4923
11985TIP3    H157370   0.908   4.334  13.372  0.8524  1.0151  1.1537
11985TIP3    H257371   0.963   4.259  13.492 -0.6149 -1.4446  0.3704
11986TIP3   OH257372   5.508   0.408   5.828  0.1791  0.0256 -0.5356
11986TIP3    H157373   5.489   0.469   5.899 -1.2804  1.1680 -1.8367
11986TIP3    H257374   5.485   0.322   5.864  1.3882  0.3077  1.0163
11987TIP3   OH257375   0.675   3.469   4.440  0.0771 -0.3914 -0.1902
11987TIP3    H157376   0.734   3.542   4.424 -0.3429 -0.0826 -0.3345
11987TIP3    H257377   0.646   3.482   4.530 -0.4818 -0.0315 -0.4210
11988TIP3   OH257378   0.641   1.825   1.720 -0.1423  0.1699  0.0328
11988TIP3    H157379   0.567   1.765   1.708 -1.2237  1.8499 -2.9391
11988TIP3    H257380   0.708   1.792   1.661 -0.0641  0.8694 -0.2772
11989TIP3   OH257381   5.169   2.668   5.085 -0.2286 -0.3884  0.5746
11989TIP3    H157382   5.196   2.759   5.089 -1.4010  0.0337 -0.3502
11989TIP3    H257383   5.241   2.623   5.040  1.0174 -0.2382  2.3161
11990TIP3   OH257384   2.455   5.711   5.602 -0.2414  0.0169 -0.2944
11990TIP3    H157385   2.537   5.662   5.595 -1.5949 -2.6265  0.8475
11990TIP3    H257386   2.432   5.731   5.511  0.5088 -1.3053 -0.8216
11991TIP3   OH257387   4.426   2.878   4.899  0.1099  0.2984  0.1655
11991TIP3    H157388   4.501   2.845   4.849 -0.2397 -0.6599  0.2501
11991TIP3    H257389   4.408   2.810   4.964  0.9098  1.7776  2.0087
11992TIP3   OH257390   0.680   3.353   4.895  0.0632  0.2054 -0.4740
11992TIP3    H157391   0.731   3.389   4.967 -2.9384 -0.1816  2.0286
11992TIP3    H257392   0.709   3.262   4.889  1.9528  0.8151 -1.4145
11993TIP3   OH257393   3.440   6.141   1.908 -0.0576  0.5564  0.3376
11993TIP3    H157394   3.434   6.060   1.858 -1.8398  0.1857  1.0811
11993TIP3    H257395   3.530   6.170   1.896 -0.1029 -0.1261 -2.1114
11994TIP3   OH257396   2.482   2.532   2.529 -0.1553  0.0274 -0.0141
11994TIP3    H157397   2.550   2.555   2.466 -0.6438 -0.8025 -0.8674
11994TIP3    H257398   2.513   2.568   2.612  1.8023 -1.1363 -0.1787
11995TIP3   OH257399   5.237   4.005   2.976  0.2634  0.1981 -0.1261
11995TIP3    H157400   5.146   3.976   2.974 -0.3234  1.8778  0.4907
11995TIP3    H257401   5.274   3.965   3.055  0.4208 -1.4013 -0.9699
11996TIP3   OH257402   3.596   1.081  17.437 -0.4443 -0.0733  0.4000
11996TIP3    H157403   3.590   1.143  17.510 -1.3043  0.8557 -0.4301
11996TIP3    H257404   3.600   1.137  17.359 -3.3533 -0.9902 -0.5450
11997TIP3   OH257405   0.395   5.062   4.296 -0.0540 -0.1424  0.2411
11997TIP3    H157406   0.462   5.108   4.347 -0.8704 -0.9637  2.1338
11997TIP3    H257407   0.377   4.982   4.346  0.0825 -1.7258 -2.0541
11998TIP3   OH257408   3.396   1.370  15.533 -1.1828 -0.0421 -0.1749
11998TIP3    H157409   3.399   1.458  15.496 -1.4767  0.2913  0.5665
11998TIP3    H257410   3.467   1.368  15.598  0.0413 -0.9776 -1.4746
11999TIP3   OH257411   0.145   5.106   1.383  0.1481 -0.3243 -0.5760
11999TIP3    H157412   0.097   5.147   1.310  1.6901 -0.8933 -1.9618
11999TIP3    H257413   0.077   5.089   1.448 -1.1942  0.7671 -1.6035
12000TIP3   OH257414   0.767   6.480  15.179  0.4095  0.2615  0.5165
12000TIP3    H157415   0.755   6.442  15.092 -0.7724  0.5924  0.5121
12000TIP3    H257416   0.759   6.405  15.238  0.1575  0.1857  0.3917
12001TIP3   OH257417   1.602   1.903   2.873 -0.6905 -0.1128 -0.1725
12001TIP3    H157418   1.606   1.809   2.856  0.3014 -0.2686  0.7698
12001TIP3    H257419   1.517   1.931   2.839 -0.3063 -1.0238 -1.9485
12002TIP3   OH257420   2.012   3.378   0.104 -0.2310 -0.0525 -0.0644
12002TIP3    H157421   1.958   3.338   0.035 -1.6066 -0.3195  1.1154
12002TIP3    H257422   2.100   3.379   0.067 -0.6204 -1.7047 -1.2026
12003TIP3   OH257423   3.377   5.824  17.470 -0.0978  0.6297  0.1215
12003TIP3    H157424   3.342   5.746  17.514 -0.7831  0.6587 -0.3495
12003TIP3    H257425   3.465   5.800  17.444 -0.1496  0.1633  0.3607
12004TIP3   OH257426   5.116   5.316  15.158  0.3240  0.0760  0.3154
12004TIP3    H157427   5.101   5.267  15.239 -0.2792  0.6373  0.5601
12004TIP3    H257428   5.128   5.406  15.187  0.2803  0.2528 -0.2086
12005TIP3   OH257429   1.512   0.582   3.826  0.0915 -0.2638  0.2554
12005TIP3    H157430   1.558   0.608   3.746 -0.3458  0.0173  0.0886
12005TIP3    H257431   1.529   0.653   3.888  0.2992 -0.4046  0.3593
12006TIP3   OH257432   3.105   6.046   0.992 -0.0245  0.0898 -0.9990
12006TIP3    H157433   3.148   5.962   1.006  1.1972  0.6385 -1.3050
12006TIP3    H257434   3.170   6.111   1.019 -0.9757  0.9430 -0.6897
12007TIP3   OH257435   1.446   3.872   0.748  0.6058  0.0677 -0.7065
12007TIP3    H157436   1.365   3.899   0.791  1.4257 -1.8300  2.3239
12007TIP3    H257437   1.417   3.834   0.665 -1.9705 -2.5608  1.1867
12008TIP3   OH257438   3.997   2.641   4.745 -0.0588 -0.5657 -0.3329
12008TIP3    H157439   4.038   2.707   4.801  0.6445 -0.9856 -0.3404
12008TIP3    H257440   3.908   2.673   4.732 -0.1488 -0.3053  0.7876
12009TIP3   OH257441   1.578   6.701  15.049 -0.3356 -0.4740  0.3201
12009TIP3    H157442   1.515   6.752  14.997 -1.4953 -0.8378  1.3307
12009TIP3    H257443   1.629   6.653  14.984  0.3244  1.3967 -0.6404
12010TIP3   OH257444   4.835   1.798  17.232 -0.4616 -0.0524 -0.4740
12010TIP3    H157445   4.847   1.761  17.320  0.1758 -0.0955 -0.5713
12010TIP3    H257446   4.904   1.757  17.180  0.2310  1.2096 -0.6033
12011TIP3   OH257447   0.435   1.499   1.533  0.7100 -0.8735 -0.1405
12011TIP3    H157448   0.418   1.563   1.602  2.0852 -0.6345  0.0094
12011TIP3    H257449   0.361   1.508   1.473  0.1956 -0.1130  0.5847
12012TIP3   OH257450   0.864   2.209  11.690 -0.5581  0.1878 -0.3756
12012TIP3    H157451   0.939   2.267  11.678  0.1964 -1.0509 -2.1033
12012TIP3    H257452   0.889   2.128  11.645 -2.2073 -0.9207  0.5950
12013TIP3   OH257453   4.521   0.639   2.779 -0.0846 -0.0524 -1.0278
12013TIP3    H157454   4.562   0.715   2.821 -0.5528 -0.7096  0.7099
12013TIP3    H257455   4.591   0.600   2.727  1.2339 -0.5065  0.9832
12014TIP3   OH257456   4.628   1.094   3.362  0.6813  0.0040  0.0737
12014TIP3    H157457   4.661   1.008   3.386 -1.8933 -1.1513 -0.2196
12014TIP3    H257458   4.699   1.154   3.384  1.7905 -1.9399  2.1994
12015TIP3   OH257459   1.279   5.874   5.503 -0.1616 -0.5110 -0.6308
12015TIP3    H157460   1.270   5.798   5.561  1.1646  0.4793  0.9520
12015TIP3    H257461   1.219   5.939   5.538  0.6906  0.1143 -0.2937
12016TIP3   OH257462   5.498   5.828   0.909  0.0702  0.3111 -0.4185
12016TIP3    H157463   5.484   5.921   0.892 -2.5817  0.2077  0.6216
12016TIP3    H257464   5.478   5.785   0.827 -0.5693  0.5612 -0.4000
12017TIP3   OH257465   2.646   0.203   5.306  0.1422  0.1064 -0.1902
12017TIP3    H157466   2.682   0.190   5.218  0.4133  1.2362 -0.2642
12017TIP3    H257467   2.596   0.284   5.299 -0.2143 -0.0450  0.5838
12018TIP3   OH257468   5.206   2.736  14.556 -0.2194  0.1189 -0.1297
12018TIP3    H157469   5.180   2.729  14.648 -0.0330 -1.0714 -0.1571
12018TIP3    H257470   5.123   2.732  14.507 -0.2241 -0.4722 -0.0712
12019TIP3   OH257471   6.203   6.590  10.716  0.1206 -0.7147 -0.1164
12019TIP3    H157472   6.191   6.662  10.778  0.0695  3.3704 -4.3235
12019TIP3    H257473   6.297   6.587  10.701 -0.0035 -0.4841 -0.9971
12020TIP3   OH257474   6.179   0.329  15.437  0.1932 -0.0445  0.7413
12020TIP3    H157475   6.113   0.359  15.499 -0.9487  1.3982 -1.0568
12020TIP3    H257476   6.129   0.285  15.368  1.0953  0.7612 -0.4829
12021TIP3   OH257477   4.419   1.488  15.102 -0.4562  0.4824  0.1614
12021TIP3    H157478   4.372   1.555  15.053 -2.3927 -1.3017 -0.5746
12021TIP3    H257479   4.510   1.495  15.071 -0.0764  3.9605  1.5623
12022TIP3   OH257480   1.965   5.100   1.629 -0.3794  0.0865  0.6053
12022TIP3    H157481   1.890   5.084   1.685 -1.3121  1.6461 -0.1113
12022TIP3    H257482   2.033   5.134   1.687 -1.1670  1.2218  0.8812
12023TIP3   OH257483   0.807   4.301   2.221  0.0283  0.1049  0.0143
12023TIP3    H157484   0.847   4.327   2.304 -0.1243  0.1849  0.0622
12023TIP3    H257485   0.882   4.282   2.164  0.2472  2.5973 -0.6620
12024TIP3   OH257486   2.426   1.287  16.213  0.6880  0.5398  0.3609
12024TIP3    H157487   2.501   1.272  16.156  1.3113  2.5239  0.5885
12024TIP3    H257488   2.355   1.311  16.153  0.6658  0.2796  0.2770
12025TIP3   OH257489   2.579   2.827  15.567 -0.2914 -0.2356 -0.7036
12025TIP3    H157490   2.495   2.808  15.524 -1.2530  2.8023 -0.3695
12025TIP3    H257491   2.555   2.861  15.653  1.4360 -1.4056  0.3130
12026TIP3   OH257492   3.880   0.200  15.257 -0.2139 -0.0393 -0.0263
12026TIP3    H157493   3.932   0.252  15.196  0.7156  0.4338  1.1140
12026TIP3    H257494   3.897   0.109  15.231 -2.4714  0.1384 -2.5265
12027TIP3   OH257495   0.933   2.098  14.527 -0.0839 -0.3995  0.1404
12027TIP3    H157496   0.966   2.168  14.470 -0.0755 -0.9882 -0.5807
12027TIP3    H257497   0.972   2.117  14.612  1.2996 -0.4787 -0.4463
12028TIP3   OH257498   3.358   1.824  16.654  1.2201 -0.4625 -0.4397
12028TIP3    H157499   3.380   1.849  16.564  1.4593 -0.8598 -0.4921
12028TIP3    H257500   3.331   1.906  16.695  1.0940 -0.2820 -0.8781
12029TIP3   OH257501   4.925   4.006  17.555 -0.1864  0.0034 -0.0403
12029TIP3    H157502   4.893   4.033  17.641  0.4581 -0.3630  0.3254
12029TIP3    H257503   4.847   3.976  17.509 -0.9013  2.1586 -0.3600
12030TIP3   OH257504   1.813   2.587   1.843 -0.8042 -0.3918 -0.2560
12030TIP3    H157505   1.777   2.546   1.764 -0.6850  1.1868 -1.1923
12030TIP3    H257506   1.736   2.606   1.897 -0.9443 -0.9859 -0.2427
12031TIP3   OH257507   5.591   4.787  15.063 -0.6143 -0.0081 -0.0472
12031TIP3    H157508   5.662   4.725  15.076  1.0552  1.7458 -0.2864
12031TIP3    H257509   5.547   4.758  14.983 -0.0954 -1.0590  0.0416
12032TIP3   OH257510   3.417   6.297  15.783 -0.2363 -0.3251  0.1791
12032TIP3    H157511   3.474   6.273  15.856 -0.4569  0.7110  0.7034
12032TIP3    H257512   3.338   6.244  15.795  0.4883 -1.5901 -0.4177
12033TIP3   OH257513   0.914   5.655  17.583  0.2546  0.3100  0.2874
12033TIP3    H157514   0.998   5.621  17.613  0.4103 -0.7828 -1.2289
12033TIP3    H257515   0.849   5.596  17.623  0.1378  1.5117  1.9326
12034TIP3   OH257516   5.386   3.457   4.675 -0.1674 -0.6256  0.1316
12034TIP3    H157517   5.426   3.439   4.589 -0.7367  0.9024 -0.4917
12034TIP3    H257518   5.395   3.375   4.723 -0.3172 -1.6972 -1.5753
12035TIP3   OH257519   2.831   3.583   2.381  0.5196  0.1093 -0.0271
12035TIP3    H157520   2.900   3.559   2.319  1.1158  1.4309  0.0906
12035TIP3    H257521   2.831   3.679   2.381 -1.8574  0.1560 -0.6138
12036TIP3   OH257522   6.302   3.265  14.639 -0.3986 -0.4154 -0.3719
12036TIP3    H157523   6.285   3.187  14.585  1.1217 -0.5870 -0.6355
12036TIP3    H257524   6.241   3.331  14.605 -0.5808 -1.0055 -1.2280
12037TIP3   OH257525   3.860   6.089  14.882  0.1194 -0.3101 -0.0671
12037TIP3    H157526   3.947   6.051  14.890  1.7745  3.3173  1.4360
12037TIP3    H257527   3.874   6.173  14.838 -2.9735 -0.4509 -1.5881
12038TIP3   OH257528   0.690   5.834  13.272  0.5877  0.6413  0.3362
12038TIP3    H157529   0.736   5.751  13.277 -0.4575  0.0445  0.3844
12038TIP3    H257530   0.626   5.831  13.344  0.1291  1.2161 -0.0308
12039TIP3   OH257531   4.019   1.814   2.352  0.3302  0.0277  0.6455
12039TIP3    H157532   4.005   1.889   2.294  0.8684  0.1368  0.6508
12039TIP3    H257533   3.949   1.820   2.417  0.4045  0.5606  0.6799
12040TIP3   OH257534   5.010   4.562  15.078 -0.3476  0.0951  0.4641
12040TIP3    H157535   4.934   4.619  15.076 -0.4178  0.0156  0.8699
12040TIP3    H257536   5.084   4.621  15.093 -0.0333  0.4699 -2.1134
12041TIP3   OH257537   0.478   2.601   3.385 -0.6790  0.2852 -0.3656
12041TIP3    H157538   0.566   2.635   3.370 -1.0910  2.2132  1.2602
12041TIP3    H257539   0.492   2.514   3.422  0.5420  0.5539 -0.1663
12042TIP3   OH257540   1.048   5.466   1.452 -0.3713 -0.7576  0.0137
12042TIP3    H157541   1.003   5.550   1.461 -0.0978 -0.6605  0.4954
12042TIP3    H257542   1.095   5.473   1.369  1.5364  0.4842  1.1145
12043TIP3   OH257543   4.292   2.666   4.014  0.0069 -0.2422  0.3002
12043TIP3    H157544   4.254   2.750   4.039 -1.1665 -0.3225 -1.0606
12043TIP3    H257545   4.261   2.605   4.081  0.2090  0.2576  0.8519
12044TIP3   OH257546   1.204   5.337   2.375  0.1476  0.2857  0.6783
12044TIP3    H157547   1.263   5.409   2.398 -0.3912  1.3179 -0.9583
12044TIP3    H257548   1.249   5.293   2.302  0.1320 -0.6060  1.1985
12045TIP3   OH257549   3.372   5.386  17.401  0.1746  0.3781 -0.1141
12045TIP3    H157550   3.433   5.443  17.448  0.4756 -0.2197  0.2461
12045TIP3    H257551   3.389   5.299  17.438 -0.4331  0.0981 -0.4878
12046TIP3   OH257552   1.415   3.710  15.869  0.1799 -0.1582 -0.5013
12046TIP3    H157553   1.421   3.792  15.917 -1.4125  1.0088 -2.1540
12046TIP3    H257554   1.414   3.736  15.777 -0.0921 -2.0389 -1.0709
12047TIP3   OH257555   5.818   1.657   3.591  0.0374 -0.1312  0.1490
12047TIP3    H157556   5.814   1.646   3.496 -0.2624 -1.0470  0.2626
12047TIP3    H257557   5.828   1.568   3.625 -0.0380  0.1756  0.9842
12048TIP3   OH257558   0.594   6.425   0.564 -0.1209  0.1694  0.5044
12048TIP3    H157559   0.613   6.446   0.473  0.1139 -0.1463  0.4775
12048TIP3    H257560   0.503   6.449   0.576  0.0229  0.7980  0.3616
12049TIP3   OH257561   2.676   2.394   5.305  0.3098  0.2284 -0.0807
12049TIP3    H157562   2.614   2.332   5.342 -1.5031  1.9102 -0.1440
12049TIP3    H257563   2.744   2.402   5.373 -1.7889  1.5569  2.0084
12050TIP3   OH257564   5.432   1.787  16.263  0.2210  0.0205  0.4325
12050TIP3    H157565   5.386   1.849  16.206 -1.0636 -1.7515 -0.5405
12050TIP3    H257566   5.422   1.823  16.351 -0.9157  0.9481 -0.0554
12051TIP3   OH257567   3.896   1.645   1.591 -0.2904  0.1661 -0.0685
12051TIP3    H157568   3.942   1.643   1.508 -0.2207 -1.0358 -0.0249
12051TIP3    H257569   3.842   1.724   1.587 -1.5423 -0.6932 -1.9616
12052TIP3   OH257570   4.313   3.779   1.451 -0.0371 -0.2868 -0.5191
12052TIP3    H157571   4.348   3.797   1.538 -1.1001 -1.7747  0.2662
12052TIP3    H257572   4.304   3.684   1.447 -1.1671 -0.1699 -1.7834
12053TIP3   OH257573   1.702   6.546   2.563  0.3404  0.2996 -0.2904
12053TIP3    H157574   1.691   6.628   2.611 -2.2119 -0.1015 -0.0294
12053TIP3    H257575   1.649   6.483   2.612  1.9025 -1.4257 -0.7265
12054TIP3   OH257576   4.105   4.004  13.155 -0.0430 -0.0756  0.0637
12054TIP3    H157577   4.198   4.025  13.163 -0.0629  0.4239 -0.8754
12054TIP3    H257578   4.096   3.919  13.196  0.9204 -0.3507 -0.2605
12055TIP3   OH257579   4.114   3.871   0.185  0.2325  0.3356 -0.2854
12055TIP3    H157580   4.159   3.919   0.254  1.0381 -0.2598 -0.3808
12055TIP3    H257581   4.184   3.831   0.134 -0.3901 -0.1998 -0.7406
12056TIP3   OH257582   0.806   1.100  11.279  0.3488 -0.1372 -0.4826
12056TIP3    H157583   0.847   1.175  11.321  0.8501 -0.8621  0.3519
12056TIP3    H257584   0.821   1.114  11.185 -1.7205  2.0626 -0.6032
12057TIP3   OH257585   3.959   0.577  14.450 -0.1136  0.6838 -0.0278
12057TIP3    H157586   4.000   0.491  14.461 -0.6336  0.6787  2.6121
12057TIP3    H257587   4.011   0.635  14.505 -0.3715  1.8809 -1.0074
12058TIP3   OH257588   5.496   4.731   3.087 -0.1127 -0.7249 -0.2321
12058TIP3    H157589   5.433   4.740   3.015  0.4290 -0.1709 -0.6422
12058TIP3    H257590   5.498   4.637   3.105 -1.2032 -0.7331 -0.0851
12059TIP3   OH257591   4.170   6.562  14.799 -0.3629 -0.0625  0.3337
12059TIP3    H157592   4.152   6.655  14.814 -1.1398 -0.0598 -0.4561
12059TIP3    H257593   4.152   6.550  14.705 -0.8370 -1.1210  0.5421
12060TIP3   OH257594   3.408   3.385  11.802  0.3185  0.5790 -0.5790
12060TIP3    H157595   3.491   3.418  11.769 -0.3915  1.4272 -1.6186
12060TIP3    H257596   3.366   3.346  11.725  0.7720 -2.1250  0.4363
12061TIP3   OH257597   1.414   0.409   3.635 -0.1337 -0.3672 -0.2995
12061TIP3    H157598   1.333   0.457   3.620 -0.5311 -1.0530 -0.3998
12061TIP3    H257599   1.440   0.432   3.724 -2.3554 -2.8221  1.1452
12062TIP3   OH257600   1.975   5.046   2.501 -0.2700 -0.1658 -0.3038
12062TIP3    H157601   1.882   5.042   2.482 -0.0924 -2.2102 -1.0907
12062TIP3    H257602   2.003   4.954   2.500  1.8070  0.4129 -0.4052
12063TIP3   OH257603   4.212   4.429   4.628 -0.4387 -0.2229  0.4574
12063TIP3    H157604   4.250   4.358   4.680  1.4508  0.6186  0.3093
12063TIP3    H257605   4.142   4.464   4.683  1.3378  0.4754  2.4298
12064TIP3   OH257606   5.065   3.766  15.722 -0.4620  0.6022  0.5807
12064TIP3    H157607   4.996   3.738  15.662 -2.1967  1.8258  1.8995
12064TIP3    H257608   5.144   3.772  15.667 -1.6259  0.2086 -1.2115
12065TIP3   OH257609   5.923   1.327   3.529  0.2734  0.0314  0.8358
12065TIP3    H157610   5.861   1.280   3.584 -0.7922  2.5305  1.9273
12065TIP3    H257611   6.001   1.338   3.584  0.6136 -0.5909  0.4971
12066TIP3   OH257612   4.642   1.818   4.106  0.2250  0.4183  0.4489
12066TIP3    H157613   4.581   1.745   4.100 -1.1388  1.4129  1.5633
12066TIP3    H257614   4.655   1.847   4.016 -1.6132  0.6953  0.2455
12067TIP3   OH257615   3.820   2.584   2.028 -0.5540 -0.2660  0.0554
12067TIP3    H157616   3.806   2.617   1.940  0.6141  1.6275  0.5252
12067TIP3    H257617   3.884   2.514   2.018 -2.2605 -1.7911 -0.8355
12068TIP3   OH257618   4.678   4.090  14.355 -0.1710 -0.3850  0.1494
12068TIP3    H157619   4.745   4.035  14.398 -1.9737 -0.9486  2.4408
12068TIP3    H257620   4.624   4.121  14.427 -0.7763  2.3385 -1.3721
12069TIP3   OH257621   0.672   6.005   1.959 -0.0667 -0.5146 -0.4428
12069TIP3    H157622   0.614   6.080   1.949  2.3683  1.7243  1.0175
12069TIP3    H257623   0.655   5.951   1.881 -3.5620  0.2438 -0.3960
12070TIP3   OH257624   1.862   1.024   5.724  0.1471  0.0737  0.1178
12070TIP3    H157625   1.859   0.937   5.686  0.8779 -1.2312  2.8244
12070TIP3    H257626   1.787   1.070   5.685  0.1449 -1.5095 -1.8682
12071TIP3   OH257627   2.782   5.101  12.762  0.0492  0.2733  0.5500
12071TIP3    H157628   2.745   5.189  12.764  0.8432  0.7057 -1.2979
12071TIP3    H257629   2.789   5.079  12.669  3.6335 -0.0546  0.7360
12072TIP3   OH257630   5.135   2.984   2.010 -0.3638 -0.2450  0.7914
12072TIP3    H157631   5.103   3.065   2.050  0.8731  0.8701 -0.3868
12072TIP3    H257632   5.221   2.970   2.051  0.1536 -0.0309 -0.1914
12073TIP3   OH257633   2.503   5.518  14.509 -0.0295 -0.2044 -0.1642
12073TIP3    H157634   2.503   5.451  14.440  0.4890  0.7882 -1.1703
12073TIP3    H257635   2.484   5.470  14.589  0.8733 -1.6449 -0.7673
12074TIP3   OH257636   3.714   0.657   6.289  0.1689 -0.3569  0.3554
12074TIP3    H157637   3.691   0.739   6.332  0.6418  0.0844 -0.2108
12074TIP3    H257638   3.641   0.598   6.308  0.7594 -0.4715  2.5027
12075TIP3   OH257639   5.487   0.992  16.829  0.2870  0.5373 -0.5552
12075TIP3    H157640   5.520   0.933  16.897 -0.0090  0.6257 -0.3316
12075TIP3    H257641   5.459   0.934  16.758 -2.4217  0.1834  0.6799
12076TIP3   OH257642   3.362   6.110   0.795  0.0981  0.4270  0.2274
12076TIP3    H157643   3.457   6.099   0.802  0.3185  1.2524 -1.0234
12076TIP3    H257644   3.335   6.146   0.879  0.9457  0.4566  0.4935
12077TIP3   OH257645   1.524   2.891  15.227 -0.8185  0.0248 -0.2024
12077TIP3    H157646   1.536   2.797  15.212  2.0654  0.5592 -1.8477
12077TIP3    H257647   1.482   2.923  15.147 -2.6636  0.0763  0.7258
12078TIP3   OH257648   0.979   1.248  12.673  0.1882 -0.4832  0.1650
12078TIP3    H157649   1.002   1.207  12.757 -0.9813 -0.5286  0.4794
12078TIP3    H257650   0.895   1.290  12.689  0.9594  1.3702 -0.3875
12079TIP3   OH257651   3.451   2.679   5.505  0.1688 -0.1727 -0.5274
12079TIP3    H157652   3.422   2.618   5.572 -1.2949  0.4536 -0.5552
12079TIP3    H257653   3.530   2.639   5.468  0.7099 -0.7693  1.1865
12080TIP3   OH257654   5.399   5.821  17.139  0.4456  0.3891  0.1565
12080TIP3    H157655   5.418   5.873  17.061 -0.5116  1.7423  0.8082
12080TIP3    H257656   5.329   5.762  17.112  0.6559  0.3036 -0.2131
12081TIP3   OH257657   0.705   3.478   3.607  0.4473  0.7806 -0.0698
12081TIP3    H157658   0.765   3.552   3.599  0.8453  0.5106  0.3419
12081TIP3    H257659   0.620   3.513   3.584  0.2286  1.9606  2.2396
12082TIP3   OH257660   6.386   1.683  15.589 -0.4428 -0.0642  0.5066
12082TIP3    H157661   6.406   1.623  15.517  0.7405 -0.7172  1.3416
12082TIP3    H257662   6.298   1.658  15.617  0.0490 -1.4664  0.8688
12083TIP3   OH257663   0.894   3.862  14.420 -0.1920 -0.5257 -0.1792
12083TIP3    H157664   0.898   3.957  14.434 -0.5433 -0.6288  0.7006
12083TIP3    H257665   0.862   3.827  14.504  0.8180 -1.5086 -0.1791
12084TIP3   OH257666   2.663   2.187   3.017 -0.5453  0.0957  0.4408
12084TIP3    H157667   2.676   2.093   3.005 -1.7264  0.0834 -0.8627
12084TIP3    H257668   2.707   2.227   2.942  0.2782  0.6325  1.1856
12085TIP3   OH257669   3.171   3.436   5.751  0.1092 -0.0373  0.6243
12085TIP3    H157670   3.122   3.497   5.807  0.4650  0.2184  0.6640
12085TIP3    H257671   3.204   3.491   5.680 -1.9286 -0.6878 -0.9125
12086TIP3   OH257672   4.724   1.376  15.211  0.0537  0.0293  0.1035
12086TIP3    H157673   4.763   1.386  15.297  0.8698 -1.5403 -0.0335
12086TIP3    H257674   4.749   1.455  15.163  3.6363 -1.0820 -0.1452
12087TIP3   OH257675   6.419   1.090  14.919 -0.0081  0.1989  0.1067
12087TIP3    H157676   6.450   1.181  14.923 -0.9121  0.4708  2.1799
12087TIP3    H257677   6.434   1.064  14.828  3.0536  1.4125  0.1408
12088TIP3   OH257678   4.489   3.597  17.496 -0.0205  0.3882 -0.5085
12088TIP3    H157679   4.569   3.615  17.546 -0.0560 -0.8231  0.0188
12088TIP3    H257680   4.502   3.643  17.413  0.8626  0.8851 -0.1164
12089TIP3   OH257681   5.720   4.948   5.228  0.1821 -0.1204  0.2046
12089TIP3    H157682   5.713   4.968   5.321 -2.1316  1.2182 -0.1790
12089TIP3    H257683   5.656   5.006   5.186  0.8745 -0.9695 -2.1814
12090TIP3   OH257684   2.059   4.975  16.397  0.0421 -0.4705 -0.2548
12090TIP3    H157685   1.982   4.918  16.402 -1.2872  1.2908  0.2412
12090TIP3    H257686   2.042   5.032  16.322  0.8370 -0.0168 -0.0987
12091TIP3   OH257687   0.841   2.406  16.235 -0.5100 -0.2080 -0.6293
12091TIP3    H157688   0.756   2.448  16.226 -0.8634 -0.6359  0.5715
12091TIP3    H257689   0.885   2.424  16.152 -1.1318  1.4285 -0.6515
12092TIP3   OH257690   4.937   1.518  13.830 -0.2811 -0.2305  0.3038
12092TIP3    H157691   5.025   1.493  13.799  0.4639  1.2359  1.1185
12092TIP3    H257692   4.881   1.445  13.803  1.1202 -1.0611 -0.5305
12093TIP3   OH257693   4.875   5.533   2.371  0.0672  0.1968 -0.5574
12093TIP3    H157694   4.926   5.559   2.447  0.9457  0.5383 -1.2461
12093TIP3    H257695   4.938   5.535   2.298 -0.7700 -0.0452 -1.3030
12094TIP3   OH257696   5.420   5.554  16.415  0.0183  0.1550 -0.2754
12094TIP3    H157697   5.331   5.578  16.388 -0.9949 -1.1821  1.6207
12094TIP3    H257698   5.407   5.482  16.477  2.4199  0.1701  0.3262
12095TIP3   OH257699   2.993   5.540  17.151  0.5129 -0.4139 -0.5133
12095TIP3    H157700   2.933   5.603  17.190 -0.7233 -1.8451  0.0195
12095TIP3    H257701   2.941   5.460  17.143  0.8787 -0.4342 -4.5187
12096TIP3   OH257702   5.686   3.369   5.702 -0.1624  0.4374 -0.3484
12096TIP3    H157703   5.762   3.313   5.691  0.9684  1.6081  1.0301
12096TIP3    H257704   5.628   3.320   5.760 -0.0902 -0.1282 -0.7525
12097TIP3   OH257705   1.083   4.271  13.110  0.0220  0.7729  0.2321
12097TIP3    H157706   1.097   4.254  13.204 -1.4191 -0.8515  0.1992
12097TIP3    H257707   1.117   4.359  13.097  2.2799  0.2421  1.8241
12098TIP3   OH257708   3.006   4.933   0.252 -0.0536 -0.1376  0.0039
12098TIP3    H157709   2.973   4.935   0.162  0.9574 -1.4534 -0.4302
12098TIP3    H257710   3.101   4.922   0.242  0.2734  1.2485  1.2336
12099TIP3   OH257711   0.342   2.294   6.019  0.1548  0.4005  0.5300
12099TIP3    H157712   0.428   2.331   5.998  0.3699 -1.0681 -1.4353
12099TIP3    H257713   0.361   2.204   6.045 -0.6926  0.4737  1.4458
12100TIP3   OH257714   3.949   2.319   4.769  0.2460  0.2364 -0.3332
12100TIP3    H157715   3.924   2.398   4.816 -1.0851  1.4925 -2.9247
12100TIP3    H257716   3.868   2.268   4.764  0.6291 -0.3788 -0.3390
12101TIP3   OH257717   0.852   6.625  16.626  0.1516 -0.1499  0.4696
12101TIP3    H157718   0.830   6.540  16.588 -1.2299 -0.1063  1.0842
12101TIP3    H257719   0.783   6.641  16.690  1.4879  0.5292  1.8121
12102TIP3   OH257720   5.442   5.470   5.203  0.0091 -0.3178 -0.0777
12102TIP3    H157721   5.472   5.560   5.219  0.2886 -0.6321  1.3718
12102TIP3    H257722   5.463   5.424   5.285 -2.8436 -0.9956  0.3805
12103TIP3   OH257723   2.143   5.779   1.773 -0.1951 -0.0926 -0.3951
12103TIP3    H157724   2.099   5.739   1.848  0.3584  0.8038  0.4320
12103TIP3    H257725   2.107   5.867   1.769 -1.2304 -0.5568 -2.0503
12104TIP3   OH257726   1.273   1.452   0.408 -0.1114 -0.8386  0.9837
12104TIP3    H157727   1.185   1.467   0.375  0.2503 -0.8115  0.0224
12104TIP3    H257728   1.306   1.540   0.428  0.5650 -0.6108 -0.9401
12105TIP3   OH257729   1.309   2.141   4.068 -0.4262 -0.0052 -0.6688
12105TIP3    H157730   1.303   2.166   4.160  0.7894  3.7433 -1.4393
12105TIP3    H257731   1.220   2.113   4.045 -0.9673 -0.0994  1.3926
12106TIP3   OH257732   3.836   3.605  15.370 -0.2509  0.4166 -0.0331
12106TIP3    H157733   3.792   3.556  15.301 -0.4606  2.3913 -1.3632
12106TIP3    H257734   3.913   3.643  15.329  0.1692  0.8149  1.0729
12107TIP3   OH257735   2.002   1.564   5.623  0.6844  0.9060 -0.8497
12107TIP3    H157736   1.976   1.655   5.607  2.2269  1.9455  1.9424
12107TIP3    H257737   2.093   1.560   5.594  0.6177  0.2060 -0.9823
12108TIP3   OH257738   0.493   6.324  15.294 -0.1415  0.2901  0.2562
12108TIP3    H157739   0.576   6.293  15.258 -1.1839 -1.1974 -0.9869
12108TIP3    H257740   0.479   6.268  15.371  0.1827  0.8275  0.7176
12109TIP3   OH257741   4.691   3.156  11.280 -0.1051  0.4130  0.0304
12109TIP3    H157742   4.722   3.066  11.289 -1.5137 -0.0205  1.0698
12109TIP3    H257743   4.626   3.152  11.209 -1.5291  0.1603  1.2838
12110TIP3   OH257744   1.128   3.048  13.604 -0.0389 -0.5422  0.4911
12110TIP3    H157745   1.210   3.007  13.576  0.3551 -1.0894  2.2961
12110TIP3    H257746   1.140   3.141  13.589 -0.0050 -0.8204 -1.4063
12111TIP3   OH257747   4.478   0.022  13.192 -0.1696 -0.0604 -0.0260
12111TIP3    H157748   4.416  -0.006  13.259 -0.0716 -0.3968 -0.0728
12111TIP3    H257749   4.540  -0.050  13.185  0.9622  0.7896  0.8920
12112TIP3   OH257750   0.431   0.862  14.277 -0.2923  0.0257 -0.3183
12112TIP3    H157751   0.425   0.777  14.321 -0.8525 -1.2512 -2.6784
12112TIP3    H257752   0.517   0.861  14.235 -1.2626 -0.5818 -2.4666
12113TIP3   OH257753   2.697   5.111  17.215 -0.2604 -0.0003  0.2352
12113TIP3    H157754   2.616   5.061  17.225 -1.2776  1.6468  0.7071
12113TIP3    H257755   2.708   5.155  17.299  0.3874  0.8344 -0.2735
12114TIP3   OH257756   0.912   5.531  11.524  0.7751  0.0393  0.2213
12114TIP3    H157757   0.984   5.495  11.576 -0.3696 -1.1882  1.0340
12114TIP3    H257758   0.896   5.617  11.561  1.6989  0.2604  0.1385
12115TIP3   OH257759   5.978   1.638  12.624  0.6408  0.4137 -0.1033
12115TIP3    H157760   5.984   1.730  12.598  0.6708 -0.0370 -1.8350
12115TIP3    H257761   5.885   1.624  12.639  0.5748  0.6211 -0.2975
12116TIP3   OH257762   4.219   4.072  15.201 -0.0710  0.2992 -0.4467
12116TIP3    H157763   4.289   4.129  15.233  0.4387 -0.7282  0.2903
12116TIP3    H257764   4.245   4.050  15.111  1.3488 -1.2943  0.3164
12117TIP3   OH257765   1.602   1.834  12.979 -0.4721 -0.1365 -0.2065
12117TIP3    H157766   1.633   1.838  13.069  0.2593 -1.3462 -0.3812
12117TIP3    H257767   1.603   1.741  12.957  1.1136  0.2385 -2.0427
12118TIP3   OH257768   4.078   0.540   1.873 -0.4211 -0.3457 -0.5781
12118TIP3    H157769   4.005   0.596   1.900 -1.0575 -0.1632 -2.4984
12118TIP3    H257770   4.114   0.585   1.797  1.4330 -0.6780  0.0715
12119TIP3   OH257771   1.581   3.055   0.096  0.4891  0.3658 -0.7245
12119TIP3    H157772   1.621   3.014   0.173  0.1410  0.0972 -0.6828
12119TIP3    H257773   1.489   3.028   0.100  0.6450 -0.3631 -1.7005
12120TIP3   OH257774   6.169   2.505  13.421  0.3784 -0.0852  0.3447
12120TIP3    H157775   6.140   2.586  13.463 -1.6804  0.4000 -1.7994
12120TIP3    H257776   6.120   2.436  13.465  1.3349 -0.0885  1.4550
12121TIP3   OH257777   6.264   6.013   4.220 -0.0258  0.2835 -0.1307
12121TIP3    H157778   6.176   6.025   4.183 -0.6008  0.9331  1.3347
12121TIP3    H257779   6.298   5.935   4.176 -1.1717  0.2718 -1.0490
12122TIP3   OH257780   6.459   1.003   5.166  0.1596  0.1455 -0.3303
12122TIP3    H157781   6.423   1.086   5.135  2.5607  1.3645 -0.0724
12122TIP3    H257782   6.529   0.982   5.105  1.5272 -0.1200  1.2427
12123TIP3   OH257783   1.680   3.672  12.912 -0.1089  0.1225 -0.0090
12123TIP3    H157784   1.712   3.592  12.870  1.6244 -0.0354  1.5020
12123TIP3    H257785   1.733   3.742  12.874  0.1702  0.2136  0.5404
12124TIP3   OH257786   3.010   4.088   1.891 -0.0350 -0.4002  1.0223
12124TIP3    H157787   3.095   4.131   1.891 -0.0855 -0.2461  2.6213
12124TIP3    H257788   2.967   4.121   1.812  1.7834 -1.3743 -0.4287
12125TIP3   OH257789   2.388   0.827   2.546  0.2502  0.2662  0.0214
12125TIP3    H157790   2.434   0.910   2.536 -1.3841  1.1449 -0.5727
12125TIP3    H257791   2.358   0.805   2.458  1.3564 -1.4141  0.0100
12126TIP3   OH257792   2.499   2.959  16.999 -0.4384  0.2520 -0.0584
12126TIP3    H157793   2.447   2.995  17.071 -1.5392  0.0844 -0.7325
12126TIP3    H257794   2.532   2.876  17.032 -1.5221 -0.1568  0.0337
12127TIP3   OH257795   1.068   3.588  10.805  0.4924  0.1389  0.1957
12127TIP3    H157796   1.060   3.495  10.784 -0.0040  0.0166  0.8693
12127TIP3    H257797   1.055   3.591  10.900 -1.5697  1.1134 -0.0615
12128TIP3   OH257798   0.668   0.984  16.040 -0.1932  0.1730  0.8682
12128TIP3    H157799   0.642   0.966  16.130 -0.5799 -0.7479  0.5776
12128TIP3    H257800   0.673   1.080  16.035 -0.5561  0.2414  1.7505
12129TIP3   OH257801   6.444   5.129   2.158  0.2275 -0.0732 -0.3035
12129TIP3    H157802   6.483   5.045   2.184  0.3948  0.8341  2.7577
12129TIP3    H257803   6.350   5.118   2.172  0.1430 -0.0137 -0.7910
12130TIP3   OH257804   4.405   3.683  11.561  0.7373 -0.1911 -0.5631
12130TIP3    H157805   4.392   3.639  11.645  0.3923  0.3532 -0.3249
12130TIP3    H257806   4.498   3.672  11.542  1.1727  1.0202  0.6705
12131TIP3   OH257807   5.914   2.563  10.775  0.2840  0.0268  0.1164
12131TIP3    H157808   5.935   2.594  10.864 -0.3309 -0.4613  0.4392
12131TIP3    H257809   5.948   2.474  10.772  1.2114  0.3760 -0.4986
12132TIP3   OH257810   2.536   5.800   0.268  0.0396  0.2468  0.0401
12132TIP3    H157811   2.490   5.883   0.280 -0.4801  0.4245 -2.6015
12132TIP3    H257812   2.470   5.741   0.232  1.2230 -0.2240 -1.4611
12133TIP3   OH257813   2.928   5.019   2.370  0.2553 -0.2382 -0.1785
12133TIP3    H157814   3.014   5.037   2.408 -0.1137 -0.3211  0.7145
12133TIP3    H257815   2.945   5.010   2.276  1.3108 -0.8096  0.0439
12134TIP3   OH257816   3.795   0.403  12.720 -0.6048  0.6302  0.7400
12134TIP3    H157817   3.753   0.402  12.806 -1.2540  0.5588  0.4333
12134TIP3    H257818   3.888   0.392  12.738 -0.7238  0.7264  1.4383
12135TIP3   OH257819   3.034   2.704  14.413  0.3679 -0.0493  0.1878
12135TIP3    H157820   3.006   2.691  14.503 -1.6614  0.6200 -0.3010
12135TIP3    H257821   2.984   2.780  14.382  1.9633  0.5592 -1.1253
12136TIP3   OH257822   1.767   5.245   1.155 -0.4671  0.0492  0.1867
12136TIP3    H157823   1.787   5.165   1.203  0.9813 -0.4164 -1.0819
12136TIP3    H257824   1.779   5.315   1.219 -0.2382 -0.6492  0.9305
12137TIP3   OH257825   6.283   2.954   6.035  0.4973 -0.6975 -0.3996
12137TIP3    H157826   6.195   2.980   6.061  0.5621 -1.5027  0.6909
12137TIP3    H257827   6.328   3.036   6.015  0.6778  0.1198  2.8177
12138TIP3   OH257828   5.321   6.019   5.550  0.8219 -0.1109  0.1286
12138TIP3    H157829   5.332   5.939   5.499  0.8773  0.0381 -0.0918
12138TIP3    H257830   5.347   5.994   5.639  0.1687 -0.5256  0.2114
12139TIP3   OH257831   3.983   2.842  12.040  0.3376 -0.5728 -0.8589
12139TIP3    H157832   3.915   2.858  11.975  0.8914  1.5285 -1.0061
12139TIP3    H257833   3.957   2.895  12.115  0.4128 -1.9118  0.1552
12140TIP3   OH257834   4.286   0.063   5.368 -0.1336 -0.1573  0.1566
12140TIP3    H157835   4.208   0.117   5.356  0.8368  1.6489  1.4215
12140TIP3    H257836   4.331   0.067   5.284 -1.4607 -1.4053 -0.6615
12141TIP3   OH257837   6.384   6.226   4.346  0.4842 -0.1902  0.3876
12141TIP3    H157838   6.316   6.292   4.337  1.1063  0.8563  2.5272
12141TIP3    H257839   6.349   6.148   4.303 -1.4248  0.7311  0.1828
12142TIP3   OH257840   5.091   2.833  16.044 -0.1601 -0.6455  0.0077
12142TIP3    H157841   5.109   2.927  16.041 -2.3803 -0.1568  0.1852
12142TIP3    H257842   5.016   2.821  15.986 -2.3228 -1.6374  2.7869
12143TIP3   OH257843   6.021   0.493  17.070  0.0066 -0.4350  0.3957
12143TIP3    H157844   5.991   0.580  17.047 -0.8479 -0.6252  0.7652
12143TIP3    H257845   6.033   0.448  16.987  2.5837  0.6917  0.0534
12144TIP3   OH257846   0.870   3.488   6.588  0.3402  0.1324 -0.1412
12144TIP3    H157847   0.827   3.542   6.522 -0.5347  2.2176  1.9658
12144TIP3    H257848   0.962   3.489   6.564  0.0511  0.8516 -1.2931
12145TIP3   OH257849   4.421   1.316   3.131  0.5930 -0.3245 -0.2115
12145TIP3    H157850   4.347   1.359   3.088  1.8263 -0.5078 -2.6979
12145TIP3    H257851   4.397   1.315   3.224 -1.4588  1.6751 -0.6197
12146TIP3   OH257852   0.872   5.164   0.804 -0.5456 -0.0459 -0.1069
12146TIP3    H157853   0.949   5.161   0.860 -0.6380 -0.0981  0.0191
12146TIP3    H257854   0.814   5.098   0.840 -1.2854  1.0221  0.7453
12147TIP3   OH257855   1.108   2.517   2.436  0.3450 -0.0500 -0.3603
12147TIP3    H157856   1.148   2.430   2.433  0.7080  0.0629  0.7895
12147TIP3    H257857   1.182   2.577   2.437  0.1363  0.2067  0.3971
12148TIP3   OH257858   2.143   6.564  11.112 -0.1418  0.0882 -0.5184
12148TIP3    H157859   2.145   6.469  11.097  0.8942  0.2654 -1.7093
12148TIP3    H257860   2.196   6.600  11.041 -0.3442  1.5530  0.0437
12149TIP3   OH257861   3.595   5.366  15.189  0.2148  0.0591  1.2236
12149TIP3    H157862   3.589   5.461  15.184 -1.5158  0.0628  2.6629
12149TIP3    H257863   3.579   5.336  15.100 -1.4487  1.0568  1.1476
12150TIP3   OH257864   1.858   5.353   4.981  0.8926  0.9025  0.3052
12150TIP3    H157865   1.835   5.444   4.962  2.1531  0.9621 -1.0830
12150TIP3    H257866   1.785   5.302   4.946 -0.3082  1.3724  1.9738
12151TIP3   OH257867   0.337   0.396   3.963  0.1122  0.1773  0.1490
12151TIP3    H157868   0.411   0.339   3.942  0.1154  0.6148 -1.1387
12151TIP3    H257869   0.350   0.473   3.907 -1.9598 -0.2610 -1.0573
12152TIP3   OH257870   4.966   4.177   3.951  0.2812 -0.1746  0.3766
12152TIP3    H157871   4.909   4.199   4.025 -0.1300 -0.7332  0.2363
12152TIP3    H257872   4.977   4.082   3.957  1.1526 -0.0759  0.3628
12153TIP3   OH257873   5.115   3.573  12.366 -0.2125  0.1392 -0.1461
12153TIP3    H157874   5.163   3.642  12.411  0.2522  0.7057 -1.4518
12153TIP3    H257875   5.085   3.614  12.285 -1.4527 -0.7038 -0.1303
12154TIP3   OH257876   4.297   2.268  12.097 -0.1297 -0.1260  0.1443
12154TIP3    H157877   4.312   2.311  12.181  0.4890  0.5432 -0.2913
12154TIP3    H257878   4.204   2.279  12.081 -0.0423  0.8381  0.1830
12155TIP3   OH257879   5.922   6.095  17.385 -0.0425  0.1112  0.0260
12155TIP3    H157880   5.878   6.073  17.467 -1.8411  0.5253 -0.7802
12155TIP3    H257881   5.857   6.076  17.317  0.1156  2.9737 -1.0633
12156TIP3   OH257882   5.928   2.959   5.491  0.3635 -0.1543 -0.3515
12156TIP3    H157883   5.992   2.993   5.429 -0.0601 -1.1034 -1.3605
12156TIP3    H257884   5.844   2.969   5.446  0.0058 -0.5231  0.2197
12157TIP3   OH257885   1.706   4.385   1.901 -0.4139 -0.4869  0.5306
12157TIP3    H157886   1.772   4.397   1.833  0.6220  0.2548  1.6311
12157TIP3    H257887   1.639   4.450   1.880  0.8395  1.1283  1.2883
12158TIP3   OH257888   2.735   4.513  15.879 -0.2677  0.0563  0.6135
12158TIP3    H157889   2.819   4.525  15.923 -2.0069  1.4424  3.8447
12158TIP3    H257890   2.731   4.419  15.860  1.8221 -0.0861  0.6564
12159TIP3   OH257891   5.083   5.951  12.861 -1.0585  0.0078 -0.5867
12159TIP3    H157892   5.164   5.989  12.893 -0.0122 -1.5471 -1.2584
12159TIP3    H257893   5.103   5.858  12.850 -3.4871 -0.7925  1.0235
12160TIP3   OH257894   2.507   1.600  17.450 -0.3161 -0.0963 -0.0001
12160TIP3    H157895   2.516   1.597  17.355 -0.0909 -0.9939  0.0385
12160TIP3    H257896   2.552   1.679  17.477  0.5564 -0.4001 -0.5465
12161TIP3   OH257897   3.156   6.421  17.237 -0.4435  0.6116 -0.7976
12161TIP3    H157898   3.195   6.417  17.324  2.0032  1.4779 -1.7792
12161TIP3    H257899   3.100   6.343  17.232  0.8821 -0.5038  0.8586
12162TIP3   OH257900   3.909   5.435   2.123  0.1629  0.1370  0.0976
12162TIP3    H157901   3.973   5.387   2.071  0.3040  0.1670  0.2414
12162TIP3    H257902   3.836   5.374   2.134  0.9384 -0.5842  1.4851
12163TIP3   OH257903   3.844   0.270  17.598 -0.3484 -0.4994 -0.1259
12163TIP3    H157904   3.813   0.319  17.522 -1.1581 -0.3987  0.2528
12163TIP3    H257905   3.917   0.322  17.632  0.3303 -0.7896 -1.0962
12164TIP3   OH257906   5.050   0.279   0.510  0.4500  0.2507  0.7140
12164TIP3    H157907   5.019   0.311   0.595 -0.9286  2.0993 -0.4134
12164TIP3    H257908   5.032   0.351   0.450  2.0482 -0.7459 -1.0383
12165TIP3   OH257909   4.685   6.447   5.958  0.0925 -0.3403  0.4417
12165TIP3    H157910   4.595   6.479   5.968 -0.1497  1.0342 -3.7820
12165TIP3    H257911   4.675   6.359   5.921  0.5736 -1.0631  1.9881
12166TIP3   OH257912   5.538   4.869  12.774  0.2171 -0.0490 -0.1416
12166TIP3    H157913   5.546   4.774  12.760 -0.3522  0.2108 -2.8531
12166TIP3    H257914   5.622   4.895  12.811  1.7464 -1.1870 -2.5303
12167TIP3   OH257915   2.062   3.553  15.181 -0.0799 -0.2065  0.0033
12167TIP3    H157916   2.106   3.598  15.253  2.9533  0.0219 -1.8284
12167TIP3    H257917   2.014   3.622  15.135  0.7382  0.3031 -0.1048
12168TIP3   OH257918   1.598   4.942  15.096  0.0661  0.3054  0.0821
12168TIP3    H157919   1.594   4.853  15.131 -2.2342 -0.5515 -2.0776
12168TIP3    H257920   1.663   4.938  15.027  1.5509  0.9296  1.3842
12169TIP3   OH257921   6.532   2.158   2.911 -0.8155 -0.3502  0.0727
12169TIP3    H157922   6.574   2.243   2.899  0.4827 -0.5200  2.7235
12169TIP3    H257923   6.438   2.177   2.906 -0.5462  0.7741 -1.7159
12170TIP3   OH257924   3.683   3.308   0.533  0.1905  0.2514  0.0606
12170TIP3    H157925   3.737   3.340   0.461 -1.0855  0.4363 -0.8503
12170TIP3    H257926   3.611   3.371   0.540 -1.2064 -1.2111 -0.3486
12171TIP3   OH257927   4.290   2.100   4.028 -0.4274  0.4775 -0.0597
12171TIP3    H157928   4.380   2.092   4.062 -0.2896  0.1964 -0.4800
12171TIP3    H257929   4.278   2.021   3.976  0.1942  1.9371 -2.5965
12172TIP3   OH257930   6.258   3.161   2.122 -0.2430  0.3960  0.1675
12172TIP3    H157931   6.312   3.181   2.198 -1.4305  2.6656  0.5096
12172TIP3    H257932   6.204   3.086   2.150  0.8694 -0.2258  0.7177
12173TIP3   OH257933   4.037   4.086  11.785 -0.0187 -0.0752  0.5136
12173TIP3    H157934   3.988   4.060  11.863  0.2784  1.3396  1.2069
12173TIP3    H257935   4.076   4.170  11.808  0.3189  0.2386 -1.0718
12174TIP3   OH257936   1.277   3.438  16.603  0.0344  0.4057  0.0501
12174TIP3    H157937   1.270   3.406  16.513 -1.1881  1.1669 -0.1532
12174TIP3    H257938   1.288   3.359  16.655 -0.2531 -0.1279 -0.6735
12175TIP3   OH257939   4.559   5.640  15.734 -0.6403  0.0631  0.0052
12175TIP3    H157940   4.542   5.696  15.659 -2.8199  0.4367  0.6969
12175TIP3    H257941   4.565   5.700  15.808  1.4827 -0.2963  0.1861
12176TIP3   OH257942   0.242   0.635  16.620 -0.0687 -0.1163 -0.1605
12176TIP3    H157943   0.333   0.665  16.613  0.1912 -0.6827  0.5745
12176TIP3    H257944   0.233   0.612  16.713 -0.7099 -0.8621 -0.4091
12177TIP3   OH257945   1.364   3.528   2.931 -0.1875  0.0509 -0.4529
12177TIP3    H157946   1.358   3.555   3.023  1.3124 -0.7410 -0.0934
12177TIP3    H257947   1.278   3.491   2.911 -0.4775  0.0833  0.6760
12178TIP3   OH257948   4.709   1.580   3.753  0.3902  0.7785 -0.2614
12178TIP3    H157949   4.736   1.645   3.689  0.5539  1.2471  0.2668
12178TIP3    H257950   4.618   1.561   3.731  0.4381  0.9558 -0.6171
12179TIP3   OH257951   0.665   5.222  16.946 -0.3002  0.7327 -0.3754
12179TIP3    H157952   0.648   5.245  16.854  1.4229  1.9128 -0.4562
12179TIP3    H257953   0.684   5.306  16.988 -0.7115  0.1622  1.0022
12180TIP3   OH257954   3.297   5.188  17.007 -0.3921 -0.2810  0.1223
12180TIP3    H157955   3.371   5.243  17.035 -0.5857 -0.5082  1.1145
12180TIP3    H257956   3.223   5.220  17.058 -1.0410  0.0680 -1.0029
12181TIP3   OH257957   3.331   1.425   3.451  0.2675 -0.3988  0.0402
12181TIP3    H157958   3.237   1.412   3.439  0.1768 -0.8989  1.1239
12181TIP3    H257959   3.372   1.348   3.410  0.1883 -0.3351 -0.1592
12182TIP3   OH257960   2.403   1.101  15.565  0.6384 -0.3356 -0.1592
12182TIP3    H157961   2.359   1.033  15.515 -0.5237 -1.1973  1.9121
12182TIP3    H257962   2.495   1.074  15.566  0.7704 -0.0940 -2.0502
12183TIP3   OH257963   5.980   0.451  16.078 -0.3166  0.4618 -0.4662
12183TIP3    H157964   5.912   0.431  16.142 -0.4026  0.0180 -0.6956
12183TIP3    H257965   5.934   0.458  15.995  0.0394 -0.7233 -0.7723
12184TIP3   OH257966   5.968   5.413  16.845  0.0808  0.2498  0.2359
12184TIP3    H157967   5.929   5.469  16.778 -1.9911  0.3279  1.4018
12184TIP3    H257968   5.946   5.456  16.928  0.6095 -0.9915  1.0581
12185TIP3   OH257969   3.057   2.118   5.012  0.6889  0.1532  0.0862
12185TIP3    H157970   2.991   2.167   5.062 -0.4779 -0.4854 -0.7708
12185TIP3    H257971   3.121   2.184   4.985  1.5951  0.4664  2.7064
12186TIP3   OH257972   1.813   1.230   1.023 -0.1401 -0.0107  0.1169
12186TIP3    H157973   1.807   1.253   1.115 -0.0296  1.5527 -0.2387
12186TIP3    H257974   1.852   1.307   0.981  3.2657 -1.9728 -0.7229
12187TIP3   OH257975   5.478   5.123   5.672  0.0977  1.0330 -0.0245
12187TIP3    H157976   5.460   5.199   5.618 -0.3112  0.8225 -0.1883
12187TIP3    H257977   5.516   5.159   5.753 -1.6773  1.5511  0.6238
12188TIP3   OH257978   0.746   0.273   4.696  0.0344 -0.0182  0.3846
12188TIP3    H157979   0.769   0.180   4.693 -0.3902 -0.1005 -0.8089
12188TIP3    H257980   0.669   0.276   4.752 -0.4178 -0.4993 -0.1966
12189TIP3   OH257981   0.127   0.174   4.979 -0.6494  0.3915 -0.3399
12189TIP3    H157982   0.063   0.126   5.031 -1.5210 -0.3029 -1.9924
12189TIP3    H257983   0.151   0.115   4.908  2.1229  0.4886  0.3679
12190TIP3   OH257984   4.542   6.684   0.804  0.4201 -0.0941  0.0136
12190TIP3    H157985   4.543   6.595   0.769 -0.5304 -0.8265  1.7413
12190TIP3    H257986   4.623   6.723   0.771  1.6605 -2.1167  0.5117
12191TIP3   OH257987   2.858   5.839   2.765  0.9156 -0.0058 -0.4205
12191TIP3    H157988   2.827   5.766   2.711  2.3329 -0.2047 -1.0106
12191TIP3    H257989   2.925   5.800   2.822 -0.7087  0.1386  1.7379
12192TIP3   OH257990   2.993   1.523   0.555 -0.2324 -0.6381  0.1001
12192TIP3    H157991   3.004   1.507   0.461  0.2172 -1.2435  0.2499
12192TIP3    H257992   3.066   1.581   0.578 -0.3964 -0.4135  0.0645
12193TIP3   OH257993   4.849   4.508  13.329  0.0239  0.1203  0.1924
12193TIP3    H157994   4.894   4.508  13.245 -3.1737  1.6488 -1.7163
12193TIP3    H257995   4.798   4.428  13.330  0.8003 -0.3845  1.1861
12194TIP3   OH257996   4.092   5.187  12.296  0.0634 -0.4125  0.0238
12194TIP3    H157997   4.100   5.281  12.281  2.9837 -0.6125 -0.2459
12194TIP3    H257998   4.173   5.163  12.341 -0.1738 -2.9504 -0.7563
12195TIP3   OH257999   6.058   2.123  17.094 -0.1849  0.4769 -0.0583
12195TIP3    H158000   6.036   2.032  17.074  0.0497 -0.0038  1.7719
12195TIP3    H258001   6.123   2.118  17.164  0.7030  2.0420 -0.7163
12196TIP3   OH258002   2.109   3.632  14.384  0.2007 -0.0107  0.4909
12196TIP3    H158003   2.083   3.612  14.294  0.6984 -2.1489  0.7868
12196TIP3    H258004   2.055   3.576  14.439  1.7880 -0.7643  1.3618
12197TIP3   OH258005   0.791   1.465   6.381 -0.0845 -0.2229  0.0808
12197TIP3    H158006   0.821   1.556   6.385  1.8912 -0.8154 -0.1634
12197TIP3    H258007   0.816   1.428   6.465 -0.5270 -0.6528  0.0239
12198TIP3   OH258008   0.183   6.022  14.124 -0.2613 -0.3362  0.4951
12198TIP3    H158009   0.179   5.983  14.211 -2.9613 -1.6806 -0.1266
12198TIP3    H258010   0.097   6.006  14.086  1.4563 -1.8899 -3.3469
12199TIP3   OH258011   5.751   1.658   1.726 -0.4228  0.2537 -0.3088
12199TIP3    H158012   5.755   1.565   1.751  0.1031 -0.0918 -1.6148
12199TIP3    H258013   5.745   1.704   1.810  0.5173 -0.9019  0.4391
12200TIP3   OH258014   0.792   2.667  12.929 -0.3709  0.0811  0.4462
12200TIP3    H158015   0.829   2.579  12.930 -2.7147 -0.9760  1.4938
12200TIP3    H258016   0.852   2.717  12.873  1.4892 -1.9276  0.4759
12201TIP3   OH258017   0.159   1.918  12.584  0.2483  0.3116  0.5149
12201TIP3    H158018   0.132   1.925  12.493  1.3824  0.5200  0.1904
12201TIP3    H258019   0.251   1.945  12.585  0.0995  0.8777  1.8059
12202TIP3   OH258020   4.677   1.849   3.830 -0.6669  0.6306  0.1660
12202TIP3    H158021   4.605   1.874   3.772 -2.1537  0.2702  1.7871
12202TIP3    H258022   4.666   1.755   3.844 -0.5549  0.7739  1.3188
12203TIP3   OH258023   1.294   0.026   2.860  0.3837 -0.2547 -0.5477
12203TIP3    H158024   1.364  -0.037   2.879 -1.1770 -1.7923  0.3439
12203TIP3    H258025   1.331   0.082   2.792  3.0569 -0.0203  0.9275
12204TIP3   OH258026   4.080   2.485   1.996 -0.2463  0.1123  0.3039
12204TIP3    H158027   4.034   2.465   1.914 -1.4746  2.8098  0.2492
12204TIP3    H258028   4.154   2.539   1.970  0.4149 -0.5163  0.8334
12205TIP3   OH258029   4.265   0.417   0.751  0.1398 -0.0309  0.6098
12205TIP3    H158030   4.293   0.344   0.806  0.7905 -0.0772  0.2360
12205TIP3    H258031   4.228   0.376   0.673 -1.9066  0.0099  1.4918
12206TIP3   OH258032   1.001   2.826   2.975  0.2391 -0.2354  0.3854
12206TIP3    H158033   1.077   2.837   2.918 -1.6000  2.1591 -1.8529
12206TIP3    H258034   1.035   2.839   3.063  2.3848  1.0957 -0.5571
12207TIP3   OH258035   3.179   6.186  16.960 -0.1405 -0.1313  0.2264
12207TIP3    H158036   3.246   6.154  16.900 -0.4220  0.2378 -0.2904
12207TIP3    H258037   3.158   6.110  17.015 -0.8169 -0.8706 -0.9999
12208TIP3   OH258038   0.515   6.060   2.444 -0.1088  0.3535  0.6758
12208TIP3    H158039   0.532   6.123   2.514  0.7592  1.1440 -0.2085
12208TIP3    H258040   0.600   6.045   2.403 -0.8591  1.6294 -1.5853
12209TIP3   OH258041   2.756   6.446  13.759  0.5201  0.4225  0.0348
12209TIP3    H158042   2.749   6.350  13.756  2.3808  0.2105  1.1009
12209TIP3    H258043   2.709   6.471  13.838 -0.4760  0.4779 -0.5548
12210TIP3   OH258044   4.099   3.964   4.725 -0.9654  0.3634  0.1444
12210TIP3    H158045   4.080   4.032   4.661  0.8751  1.8068  1.0362
12210TIP3    H258046   4.063   3.884   4.687  1.6884  0.7219 -3.7057
12211TIP3   OH258047   1.384   2.288   5.388 -0.5021  0.6740 -0.5405
12211TIP3    H158048   1.435   2.360   5.353  1.5936 -1.1526 -1.4647
12211TIP3    H258049   1.350   2.320   5.472  0.2096  2.7356 -0.9942
12212TIP3   OH258050   5.370   1.899  14.339  0.0780 -0.4210  0.5595
12212TIP3    H158051   5.394   1.940  14.255 -0.3717  0.4983  0.8623
12212TIP3    H258052   5.293   1.847  14.319 -1.5034  1.6733  0.8228
12213TIP3   OH258053   1.212   1.372  14.268 -0.2800 -0.1610  0.2620
12213TIP3    H158054   1.198   1.299  14.328  2.6137 -2.3252 -1.4464
12213TIP3    H258055   1.124   1.399  14.241 -1.4667 -2.4781  1.5541
12214TIP3   OH258056   1.642   4.040  13.421 -0.2493  0.3346 -0.5237
12214TIP3    H158057   1.681   4.029  13.508 -1.1448 -1.0909 -0.2747
12214TIP3    H258058   1.711   4.083  13.370  1.2268 -1.0092  0.2316
12215TIP3   OH258059   3.670   4.006   5.718  0.3959  0.4908 -0.2442
12215TIP3    H158060   3.725   3.931   5.741  0.6573  0.6132 -0.4594
12215TIP3    H258061   3.648   3.992   5.626  0.0020  0.4039 -0.1382
12216TIP3   OH258062   2.048   5.531   3.379 -0.2263  0.0221  0.6488
12216TIP3    H158063   2.103   5.563   3.450  0.9835 -1.3518  0.3891
12216TIP3    H258064   2.066   5.590   3.306 -1.6941  1.6192  1.5008
12217TIP3   OH258065   2.738   4.581   4.719  0.2063  0.5040 -0.2838
12217TIP3    H158066   2.828   4.547   4.722 -0.1206 -0.3924 -0.2801
12217TIP3    H258067   2.701   4.556   4.803 -0.4646 -0.3483 -0.8130
12218TIP3   OH258068   5.386   2.774  14.050 -0.1630  0.4418 -0.0163
12218TIP3    H158069   5.378   2.761  13.955 -1.6389 -1.7948  0.3249
12218TIP3    H258070   5.305   2.737  14.086 -0.2034  2.3506  2.0707
12219TIP3   OH258071   5.453   0.718  13.837  0.2198 -0.2923  0.1707
12219TIP3    H158072   5.416   0.635  13.868  0.2160  0.0178  1.0293
12219TIP3    H258073   5.503   0.751  13.912 -0.3219  0.8022  0.0672
12220TIP3   OH258074   4.487   5.283  14.107  0.0410 -0.1519  0.3766
12220TIP3    H158075   4.482   5.320  14.019 -0.6439 -0.9384  0.0735
12220TIP3    H258076   4.402   5.303  14.147  0.8574  1.4547  1.3896
12221TIP3   OH258077   0.681   2.895  15.916 -0.7413  0.1530 -0.5191
12221TIP3    H158078   0.694   2.808  15.879 -0.0632  0.5230 -1.1992
12221TIP3    H258079   0.764   2.940  15.899 -1.3610  1.1804 -0.8848
12222TIP3   OH258080   3.816   1.700  17.013 -0.7860 -0.3283  0.0658
12222TIP3    H158081   3.721   1.711  17.022 -0.7887 -1.2389  1.6126
12222TIP3    H258082   3.826   1.617  16.968 -0.6855  1.6124 -3.8902
12223TIP3   OH258083   4.258   6.395  17.410 -0.1364  0.2123  0.3774
12223TIP3    H158084   4.225   6.473  17.365 -0.3533 -0.1908 -0.1733
12223TIP3    H258085   4.317   6.429  17.478  0.5515  0.8109 -0.5040
12224TIP3   OH258086   4.899   4.687  11.821 -0.3398  0.2037  0.2030
12224TIP3    H158087   4.848   4.624  11.872 -0.2344 -0.6673 -0.7174
12224TIP3    H258088   4.990   4.665  11.841 -0.2835 -0.5549 -0.7969
12225TIP3   OH258089   5.479   2.025   4.832  0.0665 -0.1679 -0.0958
12225TIP3    H158090   5.407   1.964   4.818 -1.0236  0.8802  0.7639
12225TIP3    H258091   5.476   2.085   4.758 -0.6760  0.5564  0.5063
12226TIP3   OH258092   2.586   0.810   1.989 -0.0255 -0.2436  0.2816
12226TIP3    H158093   2.574   0.840   1.899 -1.0922 -0.5323  0.3109
12226TIP3    H258094   2.577   0.889   2.042  2.4834  0.2761  0.0627
12227TIP3   OH258095   3.543   2.040   0.342  0.3434 -0.1097  0.2423
12227TIP3    H158096   3.599   2.097   0.289  1.7696 -0.9374  0.8011
12227TIP3    H258097   3.460   2.039   0.296  1.7655 -1.4869 -2.5580
12228TIP3   OH258098   5.890   2.386  17.522  0.2156  0.4477 -0.7899
12228TIP3    H158099   5.913   2.424  17.437  2.5576  1.6012  0.2749
12228TIP3    H258100   5.953   2.315  17.534 -0.9932 -0.6292 -0.5769
12229TIP3   OH258101   2.499   0.516   1.608  0.3885  0.3561  0.0227
12229TIP3    H158102   2.440   0.591   1.598  1.7359  1.5208  0.4938
12229TIP3    H258103   2.450   0.453   1.660  0.6969  2.6898  3.4409
12230TIP3   OH258104   2.753   6.102  13.397 -0.4300  0.2014  0.2257
12230TIP3    H158105   2.780   6.018  13.360 -1.9118 -0.0275 -0.3974
12230TIP3    H258106   2.833   6.155  13.395  0.1200 -0.6198 -0.9593
12231TIP3   OH258107   2.620   1.681   0.448  0.4622 -0.3352 -0.8054
12231TIP3    H158108   2.673   1.638   0.382 -0.4361 -2.9765  0.0493
12231TIP3    H258109   2.532   1.646   0.435  0.0989 -0.3509  1.2561
12232TIP3   OH258110   2.335   1.975  17.207 -0.1051  0.4288  0.3500
12232TIP3    H158111   2.410   1.964  17.149  0.5740 -1.1764  1.4831
12232TIP3    H258112   2.279   2.039  17.161  1.0035  0.1946 -1.4295
12233TIP3   OH258113   2.173   3.176  14.817  0.0810 -0.5001  0.4597
12233TIP3    H158114   2.269   3.175  14.812  0.1430 -1.2398  1.5940
12233TIP3    H258115   2.151   3.267  14.840  0.6029 -0.6471  1.5937
12234TIP3   OH258116   6.069   3.696  16.227 -0.2797 -0.2584  0.0681
12234TIP3    H158117   6.002   3.698  16.158  1.5943 -2.1840 -1.9716
12234TIP3    H258118   6.131   3.765  16.202 -0.1068 -0.3027  0.3743
12235TIP3   OH258119   4.221   0.797  15.303  0.3817  0.0612 -0.1969
12235TIP3    H158120   4.276   0.845  15.365 -0.0866 -1.1484  1.2068
12235TIP3    H258121   4.250   0.828  15.217 -1.4936  4.6839  0.5245
12236TIP3   OH258122   5.051   3.818   1.267  0.4578  0.6702  0.4480
12236TIP3    H158123   5.063   3.764   1.345 -1.0768 -0.4499 -0.0491
12236TIP3    H258124   4.963   3.797   1.236  0.1194  2.8259 -0.2788
12237TIP3   OH258125   3.151   2.248  11.720  0.5033  0.0207  0.3149
12237TIP3    H158126   3.168   2.154  11.711 -1.7445 -0.3412 -0.9619
12237TIP3    H258127   3.063   2.253  11.758  0.1159  1.5761 -0.6885
12238TIP3   OH258128   3.337   3.199   0.927  0.8205 -0.1516  0.3612
12238TIP3    H158129   3.404   3.253   0.885  0.3346 -0.2976 -0.6144
12238TIP3    H258130   3.354   3.110   0.894 -0.7567  0.0359 -1.1049
12239TIP3   OH258131   2.127   5.494  14.568 -0.5177  0.7676 -0.4105
12239TIP3    H158132   2.051   5.541  14.603 -0.4646 -0.2151  1.1157
12239TIP3    H258133   2.117   5.404  14.600  0.2840  0.1373 -1.8141
12240TIP3   OH258134   6.026   5.158  16.903 -0.2520 -0.3143 -0.6356
12240TIP3    H158135   5.983   5.238  16.873 -0.0341 -0.2531 -0.7855
12240TIP3    H258136   6.095   5.189  16.962 -0.5760 -0.4247 -0.1964
12241TIP3   OH258137   0.975   0.171   0.189 -0.7690 -0.3882  0.0304
12241TIP3    H158138   0.938   0.101   0.244  0.4879 -1.3737 -0.3164
12241TIP3    H258139   0.988   0.244   0.249 -1.4216 -0.7026  0.5717
12242TIP3   OH258140   1.932   4.202   6.646  0.0382  0.5041 -0.5822
12242TIP3    H158141   1.996   4.166   6.707  0.2114  1.3613 -0.2383
12242TIP3    H258142   1.961   4.173   6.560 -0.3706 -0.9700 -0.2489
12243TIP3   OH258143   1.367   0.186  16.481 -0.4397  0.9338 -0.1001
12243TIP3    H158144   1.321   0.185  16.397 -0.2479  0.9116 -0.2050
12243TIP3    H258145   1.446   0.238  16.465  2.0326 -2.7385 -1.2469
12244TIP3   OH258146   1.589   6.227   4.676  0.4838  0.4448  0.1150
12244TIP3    H158147   1.658   6.245   4.740  1.8632 -0.0653 -1.1858
12244TIP3    H258148   1.599   6.295   4.610  0.7440 -0.5051 -0.8521
12245TIP3   OH258149   4.423   0.450   3.535  0.1630  0.4773  0.5299
12245TIP3    H158150   4.477   0.444   3.456 -2.6889 -3.4723 -1.4537
12245TIP3    H258151   4.337   0.476   3.503 -1.2402 -1.8306  2.1287
12246TIP3   OH258152   5.620   6.318   0.738 -0.0778  0.1581 -0.2987
12246TIP3    H158153   5.706   6.300   0.701  0.1986 -0.2087  0.4877
12246TIP3    H258154   5.638   6.375   0.813 -0.4659 -0.2947  0.1452
12247TIP3   OH258155   2.895   3.417   6.337 -0.2520  0.1972 -0.7038
12247TIP3    H158156   2.910   3.460   6.421  1.5146  0.3634 -1.0597
12247TIP3    H258157   2.862   3.330   6.360 -0.6945  0.5677  0.1154
12248TIP3   OH258158   2.372   3.023  17.235  0.5785 -0.1060  0.1710
12248TIP3    H158159   2.304   3.082  17.203  0.0385 -0.5168  0.5607
12248TIP3    H258160   2.336   2.985  17.315  1.6649  0.4354  0.9499
12249TIP3   OH258161   2.685   4.454  13.912 -0.2654  0.2139 -0.4379
12249TIP3    H158162   2.692   4.396  13.988 -1.5321  1.4771  0.6909
12249TIP3    H258163   2.752   4.520  13.926 -0.5161  0.4616 -0.3852
12250TIP3   OH258164   2.539   3.462   1.444  0.2738  0.6100  0.5316
12250TIP3    H158165   2.459   3.435   1.400  0.0151  1.3400  0.5561
12250TIP3    H258166   2.530   3.428   1.533  1.0991 -1.4780 -0.1093
12251TIP3   OH258167   6.169   3.328  14.238 -0.0693 -0.4286  0.0816
12251TIP3    H158168   6.090   3.274  14.238 -0.3192 -0.0643  0.2912
12251TIP3    H258169   6.186   3.346  14.331 -1.5079  2.0570 -0.0514
12252TIP3   OH258170   4.882   0.499  12.280 -0.0803 -0.1069 -0.3852
12252TIP3    H158171   4.895   0.516  12.187 -0.6121  0.2398 -0.3996
12252TIP3    H258172   4.933   0.420  12.297 -0.0925 -0.2541 -1.0018
12253TIP3   OH258173   2.628   2.928  12.577  0.0961 -0.4205 -0.5744
12253TIP3    H158174   2.587   2.905  12.660  3.0955 -1.4760  0.7615
12253TIP3    H258175   2.664   3.015  12.591  2.4278 -1.4102  0.1071
12254TIP3   OH258176   3.298   3.790   6.091  0.0695 -0.9365 -0.7735
12254TIP3    H158177   3.343   3.706   6.083 -0.4253 -1.2599 -0.2652
12254TIP3    H258178   3.366   3.855   6.074  0.7896 -1.4001  0.2240
12255TIP3   OH258179   3.430   2.608  15.490  0.1209  0.4175  0.2310
12255TIP3    H158180   3.439   2.640  15.580 -1.7790  0.1804  0.5537
12255TIP3    H258181   3.375   2.530  15.498  1.1679 -0.4884 -0.9993
12256TIP3   OH258182   2.986   6.659  12.925  0.3630  0.1970  0.2172
12256TIP3    H158183   3.041   6.681  12.850 -0.6300 -0.7801 -0.8396
12256TIP3    H258184   3.034   6.588  12.969 -0.0341 -0.6941 -0.7329
12257TIP3   OH258185   4.886   3.804   4.218 -0.3517 -0.2134  0.2178
12257TIP3    H158186   4.879   3.832   4.309  0.3541 -1.6913  0.7529
12257TIP3    H258187   4.796   3.781   4.193 -0.5973  0.4929  0.4258
12258TIP3   OH258188   2.438   5.492   6.106 -0.4159 -0.3918  0.6057
12258TIP3    H158189   2.417   5.499   6.199  1.1164  0.3389  0.9257
12258TIP3    H258190   2.518   5.440   6.104 -0.6633 -0.7481 -0.3416
12259TIP3   OH258191   0.828   6.486  13.143  0.3775 -0.2820 -0.4934
12259TIP3    H158192   0.914   6.451  13.122 -0.0574 -0.6387 -1.7928
12259TIP3    H258193   0.789   6.421  13.201  1.2083  0.2009  0.6435
12260TIP3   OH258194   0.460   5.151   6.173  0.0297 -0.0562  0.5050
12260TIP3    H158195   0.533   5.204   6.204  0.9082  1.0984 -3.1234
12260TIP3    H258196   0.401   5.147   6.248  1.3650  3.4647  1.9833
12261TIP3   OH258197   1.849   0.136  12.777 -0.0746  0.1241 -0.1544
12261TIP3    H158198   1.938   0.152  12.808  0.1726  1.9321 -1.6011
12261TIP3    H258199   1.801   0.216  12.800 -0.7279  0.0928 -1.2996
12262TIP3   OH258200   4.318   3.598  12.954  0.2939 -0.0723 -0.0567
12262TIP3    H158201   4.379   3.628  12.887  2.1007 -1.3820  0.8768
12262TIP3    H258202   4.351   3.638  13.035  0.0418 -0.9322  0.4898
12263TIP3   OH258203   1.550   4.054  11.991  0.3208  0.7072  0.5881
12263TIP3    H158204   1.498   3.999  11.932  0.7427 -0.7813  1.5486
12263TIP3    H258205   1.625   4.081  11.938 -1.5213  3.2398 -0.9571
12264TIP3   OH258206   6.606   6.003   5.025  0.0561 -0.0834 -1.1375
12264TIP3    H158207   6.648   5.939   5.084 -0.2672  0.2350 -0.5495
12264TIP3    H258208   6.515   5.974   5.020 -0.2062  0.5840 -0.4893
12265TIP3   OH258209   0.530   5.815  12.340  0.5506  0.2237  0.2076
12265TIP3    H158210   0.436   5.798  12.343  0.4776  0.6764  0.5554
12265TIP3    H258211   0.548   5.829  12.247  0.5814 -1.4706 -0.0829
12266TIP3   OH258212   1.063   1.185  13.109 -0.7539 -0.0501 -0.1153
12266TIP3    H158213   1.013   1.245  13.165 -1.1942 -0.8812  0.4025
12266TIP3    H258214   1.153   1.190  13.143 -1.0501 -0.6762  0.7857
12267TIP3   OH258215   4.164   0.336   6.045  0.1582 -0.1265 -0.0770
12267TIP3    H158216   4.203   0.414   6.084 -1.0235  1.8195 -2.4166
12267TIP3    H258217   4.087   0.318   6.099  2.3195 -2.0351  2.6368
12268TIP3   OH258218   3.100   4.202   5.789 -0.7560 -0.1742  0.2299
12268TIP3    H158219   3.026   4.225   5.845 -1.9249 -0.0408 -1.3040
12268TIP3    H258220   3.167   4.267   5.809 -1.4932  0.4159  0.8103
12269TIP3   OH258221   4.685   2.703   4.360  0.7707  0.1372  0.6199
12269TIP3    H158222   4.707   2.758   4.284  1.0382 -1.1366 -0.2471
12269TIP3    H258223   4.766   2.655   4.378 -0.4110 -2.6739 -0.9538
12270TIP3   OH258224   4.724   0.980  17.250 -0.1818 -0.6674  0.1000
12270TIP3    H158225   4.785   0.949  17.183  0.0150  0.2921 -0.1816
12270TIP3    H258226   4.774   1.047  17.297 -1.3849  0.9855 -0.8793
12271TIP3   OH258227   1.798   5.396  13.357  0.3416  0.6929  0.0022
12271TIP3    H158228   1.781   5.372  13.448 -2.5867 -1.4217 -0.9489
12271TIP3    H258229   1.774   5.488  13.352  0.7090  0.8893  1.3740
12272TIP3   OH258230   6.551   3.944  11.269 -0.5192  0.1447 -0.0990
12272TIP3    H158231   6.473   3.962  11.215  0.2807  2.3346 -0.6292
12272TIP3    H258232   6.613   4.011  11.243  0.8623 -0.3681  1.7379
12273TIP3   OH258233   3.250   2.602   0.970 -0.2139  0.3270  0.2031
12273TIP3    H158234   3.223   2.523   1.017 -0.3723  1.5148  2.2115
12273TIP3    H258235   3.339   2.620   1.000  1.2777 -1.0276 -2.9853
12274TIP3   OH258236   4.876   4.685  11.148 -0.0027 -0.2699  0.2921
12274TIP3    H158237   4.929   4.650  11.077  1.5005  0.7636  0.8403
12274TIP3    H258238   4.822   4.753  11.107  0.3670 -0.1415  0.0156
12275TIP3   OH258239   5.425   6.410   4.094  0.0267  0.0206 -0.0356
12275TIP3    H158240   5.519   6.395   4.087 -0.2408 -2.2173  0.3183
12275TIP3    H258241   5.406   6.405   4.187 -0.4499  0.3869 -0.1095
12276TIP3   OH258242   4.212   2.358   3.486 -1.1962 -0.0136 -0.2318
12276TIP3    H158243   4.252   2.352   3.399 -1.5377 -1.3348 -0.3214
12276TIP3    H258244   4.253   2.434   3.527  1.5249 -1.3648 -0.2458
12277TIP3   OH258245   6.620   2.730  17.297 -0.1193 -0.3904  0.2958
12277TIP3    H158246   6.529   2.760  17.289 -0.4224 -0.6181  2.2976
12277TIP3    H258247   6.657   2.784  17.367  0.8757 -1.2212  0.4361
12278TIP3   OH258248   3.618   5.259   2.412 -0.0640 -0.5264 -0.2590
12278TIP3    H158249   3.705   5.277   2.377 -0.9612  1.7159 -1.5492
12278TIP3    H258250   3.624   5.283   2.505  1.0419 -1.8260  0.0343
12279TIP3   OH258251   3.969   3.764   4.609 -0.3542  0.3295  0.2209
12279TIP3    H158252   3.911   3.698   4.648  1.6585 -2.2516 -0.8804
12279TIP3    H258253   3.941   3.769   4.518 -0.1881  0.6566  0.1870
12280TIP3   OH258254   4.907   0.889   0.196 -0.7780  0.0055 -0.1493
12280TIP3    H158255   4.986   0.835   0.196 -1.0649 -0.4315 -1.0181
12280TIP3    H258256   4.913   0.941   0.115 -0.2363  1.7028  0.9190
12281TIP3   OH258257   0.517   1.977   2.075 -0.0914  0.5430 -0.0430
12281TIP3    H158258   0.487   1.901   2.025 -1.2922  0.9971 -0.0305
12281TIP3    H258259   0.437   2.019   2.106  0.5054  2.3592 -0.8525
12282TIP3   OH258260   6.234   6.054  13.373  0.5574  0.2859 -0.1970
12282TIP3    H158261   6.198   6.111  13.305  0.0256  0.4675  0.2269
12282TIP3    H258262   6.176   5.978  13.372  1.7122 -0.6254 -1.2872
12283TIP3   OH258263   5.616   0.864  12.714  0.2957  0.0388 -0.4475
12283TIP3    H158264   5.542   0.804  12.700  0.6596 -0.6727  0.6122
12283TIP3    H258265   5.610   0.889  12.806  0.0638  1.7919 -0.8885
12284TIP3   OH258266   0.563   3.687   1.012 -1.2072 -0.0384 -0.0381
12284TIP3    H158267   0.467   3.686   1.011 -1.3116  2.3309 -0.8301
12284TIP3    H258268   0.586   3.737   0.934  0.7290 -1.2171 -0.2601
12285TIP3   OH258269   1.866   0.377  11.370 -0.5346  0.4995  0.1086
12285TIP3    H158270   1.890   0.285  11.367 -2.3446  0.0177 -1.0464
12285TIP3    H258271   1.937   0.422  11.324 -0.3443 -0.4815 -0.5676
12286TIP3   OH258272   4.648   0.720  14.304 -0.4893 -0.0881  0.0093
12286TIP3    H158273   4.597   0.639  14.307 -2.5827  1.2113  1.6976
12286TIP3    H258274   4.620   0.763  14.223 -1.7227  0.3648  0.6575
12287TIP3   OH258275   1.107   0.184  16.317 -0.4079  0.2778 -0.8083
12287TIP3    H158276   1.061   0.268  16.320 -3.5635 -1.2202 -2.3223
12287TIP3    H258277   1.161   0.189  16.239  1.0013  1.5499  0.1931
12288TIP3   OH258278   4.981   5.899  14.750  0.5082 -0.2466  0.0588
12288TIP3    H158279   5.072   5.876  14.771 -0.1146 -0.2438  3.2576
12288TIP3    H258280   4.932   5.818  14.765 -0.1177 -0.1298 -1.2210
12289TIP3   OH258281   3.014   4.714  11.237  0.1268 -0.4667  1.3048
12289TIP3    H158282   2.951   4.771  11.194  0.1597  0.1767  2.0936
12289TIP3    H258283   2.972   4.690  11.320  0.6942 -0.4633  1.5978
12290TIP3   OH258284   1.831   6.543   6.356  0.0404  0.3238 -0.1240
12290TIP3    H158285   1.840   6.607   6.427 -1.0494  0.5853 -0.2074
12290TIP3    H258286   1.769   6.479   6.390 -1.1361  0.8883 -1.1304
12291TIP3   OH258287   5.973   3.257  15.361 -0.0885  0.5486  0.3802
12291TIP3    H158288   6.021   3.175  15.345  0.3428  0.7519  0.5898
12291TIP3    H258289   5.925   3.240  15.442  1.4966  1.1254  1.4954
12292TIP3   OH258290   0.094   2.198   3.714  0.4229  0.3852 -0.4844
12292TIP3    H158291   0.042   2.139   3.659 -2.3085  1.3199  0.8929
12292TIP3    H258292   0.152   2.141   3.763 -2.1633 -1.2750  0.8324
12293TIP3   OH258293   4.944   0.151  12.084  0.9843  0.7727  0.3245
12293TIP3    H158294   4.965   0.175  11.994  1.6546  3.1819  1.0437
12293TIP3    H258295   4.848   0.146  12.085  1.0172 -1.2047 -0.8973
12294TIP3   OH258296   3.059   2.340   2.791  0.5411  0.0760 -0.1776
12294TIP3    H158297   3.063   2.339   2.695  0.7442  0.2610 -0.1709
12294TIP3    H258298   3.128   2.401   2.817  0.6334 -0.1441  0.0953
12295TIP3   OH258299   0.955   3.879  17.012 -0.1274  0.2218  0.5991
12295TIP3    H158300   0.982   3.797  16.970 -2.3932  0.1385 -0.8985
12295TIP3    H258301   0.878   3.855  17.063 -0.6799  1.3727  0.3377
12296TIP3   OH258302   3.541   0.360  14.776  0.0715 -0.0463  0.2237
12296TIP3    H158303   3.606   0.291  14.776  0.3229  0.1461  1.8729
12296TIP3    H258304   3.470   0.327  14.831 -0.4978  0.4069 -0.2153
12297TIP3   OH258305   1.943   3.371  15.620  0.1101  0.5622  0.0692
12297TIP3    H158306   1.884   3.435  15.581  0.0730  0.0599 -0.7258
12297TIP3    H258307   1.911   3.360  15.709  3.3271  5.7961  2.3682
12298TIP3   OH258308   4.650   3.433  14.597 -0.0921  0.0611 -0.6942
12298TIP3    H158309   4.668   3.378  14.521 -0.2261  0.2871 -0.8899
12298TIP3    H258310   4.723   3.495  14.599  0.4592 -0.5835 -0.0402
12299TIP3   OH258311   1.925   5.284   4.209  0.1778  0.0162 -0.4082
12299TIP3    H158312   1.921   5.327   4.294 -0.0044 -1.7011  0.5045
12299TIP3    H258313   1.836   5.294   4.173  0.7094  2.2804 -1.2523
12300TIP3   OH258314   2.277   0.943   5.529 -0.5036  0.1354 -0.3672
12300TIP3    H158315   2.247   0.969   5.615 -0.6377 -0.3493 -0.2643
12300TIP3    H258316   2.223   0.993   5.468  1.0896  2.2000 -0.1915
12301TIP3   OH258317   4.353   3.238  11.774 -0.3427  0.4705  0.2778
12301TIP3    H158318   4.409   3.160  11.780  1.7633  1.9249  0.8152
12301TIP3    H258319   4.272   3.206  11.734  0.1306 -2.1193  1.1894
12302TIP3   OH258320   5.687   3.456  12.824 -0.3027  0.2885 -0.4262
12302TIP3    H158321   5.754   3.412  12.877 -0.4847  0.2101 -0.2593
12302TIP3    H258322   5.714   3.547  12.822  0.3494  0.0906 -1.1844
12303TIP3   OH258323   3.498   0.910   1.007 -0.2589 -0.3899 -0.3484
12303TIP3    H158324   3.456   0.996   1.019  0.5542 -0.0115 -0.1617
12303TIP3    H258325   3.458   0.854   1.073 -1.2100 -0.3125 -0.8403
12304TIP3   OH258326   5.538   1.378   4.370 -0.3759  0.0491  0.5342
12304TIP3    H158327   5.497   1.300   4.333 -0.6457 -1.2909  3.3619
12304TIP3    H258328   5.464   1.430   4.403 -0.3387  2.4577 -2.7560
12305TIP3   OH258329   2.866   1.277   4.408  0.3042  0.5791  0.0751
12305TIP3    H158330   2.917   1.212   4.457  2.1815  3.7501  2.7709
12305TIP3    H258331   2.775   1.258   4.430  0.7848 -0.9988  0.9060
12306TIP3   OH258332   5.055   5.567  14.961  0.0741  0.1655  0.2902
12306TIP3    H158333   5.119   5.555  15.032 -0.4381  0.5464  0.8247
12306TIP3    H258334   4.984   5.618  15.001 -0.4368 -0.0142 -0.3730
12307TIP3   OH258335   1.070   5.685  14.930 -0.1232  0.4921 -0.0926
12307TIP3    H158336   1.108   5.772  14.930 -1.2451  1.0002 -0.2150
12307TIP3    H258337   1.131   5.632  14.877  0.1240  1.4061 -0.7446
12308TIP3   OH258338   0.599   2.636  17.181 -0.6790  0.1452 -0.1245
12308TIP3    H158339   0.538   2.674  17.119 -0.6479 -1.0521 -0.9258
12308TIP3    H258340   0.686   2.657  17.146 -0.6629 -0.8172 -0.6861
12309TIP3   OH258341   2.900   0.737   5.194 -0.0833 -0.3124  0.1018
12309TIP3    H158342   2.882   0.791   5.117 -0.7455 -1.0787 -0.2992
12309TIP3    H258343   2.824   0.679   5.201  2.0203 -3.5579 -1.5279
12310TIP3   OH258344   3.718   6.359   4.516 -0.2781 -0.1725  0.3645
12310TIP3    H158345   3.721   6.452   4.539 -0.3534 -0.3230  0.9967
12310TIP3    H258346   3.741   6.357   4.423 -1.1273  0.5543  0.1239
12311TIP3   OH258347   3.298   1.326  17.611  0.6837  0.1585 -0.9103
12311TIP3    H158348   3.344   1.242  17.608  0.9969  0.3491 -2.1298
12311TIP3    H258349   3.207   1.303  17.631  0.8422 -0.4378 -0.8680
12312TIP3   OH258350   2.136   6.212  11.258  0.1227  0.5139  0.1266
12312TIP3    H158351   2.061   6.156  11.276 -0.3180  0.1345 -2.4756
12312TIP3    H258352   2.118   6.250  11.172  2.7098  0.7148 -0.4220
12313TIP3   OH258353   5.192   1.765   0.957  0.2516 -0.0444 -0.2090
12313TIP3    H158354   5.231   1.834   1.011  1.1382  0.2261 -1.1590
12313TIP3    H258355   5.220   1.785   0.868  0.4889 -1.5919 -0.5207
12314TIP3   OH258356   1.370   1.946   5.671  0.5311  0.1904 -0.4949
12314TIP3    H158357   1.275   1.959   5.671  0.1586 -2.0530 -0.7284
12314TIP3    H258358   1.381   1.851   5.665  2.7645  0.1802  1.8240
12315TIP3   OH258359   3.364   0.520   4.709 -0.1412 -0.0961 -0.1464
12315TIP3    H158360   3.312   0.478   4.778  0.2265  0.9839  0.8286
12315TIP3    H258361   3.306   0.587   4.673 -0.2320 -0.4680 -0.6922
12316TIP3   OH258362   0.953   3.906   1.067  0.6229 -0.3457  0.5403
12316TIP3    H158363   0.902   3.854   1.130  1.0152  2.1618  3.1460
12316TIP3    H258364   0.911   3.890   0.983 -2.2822 -1.1089  2.0104
12317TIP3   OH258365   6.145   4.275   6.191  0.7441  0.0911  0.1194
12317TIP3    H158366   6.158   4.337   6.263  0.4207 -1.5427  1.6586
12317TIP3    H258367   6.053   4.251   6.196  0.6692  0.1141 -0.9849
12318TIP3   OH258368   3.269   0.562   3.754  0.1984  0.4283  0.0463
12318TIP3    H158369   3.358   0.545   3.725  0.0908  0.2463 -0.1749
12318TIP3    H258370   3.260   0.513   3.836 -0.1899 -0.7934 -0.7068
12319TIP3   OH258371   6.446   0.841   2.351  0.2786 -0.2320  0.4149
12319TIP3    H158372   6.423   0.934   2.356 -0.5374 -0.4395  0.7263
12319TIP3    H258373   6.541   0.840   2.337  0.2578  0.6473  0.1713
12320TIP3   OH258374   3.307   2.268   5.818 -0.0857 -0.1204 -0.8799
12320TIP3    H158375   3.294   2.221   5.736  0.9499  0.1187 -1.1997
12320TIP3    H258376   3.377   2.331   5.799 -0.7961  0.9054 -0.2044
12321TIP3   OH258377   2.486   3.935   4.741  0.4926 -0.0082 -0.2400
12321TIP3    H158378   2.431   3.990   4.685  1.2358 -1.4583 -2.5027
12321TIP3    H258379   2.432   3.918   4.818 -1.2904  0.5817 -1.2951
12322TIP3   OH258380   4.136   0.724   1.668 -0.1523 -0.1449 -0.2044
12322TIP3    H158381   4.101   0.812   1.679  1.3976  0.3179  1.4751
12322TIP3    H258382   4.222   0.737   1.628 -0.3521 -1.0037 -0.9746
12323TIP3   OH258383   1.398   6.349   4.080  0.1492  0.1535  0.1868
12323TIP3    H158384   1.402   6.347   4.175 -0.0719  0.2643  0.1995
12323TIP3    H258385   1.451   6.275   4.051 -0.1305 -0.1293  0.4031
12324TIP3   OH258386   4.147   2.996   0.337  0.0519 -0.3879  0.2014
12324TIP3    H158387   4.064   3.011   0.382  0.9676  0.5779  1.6576
12324TIP3    H258388   4.203   2.954   0.403  1.3954  0.9501 -0.0343
12325TIP3   OH258389   6.181   6.091  17.522 -0.5923  0.3743 -0.6229
12325TIP3    H158390   6.173   6.030  17.595  0.6850  2.4435  1.3684
12325TIP3    H258391   6.093   6.094  17.484 -0.6813 -2.7206 -0.9285
12326TIP3   OH258392   0.641   3.113   5.582 -0.6566  0.2087 -0.0416
12326TIP3    H158393   0.676   3.199   5.560 -0.6721 -0.1833 -1.6742
12326TIP3    H258394   0.711   3.052   5.559 -1.0380 -0.2970  0.1224
12327TIP3   OH258395   6.208   5.130  13.641 -0.0742 -0.2239  0.6472
12327TIP3    H158396   6.126   5.091  13.611  0.6637 -0.9756 -0.5230
12327TIP3    H258397   6.214   5.213  13.593  0.6212 -0.9533 -0.5801
12328TIP3   OH258398   3.193   1.349  11.899  0.1218 -0.3554 -0.0806
12328TIP3    H158399   3.152   1.432  11.875 -0.5922 -0.6475  0.0846
12328TIP3    H258400   3.128   1.283  11.874  0.9725 -0.9119 -0.8390
12329TIP3   OH258401   3.943   2.515   4.179  0.6380  0.2443  0.3700
12329TIP3    H158402   3.983   2.487   4.261  2.8421  2.4700  0.1606
12329TIP3    H258403   3.982   2.456   4.113 -1.1697 -1.5746  0.8106
12330TIP3   OH258404   2.600   3.713   1.448  0.3068  0.0205 -0.7588
12330TIP3    H158405   2.509   3.742   1.443 -0.3904 -2.0195 -0.8696
12330TIP3    H258406   2.596   3.619   1.430  2.7067  0.2538 -3.1703
12331TIP3   OH258407   3.130   5.425  11.493  0.2324  0.2215 -0.0962
12331TIP3    H158408   3.126   5.466  11.579 -1.4805 -1.2834  0.6098
12331TIP3    H258409   3.220   5.394  11.485  1.2229  2.8663 -0.1196
12332TIP3   OH258410   2.684   2.462   1.685  0.0236  0.2554 -0.1587
12332TIP3    H158411   2.751   2.428   1.745 -0.5425  1.1050  1.0082
12332TIP3    H258412   2.664   2.389   1.627 -0.5208 -1.1535  1.6855
12333TIP3   OH258413   0.371   0.772   3.278  0.6725  0.1853 -0.2786
12333TIP3    H158414   0.367   0.863   3.249 -0.0233 -0.4304 -2.3130
12333TIP3    H258415   0.445   0.768   3.338  0.7229  2.0696 -0.1729
12334TIP3   OH258416   6.454   1.858  16.674  0.4580  0.0668  0.6880
12334TIP3    H158417   6.461   1.894  16.586 -1.2398 -0.4614  0.3058
12334TIP3    H258418   6.367   1.883  16.703  1.4572  1.4099  2.7801
12335TIP3   OH258419   3.220   2.072  17.108  0.5155 -0.5369 -0.3254
12335TIP3    H158420   3.271   2.153  17.109  0.9941 -0.7922  2.6026
12335TIP3    H258421   3.136   2.095  17.146  0.9263 -1.5207  1.2618
12336TIP3   OH258422   5.125   4.007  11.662 -0.3375  0.6587  0.1289
12336TIP3    H158423   5.098   3.916  11.646  1.5388  0.1192 -0.2837
12336TIP3    H258424   5.060   4.041  11.722  0.1871 -1.7744  2.2755
12337TIP3   OH258425   6.620   3.731  11.426  0.1908 -0.2430 -0.2548
12337TIP3    H158426   6.686   3.673  11.388  0.8679 -0.4113  1.1413
12337TIP3    H258427   6.610   3.801  11.361 -1.1782 -2.2225 -2.3234
12338TIP3   OH258428   4.427   0.510   6.130 -0.0985 -0.1207 -0.2917
12338TIP3    H158429   4.517   0.486   6.109 -0.5636  0.1063 -2.7670
12338TIP3    H258430   4.407   0.582   6.070 -2.0378 -0.3910 -0.0188
12339TIP3   OH258431   5.049   2.346  13.983 -0.3658  0.4791  0.7368
12339TIP3    H158432   4.970   2.312  13.942 -0.3986  0.8844  0.4579
12339TIP3    H258433   5.118   2.328  13.919 -0.3430  0.7142  0.6950
12340TIP3   OH258434   5.827   0.550   2.144 -0.4110  0.5740  0.1136
12340TIP3    H158435   5.900   0.506   2.101 -1.6451 -1.8689  0.3000
12340TIP3    H258436   5.810   0.627   2.090  1.1551  0.2316 -0.9448
12341TIP3   OH258437   1.386   0.738   3.146 -0.6674 -0.1126 -0.9659
12341TIP3    H158438   1.311   0.728   3.204 -0.5604  0.4120 -0.7337
12341TIP3    H258439   1.386   0.831   3.123  0.9929  0.2782  0.5006
12342TIP3   OH258440   4.061   0.808  13.412  0.3353 -0.5637 -0.1500
12342TIP3    H158441   4.112   0.865  13.469  0.9605 -1.4697  0.2082
12342TIP3    H258442   3.991   0.774  13.469 -1.2504  1.3282 -0.8338
12343TIP3   OH258443   3.453   2.458   0.310 -0.0023  0.0935  0.1242
12343TIP3    H158444   3.522   2.495   0.256  0.3024  0.0221  0.4586
12343TIP3    H258445   3.376   2.510   0.290  0.0470 -0.0831 -0.5567
12344TIP3   OH258446   0.190   4.806  13.781  0.2284 -0.1896 -0.1937
12344TIP3    H158447   0.129   4.850  13.840  0.1434  0.6865 -0.9250
12344TIP3    H258448   0.194   4.716  13.814 -0.6117  0.0204  0.5153
12345TIP3   OH258449   1.958   0.366   0.561  0.1088  0.3321  0.4047
12345TIP3    H158450   1.967   0.419   0.641  1.3303 -0.3621  0.7499
12345TIP3    H258451   1.910   0.423   0.500  0.8870  1.6293  0.9592
12346TIP3   OH258452   5.565   0.385   1.722 -0.2158 -0.0086  0.5024
12346TIP3    H158453   5.628   0.431   1.778 -2.9350  0.9443  2.9939
12346TIP3    H258454   5.512   0.334   1.782 -0.9366 -2.0218 -1.6724
12347TIP3   OH258455   5.901   6.251   1.933  0.0065  0.5591 -0.4076
12347TIP3    H158456   5.993   6.277   1.936  0.0615  0.3054  1.2772
12347TIP3    H258457   5.854   6.328   1.965  0.0505 -0.6633  3.0619
12348TIP3   OH258458   3.251   4.078   1.095 -0.5421  0.0014  0.3424
12348TIP3    H158459   3.220   4.063   1.005 -1.9105 -1.3288  0.9828
12348TIP3    H258460   3.323   4.017   1.106 -1.6520 -1.2997  0.7340
12349TIP3   OH258461   1.095   6.119   3.720  0.1567  0.2913  0.5691
12349TIP3    H158462   1.098   6.113   3.625 -2.1010 -3.4015  0.5057
12349TIP3    H258463   1.187   6.120   3.747  0.8513  0.1752 -1.6126
12350TIP3   OH258464   3.043   0.482   6.457 -0.1004  0.0829  0.6045
12350TIP3    H158465   3.105   0.451   6.523  1.5057  1.2320 -0.2761
12350TIP3    H258466   3.057   0.425   6.382  0.4816  0.8226  0.1342
12351TIP3   OH258467   5.806   2.266   2.384  0.0977 -0.0009 -0.4466
12351TIP3    H158468   5.854   2.346   2.361 -0.7988  0.3325 -1.2340
12351TIP3    H258469   5.715   2.287   2.365 -0.4906 -0.3597  1.6981
12352TIP3   OH258470   3.658   4.330  17.554 -0.1985 -0.0250  0.5504
12352TIP3    H158471   3.659   4.332  17.650  0.0957  2.1153  0.5492
12352TIP3    H258472   3.731   4.386  17.528  0.5199 -1.5806 -0.9670
12353TIP3   OH258473   2.841   2.825  11.174 -0.1768  0.0341 -0.0522
12353TIP3    H158474   2.763   2.868  11.210  0.1373  0.1025  0.5654
12353TIP3    H258475   2.868   2.881  11.102  1.3817  2.0631  1.9520
12354TIP3   OH258476   4.147   0.468   0.326  0.1682 -0.4193  0.3478
12354TIP3    H158477   4.120   0.378   0.312 -1.8123  0.5528 -3.4243
12354TIP3    H258478   4.101   0.495   0.405 -0.1269 -2.3369  0.8741
12355TIP3   OH258479   1.652   0.069  17.408 -0.0947  0.0088  0.5692
12355TIP3    H158480   1.631   0.103  17.495 -1.0865  1.6766 -0.2786
12355TIP3    H258481   1.574   0.019  17.383  0.4263 -0.9786  0.8474
12356TIP3   OH258482   5.220   2.174  16.082  0.0181  0.3288  0.1771
12356TIP3    H158483   5.183   2.230  16.150 -3.2861  1.4686 -2.3316
12356TIP3    H258484   5.278   2.232  16.032  1.7864 -0.3052  1.3655
12357TIP3   OH258485   3.132   3.197   4.053 -0.2396  0.2185  0.7069
12357TIP3    H158486   3.060   3.138   4.076 -0.4083 -0.3586 -1.1255
12357TIP3    H258487   3.088   3.277   4.022 -0.1402 -0.1835 -0.5409
12358TIP3   OH258488   1.997   4.210  15.527 -0.4826  0.2967 -0.2124
12358TIP3    H158489   1.934   4.203  15.455  0.9405 -0.4870 -1.4143
12358TIP3    H258490   2.035   4.298  15.517 -0.6740  0.3954 -0.0808
12359TIP3   OH258491   5.891   5.813   3.871  0.3179  0.3191 -0.8087
12359TIP3    H158492   5.889   5.778   3.782  0.1885  1.5427 -1.2934
12359TIP3    H258493   5.802   5.798   3.905  0.0518  0.8370 -1.2707
12360TIP3   OH258494   0.342   1.375   6.220 -0.2624 -0.5433  0.6247
12360TIP3    H158495   0.272   1.317   6.249 -0.5302  0.4624  2.0610
12360TIP3    H258496   0.422   1.336   6.254 -0.4399 -0.1166  1.5592
12361TIP3   OH258497   1.687   5.630   4.719 -0.1769 -0.2239  0.1011
12361TIP3    H158498   1.701   5.717   4.681  1.2487  0.0630  1.1937
12361TIP3    H258499   1.592   5.621   4.723 -0.5552 -0.7005 -4.3837
12362TIP3   OH258500   2.843   5.526   1.651 -0.3837  0.0501 -0.2798
12362TIP3    H158501   2.852   5.431   1.639 -2.1760  0.0335 -1.9210
12362TIP3    H258502   2.908   5.564   1.592 -0.0072 -0.1334  0.0080
12363TIP3   OH258503   2.691   2.204   6.821  0.4005 -0.6318  0.2958
12363TIP3    H158504   2.752   2.139   6.786 -0.2041 -0.9488 -0.1915
12363TIP3    H258505   2.745   2.258   6.879  1.3311 -0.3848 -0.7497
12364TIP3   OH258506   1.037   1.047  12.878 -0.2859  0.0658 -0.2112
12364TIP3    H158507   1.022   1.098  12.958  0.1957  0.4038 -0.3252
12364TIP3    H258508   1.132   1.047  12.868 -0.2783 -0.9270 -0.1787
12365TIP3   OH258509   1.005   2.506  16.900  0.1523  0.7672 -0.0936
12365TIP3    H158510   0.986   2.515  16.993 -2.5001  0.4752 -0.5304
12365TIP3    H258511   1.081   2.448  16.896 -0.0842  0.2700  1.8576
12366TIP3   OH258512   6.625   5.046   3.696 -0.0715 -0.4109 -0.0406
12366TIP3    H158513   6.603   5.051   3.789 -0.5583  0.3410 -0.1862
12366TIP3    H258514   6.680   5.122   3.680 -1.4594  0.5046 -0.7277
12367TIP3   OH258515   0.299   5.580   0.546  0.2252 -0.1566 -0.3995
12367TIP3    H158516   0.287   5.503   0.602  1.6622  0.5782  0.9957
12367TIP3    H258517   0.219   5.631   0.558  1.5019  1.3018  3.2215
12368TIP3   OH258518   1.044   5.821  16.169 -0.1139 -0.4016 -0.1127
12368TIP3    H158519   1.123   5.813  16.115 -1.9995  1.8722 -3.4973
12368TIP3    H258520   1.076   5.809  16.259  3.5720 -2.2769 -1.4496
12369TIP3   OH258521   6.616   3.798   5.536  0.6532 -0.1066  0.1423
12369TIP3    H158522   6.559   3.836   5.603 -2.3459 -1.7494 -1.2619
12369TIP3    H258523   6.652   3.719   5.578 -0.2779 -0.4966  0.2369
12370TIP3   OH258524   0.377   0.055   0.602 -0.3607 -0.0715  0.2457
12370TIP3    H158525   0.370   0.025   0.511  1.8056 -0.6755  0.2141
12370TIP3    H258526   0.379  -0.026   0.653 -3.1586  0.2767  1.0637
12371TIP3   OH258527   4.830   3.453  12.268  0.1939  0.4523  0.4652
12371TIP3    H158528   4.804   3.545  12.258 -0.3107  0.1123 -1.9981
12371TIP3    H258529   4.778   3.421  12.341  0.8316  2.2560  1.7844
12372TIP3   OH258530   2.903   1.349  14.879 -0.2016 -0.0534 -0.0940
12372TIP3    H158531   2.980   1.293  14.885  0.3721  0.8790  2.4594
12372TIP3    H258532   2.889   1.361  14.785  2.4387 -0.6645 -0.6360
12373TIP3   OH258533   6.220   1.477   2.046  0.2455 -0.3462 -1.0945
12373TIP3    H158534   6.206   1.425   2.125  1.7230  1.2329  0.2916
12373TIP3    H258535   6.296   1.437   2.004  1.2648  0.4988 -0.1274
12374TIP3   OH258536   0.702   6.232  17.566 -0.1243 -0.7679  0.7219
12374TIP3    H158537   0.730   6.243  17.475  1.4779  1.1335  1.3766
12374TIP3    H258538   0.745   6.150  17.594  0.6585 -0.5462  0.2055
12375TIP3   OH258539   5.645   6.141   1.204 -0.7288 -0.0414  0.6770
12375TIP3    H158540   5.703   6.107   1.271  1.7969 -2.4946 -2.4282
12375TIP3    H258541   5.689   6.219   1.170 -1.6739  0.8224  1.3724
12376TIP3   OH258542   1.443   5.750  13.223  0.1269  0.3483 -0.1659
12376TIP3    H158543   1.500   5.804  13.278  0.3028 -0.9649  0.9871
12376TIP3    H258544   1.497   5.729  13.147  1.0569 -0.4706  0.6845
12377TIP3   OH258545   2.581   6.090   6.243  0.3419  0.0105 -0.6214
12377TIP3    H158546   2.533   6.162   6.282  0.1411  0.1760 -1.1663
12377TIP3    H258547   2.591   6.114   6.151 -0.2961 -0.9519 -0.9566
12378TIP3   OH258548   3.156   3.876  15.544 -0.0520 -0.0865 -0.0106
12378TIP3    H158549   3.184   3.784  15.535  1.3983  0.4938 -2.6179
12378TIP3    H258550   3.212   3.911  15.613  2.1062 -0.3183 -1.5189
12379TIP3   OH258551   2.445   1.925  12.361 -0.1648 -0.0242 -0.3195
12379TIP3    H158552   2.414   1.931  12.451 -3.5801 -0.3299 -1.3050
12379TIP3    H258553   2.441   2.015  12.328  1.5574  0.1691 -0.1064
12380TIP3   OH258554   3.060   3.546  15.231  0.0036 -0.0913  0.5169
12380TIP3    H158555   2.970   3.550  15.199  0.6649 -1.1152 -1.5984
12380TIP3    H258556   3.096   3.633  15.212  0.1356 -0.4209 -0.8027
12381TIP3   OH258557   1.140   4.658   0.645  0.3038  0.4959  0.3559
12381TIP3    H158558   1.110   4.567   0.651 -0.3532  0.7477  1.0816
12381TIP3    H258559   1.064   4.710   0.671  0.2333  1.3278 -1.3562
12382TIP3   OH258560   4.307   4.817  12.755 -0.1263  0.3755  0.3953
12382TIP3    H158561   4.390   4.773  12.777 -0.0606  0.4209  0.2410
12382TIP3    H258562   4.254   4.748  12.714  0.1980  0.5829 -0.3869
12383TIP3   OH258563   2.441   4.513   0.786  0.2779  0.0751 -0.1533
12383TIP3    H158564   2.448   4.580   0.718  1.7062  0.3350  0.2227
12383TIP3    H258565   2.348   4.490   0.787  0.2649 -0.1961 -2.4217
12384TIP3   OH258566   4.518   2.196   4.834  0.1488 -0.2756  0.5641
12384TIP3    H158567   4.436   2.242   4.851  1.2582  1.7804  0.6677
12384TIP3    H258568   4.543   2.160   4.920 -0.7894 -1.2438  0.4543
12385TIP3   OH258569   0.851   4.495   4.113  0.0242 -0.8694 -0.2388
12385TIP3    H158570   0.850   4.589   4.093  1.5764 -1.5437 -4.5704
12385TIP3    H258571   0.944   4.473   4.123 -0.2714 -2.0868  0.0063
12386TIP3   OH258572   3.738   1.547   5.407 -0.5832 -0.2224 -0.0273
12386TIP3    H158573   3.668   1.501   5.455  0.5306 -1.5656  0.3656
12386TIP3    H258574   3.775   1.607   5.471  0.9412 -2.0540  0.8996
12387TIP3   OH258575   1.802   0.091   3.457  0.0090  0.3166 -0.4439
12387TIP3    H158576   1.772   0.006   3.488  0.2324  0.0225 -1.0308
12387TIP3    H258577   1.794   0.148   3.534  2.2143 -0.7759  0.6770
12388TIP3   OH258578   6.599   0.307   1.114  0.2703  0.1887 -0.1935
12388TIP3    H158579   6.678   0.280   1.067  0.9341 -1.0280  1.5215
12388TIP3    H258580   6.611   0.401   1.129  1.7838 -0.1190  0.6901
12389TIP3   OH258581   1.859   1.087   5.128 -0.1610 -0.5358  0.6760
12389TIP3    H158582   1.794   1.099   5.059  0.6223  0.6879  0.1061
12389TIP3    H258583   1.864   0.992   5.141 -2.8058 -0.6321  1.5102
12390TIP3   OH258584   5.124   6.604  16.930  0.1045 -0.2261  0.5383
12390TIP3    H158585   5.101   6.609  17.023 -0.3648 -0.4819  0.4420
12390TIP3    H258586   5.130   6.510  16.912  2.6094 -0.1915  0.8723
12391TIP3   OH258587   4.789   2.971   0.637 -0.0328 -0.1253 -0.2546
12391TIP3    H158588   4.847   2.997   0.565 -1.0694 -1.2064 -1.5385
12391TIP3    H258589   4.726   3.042   0.644 -0.2909 -0.2885 -0.8493
12392TIP3   OH258590   2.553   5.882  14.818  0.2590  0.6831 -0.3306
12392TIP3    H158591   2.620   5.878  14.750  0.1755  1.7623 -0.4969
12392TIP3    H258592   2.545   5.792  14.850  0.4276  0.2009 -1.6144
12393TIP3   OH258593   4.651   0.793   3.363  0.1110  0.0654  0.0506
12393TIP3    H158594   4.596   0.720   3.337 -0.5261  0.7478 -0.5543
12393TIP3    H258595   4.698   0.818   3.284  0.1456  0.4691  0.1943
12394TIP3   OH258596   3.590   6.520  17.019  0.8658  0.3966  0.1503
12394TIP3    H158597   3.682   6.498  17.000  0.9081  0.3531  0.4030
12394TIP3    H258598   3.543   6.437  17.009  0.7112  0.5902 -0.8432
12395TIP3   OH258599   4.905   2.114  14.356  0.0917 -0.5498 -0.0012
12395TIP3    H158600   4.981   2.168  14.378  0.0467  1.0569 -3.2565
12395TIP3    H258601   4.941   2.039  14.309 -0.1975 -0.8129  0.1946
12396TIP3   OH258602   1.315   5.505  11.926 -0.1620 -0.1969  0.0968
12396TIP3    H158603   1.347   5.516  11.836 -0.0269  0.0409  0.1737
12396TIP3    H258604   1.348   5.582  11.972 -2.3108  1.0048 -0.2333
12397TIP3   OH258605   4.281   0.982  13.170 -0.0920  0.4918  0.0047
12397TIP3    H158606   4.243   1.057  13.216 -0.3231 -0.4032  1.3336
12397TIP3    H258607   4.205   0.933  13.138 -0.0972 -0.7663  1.7971
12398TIP3   OH258608   5.703   4.789  13.010 -0.3325  0.5602 -0.1036
12398TIP3    H158609   5.698   4.824  13.099  0.3728  0.9401 -0.2021
12398TIP3    H258610   5.685   4.696  13.020  1.4289  0.2563  0.7044
12399TIP3   OH258611   1.061   0.307  13.568 -0.3734 -0.5331  0.9736
12399TIP3    H158612   1.015   0.316  13.485 -2.1523 -1.8038  1.7503
12399TIP3    H258613   1.117   0.384  13.573 -2.4201  1.1377 -0.0568
12400TIP3   OH258614   5.021   4.482   1.129 -1.0133  0.6400 -0.2581
12400TIP3    H158615   5.043   4.558   1.183 -1.5731 -0.5085  1.6644
12400TIP3    H258616   5.075   4.492   1.051  0.0220  2.2327  0.6057
12401TIP3   OH258617   4.794   4.648  17.326  0.3077 -0.2035  0.0878
12401TIP3    H158618   4.884   4.632  17.354  0.2071 -0.5781  0.2065
12401TIP3    H258619   4.744   4.649  17.407  0.4475  1.7631  0.1850
12402TIP3   OH258620   2.973   4.286  15.040 -0.1184  0.1989  0.7685
12402TIP3    H158621   3.032   4.315  15.109 -1.2373 -1.5485  2.5777
12402TIP3    H258622   3.014   4.316  14.959  1.1489  2.5335  2.1524
12403TIP3   OH258623   0.684   3.286   4.228  0.2343 -0.2386 -0.0127
12403TIP3    H158624   0.608   3.232   4.250 -1.5023  1.8953 -0.3510
12403TIP3    H258625   0.678   3.361   4.287  1.2426  0.6934 -1.0396
12404TIP3   OH258626   5.623   1.588   4.214  0.3791  0.2005  0.1064
12404TIP3    H158627   5.715   1.609   4.201  0.2381  0.4937 -0.3946
12404TIP3    H258628   5.624   1.528   4.289  0.8663  1.1242  0.8584
12405TIP3   OH258629   4.230   1.884  13.488  0.0570 -0.5294 -0.1677
12405TIP3    H158630   4.206   1.950  13.554  0.4898  0.4527 -0.9715
12405TIP3    H258631   4.231   1.801  13.536  3.5562  0.5059  1.8913
12406TIP3   OH258632   6.662   5.552  14.435  0.1907 -0.4104  0.5718
12406TIP3    H158633   6.694   5.609  14.505  0.4533  0.5914 -0.3326
12406TIP3    H258634   6.690   5.595  14.355  0.1960 -1.7152 -0.1535
12407TIP3   OH258635   4.743   6.302   0.599  0.2868 -0.4549 -0.1200
12407TIP3    H158636   4.782   6.337   0.519  0.6607  0.6941  0.5353
12407TIP3    H258637   4.804   6.328   0.669 -1.3087  0.9126  0.8716
12408TIP3   OH258638   4.101   5.074  16.481  0.4910 -0.2644 -0.4562
12408TIP3    H158639   4.190   5.108  16.480 -0.5744  3.0075  0.4163
12408TIP3    H258640   4.093   5.030  16.565  0.7968  1.1893  0.3814
12409TIP3   OH258641   4.720   5.134   4.481  0.2661 -0.6559  0.7574
12409TIP3    H158642   4.662   5.197   4.525  0.4785 -0.6275  1.0038
12409TIP3    H258643   4.726   5.165   4.391  1.3123  0.3616  1.1636
12410TIP3   OH258644   1.497   0.143  14.302 -0.2338 -0.7945  0.4083
12410TIP3    H158645   1.565   0.089  14.341 -1.3611 -0.6257  2.8003
12410TIP3    H258646   1.504   0.228  14.345  0.1542  0.3719 -1.7741
12411TIP3   OH258647   0.154   6.450   2.770 -0.6326  0.5023  0.1744
12411TIP3    H158648   0.216   6.518   2.796 -0.2509  1.2873 -2.4630
12411TIP3    H258649   0.068   6.492   2.775 -0.6383  0.4106  0.8424
12412TIP3   OH258650   0.981   2.332   5.706  0.6512 -0.1702  0.3385
12412TIP3    H158651   0.952   2.332   5.797  1.6038 -1.0826  0.6668
12412TIP3    H258652   1.059   2.276   5.706  1.1221  0.4499 -0.8924
12413TIP3   OH258653   0.856   1.564  12.885 -0.4400  0.1769 -0.1572
12413TIP3    H158654   0.798   1.524  12.821 -0.8922  2.4486 -1.2716
12413TIP3    H258655   0.841   1.658  12.877  1.5585  0.7175  1.3129
12414TIP3   OH258656   6.179   4.889  16.135 -0.6979 -0.1431 -0.9801
12414TIP3    H158657   6.238   4.862  16.204 -0.9424 -0.1364 -0.7666
12414TIP3    H258658   6.228   4.954  16.084 -1.3510  1.7172  0.6403
12415TIP3   OH258659   1.667   2.963  13.313 -0.2358  0.3591 -0.1036
12415TIP3    H158660   1.720   2.954  13.233  0.5485 -0.6199  0.4995
12415TIP3    H258661   1.577   2.959  13.282  0.0043  1.8291 -1.1360
12416TIP3   OH258662   2.538   6.370  13.346 -0.8849 -0.3510  0.0221
12416TIP3    H158663   2.612   6.310  13.356 -0.5887  0.3428  2.3644
12416TIP3    H258664   2.461   6.312  13.338 -0.4887 -1.0614  1.1819
12417TIP3   OH258665   5.173   4.515  11.157 -0.3757 -0.5759  0.7306
12417TIP3    H158666   5.112   4.454  11.115 -0.1536 -2.6813  3.2310
12417TIP3    H258667   5.251   4.512  11.102 -1.5407  0.2090 -1.0936
12418TIP3   OH258668   2.070   0.716  15.179 -0.7521 -0.4605  0.2499
12418TIP3    H158669   2.065   0.673  15.094 -1.4810 -0.3046  0.2094
12418TIP3    H258670   2.003   0.673  15.232 -1.2071  0.3395  0.3358
12419TIP3   OH258671   0.828   2.949   6.263 -0.1814  0.2890 -0.3465
12419TIP3    H158672   0.825   2.989   6.350 -2.3206 -0.9083  0.2262
12419TIP3    H258673   0.795   3.017   6.204  1.2088  1.0814 -0.2415
12420TIP3   OH258674   1.461   5.294  12.562 -0.2636  0.0869  0.5907
12420TIP3    H158675   1.434   5.242  12.486 -0.7135  0.3766  0.5474
12420TIP3    H258676   1.468   5.384  12.527  0.6714  0.0341  0.6220
12421TIP3   OH258677   5.005   6.644  16.687  0.4048  0.2509  0.1522
12421TIP3    H158678   5.066   6.687  16.627  2.7362 -1.1469  1.3565
12421TIP3    H258679   5.050   6.644  16.771 -0.1763 -2.9016  0.6023
12422TIP3   OH258680   3.860   0.693  13.559  0.1787 -0.8004  0.0913
12422TIP3    H158681   3.773   0.657  13.581 -0.2565 -0.5943 -1.1965
12422TIP3    H258682   3.921   0.629  13.595 -0.5651 -2.2991 -1.1351
12423TIP3   OH258683   1.966   5.149   4.747  0.0255 -0.0625 -0.4695
12423TIP3    H158684   1.886   5.169   4.797  1.4661 -0.6192  2.2807
12423TIP3    H258685   1.945   5.069   4.699 -1.3806  0.3791 -0.6411
12424TIP3   OH258686   3.506   5.653  11.341 -0.3806  0.0195  0.8397
12424TIP3    H158687   3.574   5.586  11.352 -0.9357 -1.1259 -1.7616
12424TIP3    H258688   3.535   5.726  11.395  2.2195 -0.9261  0.8753
12425TIP3   OH258689   5.807   6.427   3.160 -0.0591 -0.0702  0.0393
12425TIP3    H158690   5.820   6.471   3.243  1.0963 -0.6202  0.1654
12425TIP3    H258691   5.838   6.338   3.175  0.9339  0.0379 -1.1911
12426TIP3   OH258692   1.096   5.347  10.638  0.5261  0.2170  0.4740
12426TIP3    H158693   1.089   5.278  10.571  0.2537 -1.0556  1.7765
12426TIP3    H258694   1.188   5.345  10.664  0.6493  0.7718  0.1011
12427TIP3   OH258695   6.472   1.054   2.069  0.0960  1.3220 -0.6601
12427TIP3    H158696   6.417   0.991   2.022 -2.1205  0.3045  2.9434
12427TIP3    H258697   6.560   1.015   2.066 -0.6808 -0.5477 -0.8636
12428TIP3   OH258698   0.795   0.913  15.493  0.4042 -0.7962  0.5588
12428TIP3    H158699   0.806   1.006  15.514 -0.0243 -0.9104  1.3030
12428TIP3    H258700   0.775   0.912  15.400  0.9063 -0.1783  0.4374
12429TIP3   OH258701   4.632   1.629  11.034 -0.1353  0.3870 -0.0513
12429TIP3    H158702   4.552   1.669  11.068  1.1556  1.6946  1.5648
12429TIP3    H258703   4.672   1.697  10.980 -0.2936 -0.4301 -1.2558
12430TIP3   OH258704   5.046   4.767   3.895  0.6737 -0.1860 -0.2007
12430TIP3    H158705   5.134   4.805   3.898 -0.1234  1.7377  0.5615
12430TIP3    H258706   4.999   4.820   3.831  0.2318 -1.6309 -1.1141
12431TIP3   OH258707   5.962   1.798  15.073 -0.4563  0.3339  0.5216
12431TIP3    H158708   5.920   1.824  14.991 -0.1873 -1.8918 -0.4089
12431TIP3    H258709   5.910   1.840  15.142 -0.8409  2.0493 -0.7518
12432TIP3   OH258710   1.325   0.197  16.147 -0.5654  0.0474  0.4261
12432TIP3    H158711   1.415   0.205  16.179 -1.4719 -0.1498  3.3185
12432TIP3    H258712   1.329   0.129  16.080  1.6609  1.1469 -0.6717
12433TIP3   OH258713   1.257   3.644   2.157  0.2519 -0.0708 -0.2588
12433TIP3    H158714   1.349   3.622   2.155  0.5457  0.7740  1.8392
12433TIP3    H258715   1.212   3.563   2.181  0.3779 -0.5695 -1.6297
12434TIP3   OH258716   4.647   3.628   1.680 -0.2834  0.0266 -0.2063
12434TIP3    H158717   4.735   3.665   1.677 -0.0481 -0.5853 -1.3861
12434TIP3    H258718   4.591   3.700   1.708  0.6331  0.3332  0.8590
12435TIP3   OH258719   0.482   3.866   5.141 -0.0343 -0.3578  0.7342
12435TIP3    H158720   0.518   3.904   5.061  2.1293 -1.5341  1.0766
12435TIP3    H258721   0.541   3.896   5.210 -0.2212 -1.6337  1.4733
12436TIP3   OH258722   4.976   4.768  14.138 -1.2615  0.0136  0.0941
12436TIP3    H158723   4.996   4.862  14.143  0.3361 -0.1344 -1.9560
12436TIP3    H258724   4.910   4.761  14.069 -2.2347 -0.3090  1.0251
12437TIP3   OH258725   6.142   3.887   5.765  0.0734 -0.4251  0.5386
12437TIP3    H158726   6.099   3.918   5.685 -0.6959 -1.5762  0.4790
12437TIP3    H258727   6.085   3.916   5.836  0.3233 -0.1140  0.6124
12438TIP3   OH258728   2.371   3.616   2.980  0.3070  0.3969  0.5316
12438TIP3    H158729   2.333   3.528   2.974  0.4042  0.3934 -0.1215
12438TIP3    H258730   2.443   3.615   2.918 -1.2884  1.7409 -1.4646
12439TIP3   OH258731   0.401   4.673  17.525 -0.7800  0.3916 -0.7592
12439TIP3    H158732   0.375   4.696  17.436  2.4156  1.1892 -1.5908
12439TIP3    H258733   0.454   4.746  17.555 -0.6521 -0.4700  1.2955
12440TIP3   OH258734   1.458   0.998  11.975  0.1918  0.7421 -0.0053
12440TIP3    H158735   1.396   0.932  12.005  0.7470  0.0528 -0.3347
12440TIP3    H258736   1.404   1.067  11.937 -0.3585 -0.5165 -1.6429
12441TIP3   OH258737   1.445   6.504  13.787 -0.1200  0.0698  0.3343
12441TIP3    H158738   1.436   6.599  13.779 -3.2164 -0.1782 -0.3164
12441TIP3    H258739   1.449   6.473  13.696  2.0570 -0.4301  0.5357
12442TIP3   OH258740   4.105   4.396  11.521  0.5475  0.0752  0.2211
12442TIP3    H158741   4.087   4.404  11.615  1.2573 -0.8209  0.4374
12442TIP3    H258742   4.054   4.467  11.482  0.4220  0.6086  1.3018
12443TIP3   OH258743   6.497   3.401  17.351  0.2225  0.4660 -0.1922
12443TIP3    H158744   6.544   3.407  17.268  1.7177  0.1540  0.5890
12443TIP3    H258745   6.528   3.319  17.390 -1.8712 -0.3716 -0.1348
12444TIP3   OH258746   0.379   0.778   1.949  0.4231 -0.2920 -0.7933
12444TIP3    H158747   0.419   0.810   2.030 -0.0132 -1.0886 -0.2495
12444TIP3    H258748   0.286   0.769   1.971  0.4951 -1.7265 -0.9776
12445TIP3   OH258749   4.699   6.092  14.522  0.1513  0.2067  0.6302
12445TIP3    H158750   4.610   6.126  14.530  0.1837 -0.1066  3.0687
12445TIP3    H258751   4.735   6.100  14.610  1.7862 -1.7362  0.2036
12446TIP3   OH258752   5.417   5.561   1.082  0.0349  0.2922  0.9823
12446TIP3    H158753   5.367   5.581   1.161 -1.2326  1.5110 -0.0785
12446TIP3    H258754   5.449   5.646   1.052  0.4137 -0.1409  0.1260
12447TIP3   OH258755   5.525   5.100  15.437 -0.3350 -0.0617  0.5142
12447TIP3    H158756   5.557   5.049  15.512  1.5751 -0.0268 -0.2350
12447TIP3    H258757   5.467   5.165  15.476 -2.1489 -2.1814  1.5889
12448TIP3   OH258758   6.070   6.114   5.629  0.0430  0.2956 -0.0553
12448TIP3    H158759   6.095   6.022   5.637 -0.7729  0.1193  0.7501
12448TIP3    H258760   6.128   6.160   5.689  0.9306  0.4207 -0.9839
12449TIP3   OH258761   0.978   1.003  14.470  0.1636  0.2904  0.0430
12449TIP3    H158762   0.926   1.078  14.498  0.1936  0.5999 -0.7009
12449TIP3    H258763   0.925   0.962  14.401  0.2814 -0.2071  0.2398
12450TIP3   OH258764   0.908   3.279   2.714 -0.5015 -0.0728  0.0665
12450TIP3    H158765   0.836   3.283   2.650 -0.2426 -1.3333 -0.3319
12450TIP3    H258766   0.972   3.220   2.674 -0.7437 -1.6572  1.8950
12451TIP3   OH258767   2.925   3.147   4.216 -0.1089 -0.4401  0.3905
12451TIP3    H158768   2.967   3.120   4.297 -0.7980 -1.9229  0.2867
12451TIP3    H258769   2.876   3.227   4.240  0.6887 -0.1533  1.1101
12452TIP3   OH258770   0.391   3.691  15.049 -0.1064  0.2440 -0.5691
12452TIP3    H158771   0.368   3.783  15.039  0.1303  0.3116 -0.5166
12452TIP3    H258772   0.325   3.655  15.108 -0.5477  0.2364 -1.0694
12453TIP3   OH258773   0.709   5.841  13.753 -0.2645 -0.7390 -0.3180
12453TIP3    H158774   0.716   5.772  13.687  0.8099 -3.3016  2.2958
12453TIP3    H258775   0.799   5.868  13.769 -0.7018  2.0235 -1.8728
12454TIP3   OH258776   0.271   6.416   3.288 -0.2829 -0.2274 -0.1979
12454TIP3    H158777   0.197   6.360   3.265 -1.1695 -0.0539  1.9591
12454TIP3    H258778   0.267   6.423   3.383  0.8067  2.1171 -0.2478
12455TIP3   OH258779   0.074   2.282   3.261 -0.1734 -0.4263 -0.4548
12455TIP3    H158780   0.130   2.330   3.201  0.7711 -0.9733 -0.0212
12455TIP3    H258781  -0.015   2.298   3.229  0.0505  2.0214 -0.0568
12456TIP3   OH258782   0.015   2.233  12.744  0.3606  0.2636 -0.2571
12456TIP3    H158783  -0.065   2.252  12.695  0.8429 -1.2517 -1.7733
12456TIP3    H258784   0.064   2.315  12.744 -1.2680  1.2671  0.8932
12457TIP3   OH258785   0.161   4.800   5.634  0.0513  0.5053  0.5838
12457TIP3    H158786   0.176   4.777   5.542 -2.0853 -0.3757  0.4026
12457TIP3    H258787   0.247   4.825   5.667  0.6527  2.1658 -2.0057
12458TIP3   OH258788   1.579   5.892  15.201  0.1296  0.1306  0.5748
12458TIP3    H158789   1.527   5.883  15.121 -1.6812  1.3405  1.5340
12458TIP3    H258790   1.666   5.919  15.171  0.1635 -1.6756 -1.0745
12459TIP3   OH258791   3.725   4.087   3.548  0.5168 -0.0274  0.0195
12459TIP3    H158792   3.710   4.074   3.455 -0.1869  0.2351  0.0944
12459TIP3    H258793   3.781   4.164   3.553  1.6779 -0.8250 -0.2424
12460TIP3   OH258794   1.632   4.592   1.465 -0.2657 -0.1062 -0.2342
12460TIP3    H158795   1.668   4.507   1.441  1.5639  0.2786  0.8565
12460TIP3    H258796   1.709   4.650   1.467 -1.3624  1.4001 -0.2638
12461TIP3   OH258797   3.021   2.465   3.700 -0.4098 -0.2376 -0.8791
12461TIP3    H158798   2.991   2.481   3.610 -0.6812  0.1976 -0.7167
12461TIP3    H258799   3.031   2.370   3.706 -2.3500 -0.4716 -0.7728
12462TIP3   OH258800   4.838   3.038   3.935  0.3888 -0.4981 -0.0517
12462TIP3    H158801   4.860   2.948   3.913 -0.2994 -0.5209 -0.6682
12462TIP3    H258802   4.917   3.088   3.914  1.2376 -1.1150  1.5086
12463TIP3   OH258803   0.918   5.222   4.321  0.7296  0.3576  0.9268
12463TIP3    H158804   0.893   5.130   4.311  1.3599  0.1391  1.3361
12463TIP3    H258805   0.951   5.247   4.234 -0.0335  0.3901  0.6357
12464TIP3   OH258806   3.844   4.777   5.445 -0.0916 -0.0290 -0.1403
12464TIP3    H158807   3.832   4.864   5.407 -0.3527  0.0648  0.1515
12464TIP3    H258808   3.924   4.743   5.404 -1.4960 -0.8048 -2.4147
12465TIP3   OH258809   3.199   3.620   3.458 -0.1580 -0.3313 -0.1584
12465TIP3    H158810   3.204   3.708   3.496  1.1546  0.0660 -1.1593
12465TIP3    H258811   3.133   3.628   3.389  0.3744  0.0607 -0.6421
12466TIP3   OH258812   6.659   6.526   3.028 -0.5753 -0.5059 -0.0869
12466TIP3    H158813   6.565   6.512   3.016 -0.3550 -0.5075 -2.3723
12466TIP3    H258814   6.679   6.600   2.970  0.9423 -0.9351 -0.1468
12467TIP3   OH258815   3.793   0.816  14.737  0.2153  0.3168 -0.2844
12467TIP3    H158816   3.761   0.866  14.662 -2.2835  0.3562  0.7033
12467TIP3    H258817   3.774   0.725  14.716  0.2231  0.2538 -0.0221
12468TIP3   OH258818   6.081   4.595  14.173  0.1482  0.1378  0.1627
12468TIP3    H158819   6.170   4.631  14.176 -0.1324  0.8163  0.7564
12468TIP3    H258820   6.086   4.522  14.112  1.0839  0.2598  0.0853
12469TIP3   OH258821   1.363   4.706   2.663  0.6859 -0.3159 -0.5051
12469TIP3    H158822   1.330   4.665   2.582  0.4083  1.2843 -1.2417
12469TIP3    H258823   1.394   4.792   2.635  1.1026  0.0498  1.0178
12470TIP3   OH258824   5.172   1.488  11.494 -0.8297 -0.0525  0.2076
12470TIP3    H158825   5.085   1.499  11.533 -0.1945 -1.7809  2.3072
12470TIP3    H258826   5.212   1.575  11.501 -1.1039 -0.0591  2.6468
12471TIP3   OH258827   4.988   1.047  13.653 -0.0449  0.4560 -0.6760
12471TIP3    H158828   4.945   0.961  13.656 -1.9071  1.3499 -0.0707
12471TIP3    H258829   5.048   1.046  13.728  0.9782 -0.7923 -1.4802
12472TIP3   OH258830   2.486   3.762  10.821 -0.2192  0.5238 -0.4786
12472TIP3    H158831   2.574   3.733  10.847 -0.2082  1.0101  0.0441
12472TIP3    H258832   2.455   3.693  10.762 -0.6121 -1.1229  1.5335
12473TIP3   OH258833   4.992   3.929   2.832 -0.5244  0.0115 -0.1942
12473TIP3    H158834   5.017   3.868   2.901  4.1708 -1.6528 -2.9075
12473TIP3    H258835   4.964   3.873   2.759 -0.0983  1.3023 -1.3991
12474TIP3   OH258836   3.305   6.071  12.045  0.2375 -0.0619 -0.1657
12474TIP3    H158837   3.350   6.132  12.103  0.5766 -0.5635  0.0985
12474TIP3    H258838   3.336   6.095  11.957 -0.2418  0.6657 -0.1522
12475TIP3   OH258839   4.866   3.473   2.583 -0.1002 -0.1997 -0.2790
12475TIP3    H158840   4.888   3.564   2.564  0.4924 -0.3257 -0.2221
12475TIP3    H258841   4.792   3.478   2.644  1.0992  0.2953  1.2043
12476TIP3   OH258842   2.303   5.398  16.141  0.4194  0.0788 -0.1364
12476TIP3    H158843   2.259   5.442  16.214  0.3294 -0.6474  0.2477
12476TIP3    H258844   2.294   5.305  16.159  1.1862 -0.0979 -0.6102
12477TIP3   OH258845   5.075   4.858   1.691  0.1781 -0.3886  0.0170
12477TIP3    H158846   5.093   4.886   1.781  0.4191  0.2462 -0.2256
12477TIP3    H258847   4.997   4.802   1.699  1.5823 -2.3619  0.9547
12478TIP3   OH258848   3.269   0.398  16.680 -0.5080  0.1256 -0.0268
12478TIP3    H158849   3.250   0.376  16.589 -1.9278 -0.3165  0.3607
12478TIP3    H258850   3.187   0.384  16.727  0.2071  0.2883  1.3460
12479TIP3   OH258851   6.667   0.483   0.406 -0.0166  0.0681 -0.2562
12479TIP3    H158852   6.761   0.492   0.421  0.4999 -0.3567 -2.8273
12479TIP3    H258853   6.637   0.573   0.394  0.3919  0.1075 -1.0475
12480TIP3   OH258854   4.512   1.728  16.086  0.1094  0.1846 -0.7063
12480TIP3    H158855   4.523   1.804  16.143 -0.2987 -0.4254  0.2052
12480TIP3    H258856   4.424   1.739  16.049 -0.7660 -0.7965  0.9385
12481TIP3   OH258857   5.807   0.210  17.064 -0.3203 -0.2995  0.1857
12481TIP3    H158858   5.880   0.233  17.006  0.3803 -0.3700  1.0155
12481TIP3    H258859   5.838   0.232  17.152 -1.1845 -0.6247  0.5887
12482TIP3   OH258860   2.356   1.842   6.434  0.7304  0.3633  0.6095
12482TIP3    H158861   2.358   1.854   6.529  1.2722  0.0021  0.6423
12482TIP3    H258862   2.335   1.750   6.421  1.4691  0.2191  0.3877
12483TIP3   OH258863   0.346   0.673  10.674  0.0258  0.5814  0.0420
12483TIP3    H158864   0.339   0.752  10.728  0.9202 -0.1549  1.2842
12483TIP3    H258865   0.404   0.698  10.602  1.0381  0.8095  0.9215
12484TIP3   OH258866   5.548   2.971   5.822  0.1389  0.1417 -0.3090
12484TIP3    H158867   5.622   2.913   5.839  1.6363  0.9926 -3.2098
12484TIP3    H258868   5.570   3.051   5.869 -0.6742 -0.7062  1.6029
12485TIP3   OH258869   3.609   0.329  13.922 -0.2742  0.1212  0.0666
12485TIP3    H158870   3.658   0.248  13.907  0.1187  0.6025 -1.3685
12485TIP3    H258871   3.664   0.380  13.982  0.0033 -0.2071  0.0919
12486TIP3   OH258872   1.761   5.703  17.039  0.0825 -0.4706 -0.0544
12486TIP3    H158873   1.848   5.665  17.051 -0.5778 -1.9098  0.4329
12486TIP3    H258874   1.719   5.693  17.125 -1.2515 -1.6760 -0.8024
12487TIP3   OH258875   4.679   2.136  15.456 -0.1202  0.7986  0.8252
12487TIP3    H158876   4.711   2.165  15.542  3.5608  1.0882 -0.4668
12487TIP3    H258877   4.712   2.046  15.447 -2.2030  0.0274  0.4761
12488TIP3   OH258878   5.265   6.423  12.014 -0.2278  0.0803 -0.1790
12488TIP3    H158879   5.214   6.342  12.018  2.6299 -1.9476 -1.4864
12488TIP3    H258880   5.246   6.459  11.928  0.8211 -0.9344 -0.8638
12489TIP3   OH258881   0.091   3.010  16.820  0.4485  0.0246 -0.6527
12489TIP3    H158882   0.151   2.962  16.763  2.1941  0.7855  0.4453
12489TIP3    H258883   0.011   2.957  16.821  1.5105 -1.6722 -1.2328
12490TIP3   OH258884   0.458   1.956  11.050 -0.0766 -0.1866 -0.3747
12490TIP3    H158885   0.435   1.909  11.130  0.4697 -2.4039 -1.4464
12490TIP3    H258886   0.464   1.888  10.983  0.5982  1.4591 -2.0755
12491TIP3   OH258887   4.546   0.985  16.834 -0.4830  0.1300  0.0004
12491TIP3    H158888   4.452   1.000  16.838 -0.6661 -0.5275 -1.3519
12491TIP3    H258889   4.562   0.914  16.896 -0.9786 -0.2395 -0.2958
12492TIP3   OH258890   3.739   4.868  12.414 -0.0450 -0.6268  0.4981
12492TIP3    H158891   3.780   4.846  12.497  0.4519 -0.4972  0.2894
12492TIP3    H258892   3.811   4.895  12.357 -0.5438  0.8088  0.5157
12493TIP3   OH258893   0.003   5.774   5.169 -0.4257  0.3035 -0.0092
12493TIP3    H158894  -0.046   5.795   5.249 -0.6380  1.8836 -0.5252
12493TIP3    H258895  -0.052   5.710   5.124 -0.8666  0.2697  0.5586
12494TIP3   OH258896   1.754   6.002   1.716  0.4649 -0.2543  0.0436
12494TIP3    H158897   1.664   5.975   1.701  0.8800 -3.0312  1.8076
12494TIP3    H258898   1.790   6.015   1.628 -1.2492 -0.5230 -0.7399
12495TIP3   OH258899   3.399   4.041   3.334 -0.0416  0.7052 -0.2177
12495TIP3    H158900   3.350   4.122   3.320 -0.6775  0.5977  1.2447
12495TIP3    H258901   3.484   4.056   3.292  0.0561  2.3368  0.5255
12496TIP3   OH258902   6.421   2.525  13.925 -0.1203  0.3083  0.2316
12496TIP3    H158903   6.417   2.609  13.970  0.6847  0.3184  0.2985
12496TIP3    H258904   6.401   2.461  13.994  0.2015  0.3853  0.4006
12497TIP3   OH258905   4.157   1.247   0.386  0.6301  0.3499 -0.1806
12497TIP3    H158906   4.144   1.341   0.396 -0.3991  0.3280 -1.1003
12497TIP3    H258907   4.152   1.231   0.292  0.4233 -0.6622 -0.0166
12498TIP3   OH258908   3.886   0.059   1.189 -0.2982 -0.6390  0.1549
12498TIP3    H158909   3.904   0.141   1.143 -0.0601 -0.4448  0.5888
12498TIP3    H258910   3.792   0.062   1.208 -0.6107 -1.1464 -1.1270
12499TIP3   OH258911   0.304   5.538   4.084  0.1357  0.7235  0.2613
12499TIP3    H158912   0.374   5.597   4.056 -0.1633  1.1221  0.3510
12499TIP3    H258913   0.226   5.594   4.090  0.1502  0.6112  1.7118
12500TIP3   OH258914   0.024   5.043  16.632  0.2640 -0.0018  0.4764
12500TIP3    H158915   0.033   5.074  16.542 -0.0798 -0.1056  0.4056
12500TIP3    H258916  -0.065   5.065  16.657  0.8138  1.3903  1.3193
12501TIP3   OH258917   4.738   3.748  13.451 -0.6831 -0.2350 -0.1159
12501TIP3    H158918   4.751   3.653  13.456  0.2911 -0.0527  1.5325
12501TIP3    H258919   4.825   3.783  13.433 -0.8276  0.3959  0.3610
12502TIP3   OH258920   1.976   4.595   5.077  0.1309 -0.1993  0.6284
12502TIP3    H158921   2.008   4.653   5.146 -1.6748  3.0478 -0.9894
12502TIP3    H258922   1.886   4.574   5.103 -0.2245  0.2299 -0.2122
12503TIP3   OH258923   5.759   5.776   1.030  0.3445  0.2817  0.4180
12503TIP3    H158924   5.681   5.803   0.980 -0.3639 -0.3550  1.1446
12503TIP3    H258925   5.830   5.775   0.966 -0.6163 -0.9177 -0.6910
12504TIP3   OH258926   1.017   3.101  15.078  0.6475  0.0706  0.4042
12504TIP3    H158927   0.967   3.156  15.018  2.5716 -0.3904 -1.7630
12504TIP3    H258928   1.102   3.144  15.085  0.9117 -0.6263  1.7572
12505TIP3   OH258929   5.820   3.246   3.378  0.4237 -0.0487 -0.1105
12505TIP3    H158930   5.814   3.272   3.286  2.2455  2.4485  0.3732
12505TIP3    H258931   5.732   3.263   3.413 -0.4771 -1.6233 -1.4474
12506TIP3   OH258932   5.022   2.619   4.863 -0.1531  0.9988 -0.6403
12506TIP3    H158933   5.052   2.613   4.954  1.5553  2.1791 -1.0658
12506TIP3    H258934   5.075   2.690   4.825 -1.2743  0.9607 -2.3843
12507TIP3   OH258935   1.974   2.498   2.054 -0.6486  0.6457 -0.0390
12507TIP3    H158936   1.924   2.495   2.136 -2.1236  0.1591 -0.9157
12507TIP3    H258937   1.908   2.512   1.986  0.5517  1.1074 -1.1572
12508TIP3   OH258938   0.449   6.183  12.706 -0.1921 -0.1033  0.0254
12508TIP3    H158939   0.514   6.251  12.725 -0.6918 -0.2694  2.6536
12508TIP3    H258940   0.375   6.231  12.669  0.2607  0.4963 -0.1243
12509TIP3   OH258941   1.903   2.823  13.670  0.0791 -0.5570  0.5595
12509TIP3    H158942   1.886   2.820  13.575 -0.1845  0.1964  0.5737
12509TIP3    H258943   1.831   2.773  13.708 -0.5730  0.2568  0.4326
12510TIP3   OH258944   5.375   4.081  13.802 -0.2539 -0.2806  0.4657
12510TIP3    H158945   5.464   4.072  13.836 -0.4167 -0.2631  0.9098
12510TIP3    H258946   5.338   4.155  13.851 -0.2593  0.2208 -0.2726
12511TIP3   OH258947   0.730   6.459   0.102  0.0802 -0.1636 -0.0692
12511TIP3    H158948   0.731   6.523   0.031 -0.3242  0.2276  0.2690
12511TIP3    H258949   0.714   6.375   0.059 -3.1666  0.3920 -0.2517
12512TIP3   OH258950   5.915   4.299  17.359 -0.5111 -0.0411  0.7125
12512TIP3    H158951   5.963   4.239  17.301 -0.0397 -0.5872  1.6468
12512TIP3    H258952   5.973   4.374  17.370 -0.2316 -0.3173  1.1499
12513TIP3   OH258953   4.669   3.970  11.169 -0.6097  0.0292  0.0619
12513TIP3    H158954   4.716   3.950  11.089  0.2884 -2.7190  1.1501
12513TIP3    H258955   4.713   4.047  11.205 -0.2966  0.5831 -1.4696
12514TIP3   OH258956   3.855   0.958  11.362  0.1927  0.2893 -1.1930
12514TIP3    H158957   3.892   1.006  11.436 -0.8519  0.6510 -0.8829
12514TIP3    H258958   3.854   1.022  11.291 -1.5113  0.8984 -0.6892
12515TIP3   OH258959   1.958   0.523   7.087 -0.1825  0.1123  0.7641
12515TIP3    H158960   1.938   0.434   7.117  1.2297 -0.6936 -0.5295
12515TIP3    H258961   1.977   0.513   6.994 -0.5776  1.8885  0.4567
12516TIP3   OH258962   5.906   5.662   4.696 -0.4059 -0.0622  0.5032
12516TIP3    H158963   5.819   5.684   4.664 -0.0455 -0.5117 -0.8999
12516TIP3    H258964   5.898   5.571   4.727 -0.5013 -0.0188  0.6025
12517TIP3   OH258965   3.624   3.195   3.153  0.3021 -0.3410  0.6754
12517TIP3    H158966   3.609   3.287   3.172 -1.0311 -0.8591  2.3814
12517TIP3    H258967   3.695   3.195   3.089  2.3051  1.7620  2.6976
12518TIP3   OH258968   2.673   4.396  16.323 -0.3557  0.5275  0.0620
12518TIP3    H158969   2.739   4.464  16.307  0.2957 -0.4425 -1.6812
12518TIP3    H258970   2.706   4.347  16.398  0.9911  0.0083 -0.8325
12519TIP3   OH258971   2.349   3.858  12.793  0.2036 -0.0022 -0.1008
12519TIP3    H158972   2.307   3.776  12.766 -2.8276  1.0029  1.0531
12519TIP3    H258973   2.437   3.833  12.819  0.0019 -2.5619 -1.5111
12520TIP3   OH258974   2.537   1.702  11.629 -0.4249  0.3685  0.1755
12520TIP3    H158975   2.481   1.641  11.581 -1.0920  2.7876 -2.4244
12520TIP3    H258976   2.625   1.664  11.623 -0.9620 -0.8346 -0.4223
12521TIP3   OH258977   5.640   1.909  16.807  0.0715  0.3841  0.3512
12521TIP3    H158978   5.704   1.973  16.840  0.1888  0.0195  0.8488
12521TIP3    H258979   5.564   1.920  16.865 -0.2942  0.7652 -0.1936
12522TIP3   OH258980   2.235   2.265  11.302 -0.1710  0.0124 -0.1432
12522TIP3    H158981   2.211   2.235  11.214  2.6475 -0.3383 -0.9094
12522TIP3    H258982   2.226   2.187  11.357 -2.4344  0.3532  0.0802
12523TIP3   OH258983   5.005   4.792  14.512 -0.3480 -0.0513 -0.2832
12523TIP3    H158984   4.993   4.705  14.476  1.7720 -0.1567 -0.8355
12523TIP3    H258985   5.097   4.796  14.537 -0.4027  2.0045 -0.2177
12524TIP3   OH258986   1.645   5.972  13.255 -0.2214 -0.6941 -0.1494
12524TIP3    H158987   1.674   5.890  13.215 -1.4120 -0.9299 -0.5645
12524TIP3    H258988   1.703   6.038  13.218  0.9457 -1.3698  0.4073
12525TIP3   OH258989   4.918   5.146  14.667  0.3157  0.0621  0.1177
12525TIP3    H158990   4.928   5.228  14.714 -0.2410  0.9652 -1.2814
12525TIP3    H258991   4.857   5.166  14.595  0.8501 -1.3383 -0.7788
12526TIP3   OH258992   0.263   3.676   0.095  0.5775  0.5243 -0.0944
12526TIP3    H158993   0.242   3.768   0.112 -2.3148  0.0606 -0.6597
12526TIP3    H258994   0.234   3.631   0.174  0.5501 -0.0882 -0.4532
12527TIP3   OH258995   4.900   1.125  13.394 -0.4639  0.3197 -0.3659
12527TIP3    H158996   4.935   1.214  13.397  0.0857  0.1027 -0.1841
12527TIP3    H258997   4.917   1.089  13.481 -1.2433  0.2409 -0.2362
12528TIP3   OH258998   0.188   0.172   3.034  0.2743  0.1581 -0.3982
12528TIP3    H158999   0.144   0.253   3.056  1.1885  0.1842  1.4777
12528TIP3    H259000   0.199   0.126   3.117  1.1666 -1.1770 -1.2013
12529TIP3   OH259001   1.112   4.462  15.527 -0.3115 -0.4917 -0.2418
12529TIP3    H159002   1.028   4.478  15.570  0.5987 -0.9360  1.8277
12529TIP3    H259003   1.148   4.549  15.512  0.5888 -0.2669  2.6099
12530TIP3   OH259004   1.767   5.497  12.526 -0.1062 -0.0511  0.1021
12530TIP3    H159005   1.672   5.509  12.521 -0.0448 -0.0431 -1.3868
12530TIP3    H259006   1.803   5.585  12.513  0.1346 -0.3934 -1.8974
12531TIP3   OH259007   1.275   3.343   1.339  0.2027  0.3574 -0.3047
12531TIP3    H159008   1.184   3.366   1.354  0.0143 -1.2791  1.5528
12531TIP3    H259009   1.291   3.269   1.398  2.4857  0.0244 -1.2193
12532TIP3   OH259010   0.149   4.735   5.364 -0.0800  0.2715  0.4040
12532TIP3    H159011   0.110   4.648   5.360 -0.5029  0.4618  0.3029
12532TIP3    H259012   0.211   4.737   5.292 -0.6441  0.3221 -0.0948
12533TIP3   OH259013   0.058   5.639   3.932 -0.2208 -0.2123  0.3076
12533TIP3    H159014  -0.028   5.660   3.896  0.5764  0.0120 -1.6038
12533TIP3    H259015   0.064   5.690   4.012 -1.2061  1.1264 -0.4282
12534TIP3   OH259016   4.712   0.012   4.555  0.4377 -0.3412  0.1677
12534TIP3    H159017   4.639  -0.033   4.597 -1.4333 -0.1131 -2.5470
12534TIP3    H259018   4.700   0.104   4.579  0.1537 -0.3860  0.2094
12535TIP3   OH259019   2.536   0.861   3.823  0.0200  0.1009  0.5886
12535TIP3    H159020   2.565   0.784   3.871 -0.9199 -0.8391 -0.3259
12535TIP3    H259021   2.615   0.895   3.782  0.7998  0.7531  2.4784
12536TIP3   OH259022   0.265   0.832   3.834 -0.0106  0.3007  0.1971
12536TIP3    H159023   0.314   0.913   3.822  3.7324 -1.6781  0.4516
12536TIP3    H259024   0.293   0.775   3.762 -0.7505 -1.5088  1.2471
12537TIP3   OH259025   0.183   1.597   1.390 -0.4392  0.2687  0.5191
12537TIP3    H159026   0.094   1.598   1.354 -0.3066  1.7609  0.1750
12537TIP3    H259027   0.206   1.689   1.398  0.9033 -0.1015  1.0655
12538TIP3   OH259028   0.812   5.498   3.421  0.4297  0.1280 -0.6146
12538TIP3    H159029   0.716   5.500   3.413  0.0825 -1.4222  1.9441
12538TIP3    H259030   0.832   5.570   3.480  0.7505 -0.0206 -0.5430
12539TIP3   OH259031   2.044   3.960  14.653  0.3060 -0.1628  0.4173
12539TIP3    H159032   2.063   4.037  14.706  0.8037  0.0594 -0.0755
12539TIP3    H259033   1.951   3.943  14.668  0.0434  0.9007  0.0571
12540TIP3   OH259034   5.343   5.815  12.268  0.3619 -0.6056  0.2456
12540TIP3    H159035   5.333   5.842  12.359 -0.0989  0.1638 -0.0117
12540TIP3    H259036   5.402   5.880  12.230 -1.5723  0.7489 -0.6407
12541TIP3   OH259037   4.980   4.421   3.835 -0.4620 -0.2134 -1.0778
12541TIP3    H159038   5.034   4.440   3.912 -2.1918  0.8341 -0.0676
12541TIP3    H259039   4.956   4.329   3.845 -0.7005 -0.0772 -0.3353
12542TIP3   OH259040   6.364   6.329   5.696 -0.0979 -0.5158  0.0753
12542TIP3    H159041   6.334   6.302   5.609 -0.8810 -1.4044  0.5872
12542TIP3    H259042   6.443   6.277   5.711 -0.2902 -0.7957  0.1247
12543TIP3   OH259043   0.549   5.209  15.475  0.7593  0.1296 -0.4941
12543TIP3    H159044   0.493   5.157  15.417 -1.3867  0.4957  1.0995
12543TIP3    H259045   0.537   5.299  15.446 -1.5560  0.5077  1.2981
12544TIP3   OH259046   1.080   3.291  10.829 -0.4375 -0.0232 -0.4612
12544TIP3    H159047   1.045   3.208  10.860  0.1140  0.0846  0.4822
12544TIP3    H259048   1.122   3.270  10.745  2.0583 -1.2751  1.0013
12545TIP3   OH259049   1.636   3.175   4.264 -0.1250  0.4474 -0.1625
12545TIP3    H159050   1.578   3.171   4.188  1.8455  0.3220 -1.7290
12545TIP3    H259051   1.686   3.094   4.261  0.2327  0.5952  1.0833
12546TIP3   OH259052   6.543   2.705  14.327  0.1501  0.6022  0.3792
12546TIP3    H159053   6.602   2.633  14.349  0.5024  0.4614 -0.9816
12546TIP3    H259054   6.579   2.780  14.374 -0.5239 -0.1665  2.2530
12547TIP3   OH259055   0.785   5.187   1.143  0.2870 -0.4341  0.6325
12547TIP3    H159056   0.838   5.267   1.141 -0.5631  0.1249 -0.0393
12547TIP3    H259057   0.695   5.217   1.155 -0.1039 -1.2608 -0.1287
12548TIP3   OH259058   4.450   4.977   3.499 -0.3568  0.0489  0.4317
12548TIP3    H159059   4.473   5.063   3.535  0.3577  0.3518 -0.6965
12548TIP3    H259060   4.518   4.918   3.532 -1.6013 -0.4089  2.3300
12549TIP3   OH259061   4.075   5.746  14.006 -0.5733 -0.5078 -0.2699
12549TIP3    H159062   4.141   5.688  13.968 -1.0278 -0.7526 -0.6993
12549TIP3    H259063   4.036   5.695  14.076  1.1494  0.3968  1.4438
12550TIP3   OH259064   0.455   0.695  14.649  0.4051 -0.2965  0.0822
12550TIP3    H159065   0.476   0.770  14.703 -0.0689 -0.6607  0.7873
12550TIP3    H259066   0.373   0.719  14.605 -1.0008 -1.2387  2.0388
12551TIP3   OH259067   3.404   6.701  13.345 -0.2451  0.0788 -0.1733
12551TIP3    H159068   3.353   6.779  13.324  0.4430  1.2813  2.2282
12551TIP3    H259069   3.361   6.664  13.422  0.6771 -0.6793  0.0024
12552TIP3   OH259070   3.809   4.442  14.312  0.2290  0.2649  0.3366
12552TIP3    H159071   3.879   4.431  14.376  0.9084  0.8252 -0.2938
12552TIP3    H259072   3.730   4.410  14.356  1.1712 -2.1063  0.4340
12553TIP3   OH259073   4.358   5.267  11.453 -0.1577 -0.2842  0.2715
12553TIP3    H159074   4.368   5.222  11.537 -1.9084  1.3509  1.4326
12553TIP3    H259075   4.326   5.198  11.393 -0.5738 -1.1091  1.4095
12554TIP3   OH259076   4.425   3.039  15.518 -0.2467 -0.6796  0.4936
12554TIP3    H159077   4.427   2.948  15.488 -0.8377 -0.0416 -1.6184
12554TIP3    H259078   4.410   3.090  15.439  0.2632  1.2919  1.6150
12555TIP3   OH259079   5.860   1.535   5.365 -0.5766 -0.1461  0.3928
12555TIP3    H159080   5.793   1.467   5.370 -0.2873 -0.7730 -2.4493
12555TIP3    H259081   5.811   1.617   5.362 -1.1533 -0.4928  0.1048
12556TIP3   OH259082   1.350   2.500   3.561 -0.1163 -0.5343 -0.0985
12556TIP3    H159083   1.257   2.485   3.577 -0.4588  0.7726 -0.7240
12556TIP3    H259084   1.369   2.583   3.605  1.4091 -2.0211  2.2604
12557TIP3   OH259085   3.910   2.597   3.342  0.1057 -0.3761 -0.1750
12557TIP3    H159086   3.870   2.609   3.428 -0.5603 -2.0187 -0.2094
12557TIP3    H259087   3.902   2.503   3.326 -1.5275  0.1282 -2.8629
12558TIP3   OH259088   3.123   0.705   0.200  0.0312  0.5795 -0.5089
12558TIP3    H159089   3.182   0.775   0.173 -0.8161  1.8929  0.8850
12558TIP3    H259090   3.178   0.644   0.248  0.7284  0.4022 -1.5016
12559TIP3   OH259091   3.448   1.876   3.149  0.2430 -0.2769  0.6777
12559TIP3    H159092   3.357   1.870   3.118  0.5356 -0.7542 -0.1244
12559TIP3    H259093   3.451   1.820   3.226  0.7453 -3.5061 -1.5063
12560TIP3   OH259094   2.417   1.528   3.729  0.3285  0.1875 -0.1327
12560TIP3    H159095   2.420   1.606   3.784  0.0759  1.0444 -1.2879
12560TIP3    H259096   2.503   1.526   3.686  0.9649 -1.1386  1.1446
12561TIP3   OH259097   2.035   0.595   3.977  0.4116  0.5317  0.1680
12561TIP3    H159098   2.056   0.675   4.026 -0.3906  1.0260 -0.2896
12561TIP3    H259099   2.104   0.589   3.910  1.8004 -0.4019  1.5887
12562TIP3   OH259100   2.869   6.106  12.146 -0.1068  0.2674 -0.0616
12562TIP3    H159101   2.794   6.154  12.112  1.6514  1.9332 -1.8087
12562TIP3    H259102   2.944   6.138  12.096  1.8235 -1.2622  1.6351
12563TIP3   OH259103   1.108   0.233   2.323 -0.3841  0.1010 -0.2778
12563TIP3    H159104   1.164   0.310   2.315  2.1336 -1.6005 -0.1199
12563TIP3    H259105   1.151   0.166   2.269 -1.8127 -1.5695  0.5433
12564TIP3   OH259106   1.674   0.531  15.161 -0.1598  0.2918  0.7019
12564TIP3    H159107   1.689   0.591  15.088 -4.2511  1.6373  0.6937
12564TIP3    H259108   1.672   0.444  15.121 -3.0032  1.0568 -1.1002
12565TIP3   OH259109   6.328   1.602  14.759  0.6114  0.2366  0.1703
12565TIP3    H159110   6.424   1.605  14.766  0.5538  0.9508  0.7478
12565TIP3    H259111   6.297   1.622  14.847 -0.0674 -2.2485  0.5638
12566TIP3   OH259112   3.896   5.095   0.256 -0.6030 -0.0577 -0.2329
12566TIP3    H159113   3.969   5.040   0.287 -0.2993 -0.4110 -1.5281
12566TIP3    H259114   3.821   5.037   0.255 -1.3961  0.7493  2.8548
12567TIP3   OH259115   2.091   5.400   0.074  0.3527 -0.1692 -0.1911
12567TIP3    H159116   2.046   5.424   0.155 -0.2233  0.7224 -0.7566
12567TIP3    H259117   2.103   5.305   0.080 -0.8693 -0.3051  0.3482
12568TIP3   OH259118   0.034   0.642  16.997  0.1476  0.3409 -0.1073
12568TIP3    H159119  -0.005   0.588  17.066  1.0251  1.0044  0.9381
12568TIP3    H259120   0.123   0.660  17.028  1.0440 -0.4718 -2.0498
12569TIP3   OH259121   5.560   3.262   0.506 -0.1424 -0.6198 -0.2332
12569TIP3    H159122   5.528   3.258   0.596  0.1742 -1.4123 -0.1454
12569TIP3    H259123   5.528   3.346   0.473  0.2155 -0.0646  0.7861
12570TIP3   OH259124   3.438   3.033   3.529  0.1058 -0.0647  0.1357
12570TIP3    H159125   3.367   3.000   3.585 -1.7043  3.5700  0.2464
12570TIP3    H259126   3.447   3.125   3.552  0.2606  1.3322 -4.4496
12571TIP3   OH259127   0.823   1.865  17.387  0.1970 -0.3075  0.1133
12571TIP3    H159128   0.767   1.849  17.463 -0.8978 -0.2599 -0.6630
12571TIP3    H259129   0.866   1.782  17.371 -0.1919 -0.5451  0.2850
12572TIP3   OH259130   0.575   2.527  11.146  0.0088 -0.0871  0.5771
12572TIP3    H159131   0.592   2.613  11.184 -1.2550  0.7042 -0.5526
12572TIP3    H259132   0.653   2.507  11.094  0.2301  0.4542  0.7003
12573TIP3   OH259133   0.290   5.606   3.778 -0.0119 -0.1871 -0.5252
12573TIP3    H159134   0.359   5.656   3.822  0.7491 -2.4949  1.0540
12573TIP3    H259135   0.211   5.622   3.831  0.3369 -0.9759  0.2559
12574TIP3   OH259136   5.824   1.823   0.017  0.1741  0.0751  0.1080
12574TIP3    H159137   5.852   1.741   0.057 -0.4581 -0.4053 -0.4053
12574TIP3    H259138   5.728   1.816   0.011  0.1346  0.7267 -0.1985
12575TIP3   OH259139   0.665   0.166  12.776 -0.6204 -0.2579 -0.3046
12575TIP3    H159140   0.760   0.165  12.763 -0.5017  0.4818  0.4454
12575TIP3    H259141   0.652   0.123  12.861 -0.6293  2.7408  1.3328
12576TIP3   OH259142   4.025   1.343  12.299  0.0948  0.6924  0.5786
12576TIP3    H159143   4.084   1.418  12.288  0.6911  0.0553 -0.7635
12576TIP3    H259144   4.014   1.336  12.394 -0.0504  2.5198  0.7344
12577TIP3   OH259145   1.456   6.631   4.443  0.1001  0.5451  0.5208
12577TIP3    H159146   1.534   6.609   4.393 -0.4493  3.1419 -1.7326
12577TIP3    H259147   1.486   6.638   4.533  2.0030 -0.3928  0.0118
12578TIP3   OH259148   2.842   6.011   3.974  0.2698 -0.2048  0.5520
12578TIP3    H159149   2.879   6.075   4.035 -0.7662  0.7913  0.1635
12578TIP3    H259150   2.860   6.048   3.887  2.3500 -1.9342  0.1464
12579TIP3   OH259151   2.260   2.510   3.640 -0.4604  0.1248  0.1908
12579TIP3    H159152   2.339   2.459   3.651  0.2665  1.2878  0.6001
12579TIP3    H259153   2.245   2.512   3.546  0.4666  0.5568  0.0397
12580TIP3   OH259154   6.418   2.497   4.653  0.0706  0.5413 -0.0362
12580TIP3    H159155   6.387   2.586   4.635 -1.0806  0.2954  0.6431
12580TIP3    H259156   6.367   2.441   4.595  0.4564  0.2733 -0.1241
12581TIP3   OH259157   3.874   1.105   1.438 -0.8681 -0.7561 -0.1461
12581TIP3    H159158   3.826   1.173   1.391 -0.6894 -0.6365 -0.1575
12581TIP3    H259159   3.806   1.049   1.476 -1.0212 -0.4436  0.0503
12582TIP3   OH259160   3.802   5.546  16.601 -0.6000  0.5571  0.4816
12582TIP3    H159161   3.798   5.466  16.549 -0.2278  0.6386  0.3212
12582TIP3    H259162   3.756   5.611  16.548 -2.8283 -0.0358  1.5568
12583TIP3   OH259163   3.971   4.119  15.953  0.0837 -0.2176  0.5154
12583TIP3    H159164   3.887   4.145  15.916  0.2522 -0.5942 -0.1356
12583TIP3    H259165   3.948   4.061  16.025 -0.1985 -1.0422 -0.2277
12584TIP3   OH259166   4.018   5.783  12.715  0.0056  0.3255 -0.3242
12584TIP3    H159167   3.969   5.809  12.793 -1.1010  1.0176 -1.2263
12584TIP3    H259168   4.037   5.690  12.728 -3.2653 -0.5188 -0.7736
12585TIP3   OH259169   0.607   1.395   4.387  0.3686 -0.1979  0.1596
12585TIP3    H159170   0.552   1.470   4.410 -0.8606 -1.3406  1.1009
12585TIP3    H259171   0.624   1.351   4.470 -0.8040 -2.1897 -0.5763
12586TIP3   OH259172   3.503   0.459  12.129  0.4781  0.6498 -0.3427
12586TIP3    H159173   3.540   0.387  12.180  1.1390  1.1524 -0.1006
12586TIP3    H259174   3.408   0.442  12.129  0.5981 -0.0696 -0.0692
12587TIP3   OH259175   2.525   2.636  11.267 -0.4828  0.5828  0.2421
12587TIP3    H159176   2.542   2.682  11.185 -2.5238  0.1742 -0.4513
12587TIP3    H259177   2.544   2.701  11.335 -1.2505  1.7850 -0.6439
12588TIP3   OH259178   6.231   2.902   0.971  0.2318 -0.0230  0.3820
12588TIP3    H159179   6.322   2.930   0.977 -0.1016  1.2378 -0.0053
12588TIP3    H259180   6.234   2.807   0.972  1.5996  0.0012 -0.2483
12589TIP3   OH259181   0.276   4.701   1.775 -0.0841  0.1104 -0.0676
12589TIP3    H159182   0.265   4.796   1.772 -0.1751  0.0792 -1.8691
12589TIP3    H259183   0.361   4.688   1.817  0.7188  1.0840 -1.3254
12590TIP3   OH259184   4.469   3.827   5.533 -0.2868  0.3028 -0.1623
12590TIP3    H159185   4.429   3.882   5.600 -2.6769  0.1430 -1.3291
12590TIP3    H259186   4.403   3.760   5.515  0.7760 -0.3618 -1.8119
12591TIP3   OH259187   5.850   5.489   1.549  0.1126  0.2057  0.5617
12591TIP3    H159188   5.859   5.574   1.592 -0.1154 -1.1730  3.5825
12591TIP3    H259189   5.758   5.466   1.560  0.3190 -0.7280  0.4509
12592TIP3   OH259190   4.162   4.765   1.069 -0.4690 -0.2551 -0.1466
12592TIP3    H159191   4.233   4.808   1.020  0.3200  0.2979  1.4061
12592TIP3    H259192   4.118   4.837   1.115  0.3342 -0.9537  1.8216
12593TIP3   OH259193   4.770   0.748  12.046  0.1079 -0.2985 -0.0159
12593TIP3    H159194   4.763   0.796  12.128  0.7006  1.0099 -0.7029
12593TIP3    H259195   4.682   0.711  12.033 -0.0216 -0.4419  1.1347
12594TIP3   OH259196   1.729   2.844   0.827 -0.1002 -0.4012  0.2161
12594TIP3    H159197   1.738   2.786   0.752 -0.5284 -1.5217  0.9980
12594TIP3    H259198   1.810   2.896   0.827 -0.8282  0.8475 -1.9789
12595TIP3   OH259199   1.363   1.163   6.591 -0.1554  0.4462  0.9341
12595TIP3    H159200   1.418   1.107   6.646 -1.3296 -1.0714  0.6253
12595TIP3    H259201   1.280   1.170   6.639 -0.9255 -0.2759 -0.2303
12596TIP3   OH259202   4.296   3.930  10.458 -0.0681  0.7404  0.0433
12596TIP3    H159203   4.233   3.937  10.529  0.9454  0.7590  0.9618
12596TIP3    H259204   4.287   4.012  10.410 -0.3829  0.9575  0.4663
12597TIP3   OH259205   3.601   2.137   0.608  0.0849  0.3661  0.2888
12597TIP3    H159206   3.580   2.101   0.521  2.0710  0.7363 -0.3921
12597TIP3    H259207   3.570   2.227   0.604  0.3283  0.4350 -0.1058
12598TIP3   OH259208   1.795   1.226   6.619  0.1180 -0.0834  0.6036
12598TIP3    H159209   1.815   1.318   6.637 -1.1446  0.6553 -1.3212
12598TIP3    H259210   1.742   1.197   6.693  0.7464  0.6577  1.3510
12599TIP3   OH259211   0.357   3.015   4.899  0.1939  0.4760  0.0937
12599TIP3    H159212   0.309   3.033   4.818 -0.9477  0.7328  0.7984
12599TIP3    H259213   0.445   2.992   4.870 -0.6306 -1.1827 -1.3519
12600TIP3   OH259214   4.255   0.382   3.847 -0.0328  0.2859 -0.1028
12600TIP3    H159215   4.241   0.432   3.767  0.8224  2.7446  1.1908
12600TIP3    H259216   4.350   0.372   3.854  0.1730  2.7914  2.0496
12601TIP3   OH259217   6.302   3.223  14.034  0.0154 -0.6216 -0.3600
12601TIP3    H159218   6.254   3.253  14.111  2.5836  1.6272  0.5216
12601TIP3    H259219   6.261   3.268  13.960 -0.4960 -0.3162  0.1079
12602TIP3   OH259220   1.248   1.505  14.577  0.2559 -0.0880  0.3497
12602TIP3    H159221   1.319   1.566  14.598 -0.1718  0.7372 -0.5664
12602TIP3    H259222   1.294   1.426  14.547  0.8215  0.8104 -1.2828
12603TIP3   OH259223   0.724   2.439   5.731 -0.0222 -0.3283 -0.3897
12603TIP3    H159224   0.810   2.409   5.703  0.6074  1.0606 -0.0080
12603TIP3    H259225   0.686   2.478   5.652  0.4543  0.7148 -0.1096
12604TIP3   OH259226   4.537   0.346   5.547  0.2634  0.5722 -0.1318
12604TIP3    H159227   4.618   0.397   5.547  0.5580  0.1099  0.1074
12604TIP3    H259228   4.533   0.306   5.461  1.1009 -0.6658  0.3807
12605TIP3   OH259229   2.393   3.474  14.896  0.1521  0.1219  0.6115
12605TIP3    H159230   2.298   3.465  14.906 -0.5188 -0.7402 -4.0121
12605TIP3    H259231   2.424   3.386  14.876  1.4417  0.7663 -0.4197
12606TIP3   OH259232   0.536   4.333  13.854  0.0464  0.0789 -0.1273
12606TIP3    H159233   0.495   4.277  13.788 -1.1558 -0.9565  1.4217
12606TIP3    H259234   0.464   4.389  13.885 -0.0345 -1.0893  1.9396
12607TIP3   OH259235   4.902   1.441  13.238  0.1764 -0.2041 -0.2435
12607TIP3    H159236   4.993   1.436  13.265 -0.4081 -0.7001  1.8980
12607TIP3    H259237   4.853   1.407  13.313 -1.7628 -0.1087 -1.3822
12608TIP3   OH259238   2.601   3.321   3.282 -0.1978 -0.1851 -0.1029
12608TIP3    H159239   2.646   3.357   3.359  1.2240 -2.1697  0.0662
12608TIP3    H259240   2.521   3.282   3.317  1.6751 -3.4093  0.9074
12609TIP3   OH259241   5.030   5.283  13.938  0.0683 -0.1347 -0.1912
12609TIP3    H159242   5.024   5.316  13.849  0.6409  2.5679  0.6801
12609TIP3    H259243   4.941   5.293  13.973  0.0153 -0.5071 -0.2091
12610TIP3   OH259244   1.790   5.268  13.637  0.3560  0.7565 -0.2266
12610TIP3    H159245   1.831   5.324  13.703 -0.5040 -0.8652  1.7866
12610TIP3    H259246   1.860   5.208  13.610  0.1422 -0.0200  0.9061
12611TIP3   OH259247   2.792   2.698   5.799  0.2960  0.2402  0.0136
12611TIP3    H159248   2.771   2.610   5.828 -0.9808  1.0744  1.8400
12611TIP3    H259249   2.865   2.725   5.855 -0.5028  0.9527  0.7496
12612TIP3   OH259250   4.886   0.699   2.338 -0.3699 -0.6353  0.2752
12612TIP3    H159251   4.878   0.722   2.246  1.4607 -1.0282 -0.0344
12612TIP3    H259252   4.882   0.603   2.340 -2.1302 -0.5888  0.8488
12613TIP3   OH259253   0.950   0.902  11.925  0.1144 -0.2690 -0.1201
12613TIP3    H159254   0.864   0.884  11.887 -0.3907 -1.2848  1.3904
12613TIP3    H259255   0.938   0.983  11.975 -0.2893 -0.9652  0.9506
12614TIP3   OH259256   6.034   4.353  12.351 -0.4979 -0.2038  0.1646
12614TIP3    H159257   6.113   4.321  12.307 -0.6078  0.4363 -0.5046
12614TIP3    H259258   6.054   4.443  12.374 -1.0745 -0.0033 -0.1059
12615TIP3   OH259259   4.287   6.268   3.152 -0.1207 -0.0428 -0.1408
12615TIP3    H159260   4.252   6.182   3.128 -0.4790 -0.1703  0.8194
12615TIP3    H259261   4.316   6.257   3.242  3.1842 -0.1940 -1.0845
12616TIP3   OH259262   0.885   3.525  12.231 -0.4451  0.1037  0.1198
12616TIP3    H159263   0.897   3.430  12.236  0.6600  0.3171  2.2567
12616TIP3    H259264   0.837   3.548  12.310 -0.0894  1.4171 -0.0176
12617TIP3   OH259265   3.152   6.053  12.774  0.4508  0.3998  0.0678
12617TIP3    H159266   3.211   5.983  12.745 -0.0785 -0.3138  0.6433
12617TIP3    H259267   3.202   6.100  12.841  1.1141  1.1020 -0.9070
12618TIP3   OH259268   1.575   2.263   2.299 -0.2014 -0.9304 -0.0288
12618TIP3    H159269   1.568   2.181   2.249 -0.9863 -0.4548 -0.7148
12618TIP3    H259270   1.587   2.234   2.390  2.4594 -1.8073 -0.5876
12619TIP3   OH259271   3.826   2.703   4.437 -0.3717 -0.3144  0.4402
12619TIP3    H159272   3.899   2.641   4.447  0.0246  0.1350  0.4008
12619TIP3    H259273   3.762   2.656   4.384  0.4185 -0.2955 -0.5834
12620TIP3   OH259274   0.420   5.184  13.705  0.9249 -0.6116  0.3244
12620TIP3    H159275   0.353   5.192  13.772 -0.4220 -3.9885 -0.4319
12620TIP3    H259276   0.497   5.150  13.751  0.7079 -0.8404  0.5211
12621TIP3   OH259277   6.551   3.778  16.477 -0.1120  0.1663 -0.1256
12621TIP3    H159278   6.457   3.775  16.493 -0.1607  1.4853 -0.0474
12621TIP3    H259279   6.585   3.831  16.549  0.9182 -1.5926  0.7527
12622TIP3   OH259280   4.059   6.445   3.492  0.1219 -0.1498  0.1531
12622TIP3    H159281   4.119   6.410   3.558 -0.6336 -1.3679  0.2487
12622TIP3    H259282   4.111   6.506   3.441  1.1286 -0.3241  0.9365
12623TIP3   OH259283   6.511   4.641   5.590 -0.2811  0.5148  0.3364
12623TIP3    H159284   6.477   4.700   5.657  2.1376  2.0869  0.2880
12623TIP3    H259285   6.487   4.682   5.507 -1.4500 -0.3579  0.2034
12624TIP3   OH259286   3.706   5.999  15.098  0.1153  0.5406 -0.1603
12624TIP3    H159287   3.659   6.063  15.151 -2.2494 -0.6189 -0.7401
12624TIP3    H259288   3.747   6.051  15.029  1.0882  1.7626  1.2503
12625TIP3   OH259289   3.914   5.370  14.879  0.0007  0.1023  0.1133
12625TIP3    H159290   3.963   5.442  14.920 -0.2966 -0.5435  1.6968
12625TIP3    H259291   3.822   5.396  14.886 -0.1903 -0.8178  1.6248
12626TIP3   OH259292   5.561   0.434   0.056 -0.2960 -0.3736  0.2567
12626TIP3    H159293   5.577   0.510   0.112  1.1963 -1.3229  1.1949
12626TIP3    H259294   5.579   0.359   0.112  0.5012 -1.3757 -1.2752
12627TIP3   OH259295   4.309   3.560  13.474 -0.7161 -0.6886  0.6084
12627TIP3    H159296   4.296   3.643  13.519 -2.5949  0.3629 -1.6717
12627TIP3    H259297   4.266   3.495  13.529 -2.8651  0.5381  0.4510
12628TIP3   OH259298   1.107   3.006  14.286  0.1781 -0.2456  0.2675
12628TIP3    H159299   1.048   3.081  14.275  0.0519 -0.4460 -0.4939
12628TIP3    H259300   1.179   3.024  14.225  0.5203 -0.3854  0.6255
12629TIP3   OH259301   5.308   6.337   3.750 -0.0535  0.2605  0.6445
12629TIP3    H159302   5.272   6.394   3.683  0.8785  0.1191  0.0021
12629TIP3    H259303   5.371   6.392   3.797  1.7042 -0.4843 -0.7111
12630TIP3   OH259304   5.188   5.915  14.959 -0.4053 -0.1086  0.4130
12630TIP3    H159305   5.111   5.883  15.006 -1.1838  0.0213 -0.7391
12630TIP3    H259306   5.170   6.007  14.943  1.4269  0.7890  2.9173
12631TIP3   OH259307   6.219   3.373   6.056  0.3374  0.4917 -0.6236
12631TIP3    H159308   6.275   3.339   6.126 -0.7474 -1.2567 -0.5611
12631TIP3    H259309   6.130   3.366   6.090 -0.2489 -0.7143 -2.2394
12632TIP3   OH259310   5.640   5.663  16.509  0.1935 -0.2176  0.2513
12632TIP3    H159311   5.700   5.589  16.497 -2.0727 -2.0933 -0.0820
12632TIP3    H259312   5.555   5.631  16.480 -0.8294  2.7012 -0.3243
12633TIP3   OH259313   6.485   6.175  13.500 -0.7356 -0.0356  0.1807
12633TIP3    H159314   6.508   6.195  13.410  0.5762  0.5725  0.6374
12633TIP3    H259315   6.399   6.133  13.494 -1.2007  1.0775 -1.2333
12634TIP3   OH259316   4.109   4.982   4.597  1.0215 -0.1593 -0.1265
12634TIP3    H159317   4.080   4.984   4.689 -0.6159  0.9996 -0.6280
12634TIP3    H259318   4.163   5.060   4.587 -0.4948  0.8894 -0.6108
12635TIP3   OH259319   0.927   5.067  12.702 -0.3039 -0.1614 -0.1683
12635TIP3    H159320   0.974   5.148  12.681 -1.0549  0.0917 -0.9329
12635TIP3    H259321   0.835   5.092  12.701 -0.6527 -1.3411 -1.9692
12636TIP3   OH259322   3.364   2.229  14.985 -0.2998  0.5166  0.0860
12636TIP3    H159323   3.327   2.151  15.025  0.8043  0.6369  1.4311
12636TIP3    H259324   3.422   2.266  15.052  0.5687  1.5078 -1.1383
12637TIP3   OH259325   3.141   5.604   4.296  0.1006 -0.2171 -0.1395
12637TIP3    H159326   3.095   5.535   4.343 -1.0660  1.0899  0.7114
12637TIP3    H259327   3.161   5.565   4.211 -0.9038 -1.4598  0.1555
12638TIP3   OH259328   1.630   1.044  17.096 -0.6925 -0.3546 -0.5163
12638TIP3    H159329   1.646   1.028  17.003 -0.9769 -2.3048 -0.2745
12638TIP3    H259330   1.661   1.133  17.111 -0.9626  0.1363 -2.5461
12639TIP3   OH259331   1.942   3.670  17.474  0.0127  0.0232  0.3161
12639TIP3    H159332   1.903   3.745  17.430 -1.3493 -2.1729 -2.5473
12639TIP3    H259333   1.877   3.642  17.537 -0.7262 -0.3679 -0.5953
12640TIP3   OH259334   0.655   4.696   0.922 -0.4356  0.4427 -0.2440
12640TIP3    H159335   0.560   4.704   0.922 -0.3934  0.9502  0.2467
12640TIP3    H259336   0.672   4.613   0.967 -0.6543  0.2456 -0.5244
12641TIP3   OH259337   3.008   4.589  14.667  0.2616  0.3858 -0.0931
12641TIP3    H159338   3.027   4.499  14.691 -1.2146 -0.3547 -1.4181
12641TIP3    H259339   3.007   4.638  14.749 -1.9965 -1.4604  1.0999
12642TIP3   OH259340   2.104   2.632  11.985  0.3379  0.0499 -0.3015
12642TIP3    H159341   2.048   2.676  12.050  0.7663  0.6389 -0.3218
12642TIP3    H259342   2.063   2.652  11.901  0.1881 -0.1000 -0.2636
12643TIP3   OH259343   0.129   1.847   4.898  0.6620 -0.2360 -0.3089
12643TIP3    H159344   0.058   1.785   4.915  0.6887 -0.5439 -1.2868
12643TIP3    H259345   0.196   1.825   4.963 -0.1849  0.1753  0.7518
12644TIP3   OH259346   2.128   3.680  12.042  0.0211 -0.9230 -0.0102
12644TIP3    H159347   2.137   3.754  12.102 -1.6669 -1.0178  0.3970
12644TIP3    H259348   2.206   3.685  11.987 -0.1716  1.3338 -0.1829
12645TIP3   OH259349   2.202   5.067   6.151 -0.1343  0.0448  0.4590
12645TIP3    H159350   2.125   5.117   6.123  0.2386  0.9883  1.0953
12645TIP3    H259351   2.255   5.129   6.201  0.6998 -0.7896  0.6429
12646TIP3   OH259352   5.802   2.166   1.340 -0.6987 -0.0722  0.6263
12646TIP3    H159353   5.833   2.086   1.382  0.2238  0.5716  1.2345
12646TIP3    H259354   5.861   2.178   1.266 -0.4708  0.3218  0.8626
12647TIP3   OH259355   5.657   3.643   0.485 -0.4583 -0.1397  0.4876
12647TIP3    H159356   5.694   3.726   0.456 -2.4445  1.2732  1.7323
12647TIP3    H259357   5.577   3.633   0.432  0.1546 -1.7130 -0.2218
12648TIP3   OH259358   6.029   4.528   6.539 -0.0239 -0.0132 -0.0781
12648TIP3    H159359   6.110   4.494   6.502 -1.2688 -1.8581 -1.3085
12648TIP3    H259360   6.011   4.607   6.489  0.3512 -0.3216 -0.7196
12649TIP3   OH259361   5.043   3.726   3.366  0.1186 -0.4673  0.2699
12649TIP3    H159362   5.030   3.635   3.392  0.0396 -0.1830  1.2560
12649TIP3    H259363   5.121   3.754   3.414 -0.8479  0.4898  1.3429
12650TIP3   OH259364   2.744   0.758   2.589  0.8830 -0.1915 -0.2012
12650TIP3    H159365   2.786   0.700   2.525 -1.2528 -1.4428 -0.5610
12650TIP3    H259366   2.679   0.806   2.539  1.5629  1.4455  0.4118
12651TIP3   OH259367   2.393   4.383  15.986  0.0591 -0.1559  0.1156
12651TIP3    H159368   2.381   4.433  15.906  0.7635  0.3861  0.3356
12651TIP3    H259369   2.309   4.340  16.001 -0.5748  0.9874 -0.0595
12652TIP3   OH259370   1.134   0.437   1.764  0.7284 -0.7748 -0.5001
12652TIP3    H159371   1.158   0.365   1.824 -1.5982 -0.4413  0.9573
12652TIP3    H259372   1.042   0.420   1.743  1.0116  0.1224 -2.6295
12653TIP3   OH259373   5.428   5.767  14.268  0.3155 -0.0410 -0.4448
12653TIP3    H159374   5.524   5.762  14.268  0.2759 -0.9221 -0.8146
12653TIP3    H259375   5.400   5.688  14.314 -0.2081  1.4588  1.9645
12654TIP3   OH259376   1.815   2.920   4.583 -0.2254 -0.2489  0.5226
12654TIP3    H159377   1.734   2.950   4.541  0.0520 -1.7862 -1.2434
12654TIP3    H259378   1.810   2.825   4.579  1.6657 -0.3763  0.3872
12655TIP3   OH259379   2.887   5.033  13.595 -0.4774  0.5308 -0.1047
12655TIP3    H159380   2.953   5.073  13.537 -0.0332  0.8100  0.5781
12655TIP3    H259381   2.816   5.008  13.536  0.9527 -1.3994 -1.1378
12656TIP3   OH259382   3.466   1.418  11.993 -0.4303 -0.0048 -0.4935
12656TIP3    H159383   3.505   1.461  11.917 -1.0077  1.5854  0.0749
12656TIP3    H259384   3.372   1.428  11.981 -0.5965 -1.3142 -0.4301
12657TIP3   OH259385   1.635   2.875  17.294  0.1149 -0.1445 -0.0141
12657TIP3    H159386   1.613   2.958  17.337  1.0241 -0.2673  0.7126
12657TIP3    H259387   1.652   2.898  17.203  0.2224  0.4389  0.1527
12658TIP3   OH259388   2.060   5.965  16.595 -0.4663  0.2328  0.0018
12658TIP3    H159389   2.140   5.971  16.542  0.6684  0.7378  1.7068
12658TIP3    H259390   1.989   5.981  16.533  0.6916 -0.8437 -1.6926
12659TIP3   OH259391   5.355   6.056   1.916 -0.6377 -0.0795 -0.1653
12659TIP3    H159392   5.308   6.139   1.922 -1.4724 -0.5741  0.2225
12659TIP3    H259393   5.335   6.011   1.998 -0.0740 -0.6078 -0.3117
12660TIP3   OH259394   4.485   5.044   6.419  0.1029 -0.2129  0.7558
12660TIP3    H159395   4.486   5.016   6.510  1.6797  1.4790  1.3330
12660TIP3    H259396   4.424   5.118   6.418  1.2023  0.7184  0.7936
12661TIP3   OH259397   6.037   3.845  16.639 -0.5068 -0.1064  0.3437
12661TIP3    H159398   6.014   3.855  16.547 -1.0727  0.2097  0.5120
12661TIP3    H259399   5.971   3.785  16.675  0.7708 -1.6933  0.1521
12662TIP3   OH259400   2.228   3.364   3.046  0.1993 -0.3076  0.2139
12662TIP3    H159401   2.289   3.306   3.001  1.6267  0.7829  0.6550
12662TIP3    H259402   2.205   3.318   3.127 -0.5601 -1.2603 -0.5244
12663TIP3   OH259403   5.894   3.373   5.396  0.6274 -0.1840  0.3795
12663TIP3    H159404   5.901   3.462   5.361 -1.2982  0.5875  1.8269
12663TIP3    H259405   5.901   3.383   5.490 -1.7051 -1.2535  0.7415
12664TIP3   OH259406   2.643   4.450   5.530  0.2848 -0.0354  0.2187
12664TIP3    H159407   2.579   4.401   5.478  0.4515  0.1979 -0.2117
12664TIP3    H259408   2.725   4.442   5.481  0.3001  0.7288  0.1015
12665TIP3   OH259409   6.364   5.529  11.731 -0.1172 -0.3395  0.4760
12665TIP3    H159410   6.398   5.511  11.819 -0.2404 -0.5150  0.4880
12665TIP3    H259411   6.432   5.496  11.672 -0.3037 -0.7741  0.4992
12666TIP3   OH259412   0.317   5.506  14.936 -0.2600  0.1755 -0.1876
12666TIP3    H159413   0.402   5.547  14.954  2.2237 -4.1633 -0.6906
12666TIP3    H259414   0.295   5.461  15.018 -1.5845  0.4050 -0.4010
12667TIP3   OH259415   1.100   1.770  16.129  0.4624  0.1322  0.5077
12667TIP3    H159416   1.012   1.759  16.093  0.0005  1.0697  1.2942
12667TIP3    H259417   1.093   1.735  16.218  1.0316 -0.2628  0.4006
12668TIP3   OH259418   2.469   2.027  14.454  0.4890  0.7375 -0.0143
12668TIP3    H159419   2.462   1.965  14.527 -2.3365 -0.2974 -1.0075
12668TIP3    H259420   2.557   2.012  14.419  0.4097 -1.8301  0.6219
12669TIP3   OH259421   0.886   2.002   3.188 -0.2522 -1.1630  0.5086
12669TIP3    H159422   0.852   2.079   3.143 -0.1874 -0.6018  1.4010
12669TIP3    H259423   0.852   1.928   3.138 -0.0688 -0.5559 -0.5355
12670TIP3   OH259424   5.955   4.994  16.192  0.4439  0.6460  0.2080
12670TIP3    H159425   6.028   4.952  16.146 -1.4351 -2.5788 -0.1270
12670TIP3    H259426   5.914   5.050  16.127 -0.6951 -1.9675 -1.5074
12671TIP3   OH259427   4.861   3.947  14.505  0.2259  0.3050 -0.4592
12671TIP3    H159428   4.951   3.925  14.531 -0.1065  1.1928  1.6108
12671TIP3    H259429   4.819   3.976  14.586 -2.1566 -0.7463 -1.2328
12672TIP3   OH259430   0.538   3.652   6.229  0.2310  0.2662 -0.3639
12672TIP3    H159431   0.517   3.683   6.317 -2.2752 -1.0299 -0.4193
12672TIP3    H259432   0.632   3.667   6.221  0.2844  1.7800  1.9606
12673TIP3   OH259433   5.153   6.442   4.503 -0.0599  0.5343  0.0251
12673TIP3    H159434   5.068   6.483   4.487 -0.6888 -0.2814  1.1305
12673TIP3    H259435   5.132   6.351   4.521  1.1535  0.1175 -0.6045
12674TIP3   OH259436   1.682   2.332  14.416 -0.5701  0.5319  0.2283
12674TIP3    H159437   1.730   2.260  14.374 -2.0536 -0.5412  0.2986
12674TIP3    H259438   1.673   2.398  14.348 -0.0907  0.2053 -0.1578
12675TIP3   OH259439   2.051   0.072   0.377  0.3078 -0.1158 -0.4706
12675TIP3    H159440   2.075   0.074   0.285 -0.1007 -0.6647 -0.5952
12675TIP3    H259441   2.134   0.071   0.424  0.5709  2.2461 -0.7409
12676TIP3   OH259442   2.340   3.264   3.366 -0.4210 -0.3022  0.1469
12676TIP3    H159443   2.260   3.316   3.378  0.0335  0.8568 -1.4611
12676TIP3    H259444   2.311   3.187   3.318 -0.5705  0.1593 -0.5155
12677TIP3   OH259445   3.235   6.485   1.301 -0.1985 -0.2060 -0.7641
12677TIP3    H159446   3.293   6.494   1.225  0.2084 -0.8693 -0.5402
12677TIP3    H259447   3.289   6.442   1.368 -0.1591  1.4927  0.3578
12678TIP3   OH259448   6.477   1.849  11.046  0.0198 -0.0096  0.3037
12678TIP3    H159449   6.451   1.765  11.007 -0.3384 -0.4100  1.3599
12678TIP3    H259450   6.560   1.871  11.003 -0.3366 -0.4516 -0.6325
12679TIP3   OH259451   3.517   1.358  16.964 -0.1103  0.2290 -0.3512
12679TIP3    H159452   3.422   1.348  16.951  0.1525 -0.4476 -1.9882
12679TIP3    H259453   3.537   1.444  16.928  0.1551 -0.3856 -1.7250
12680TIP3   OH259454   4.820   4.339   1.382  0.2281 -0.3521  0.0681
12680TIP3    H159455   4.856   4.400   1.447  0.7732 -0.8540  0.2438
12680TIP3    H259456   4.871   4.259   1.393 -1.1068 -1.1853  0.5141
12681TIP3   OH259457   4.700   4.159   3.029  0.3856 -0.3226  0.1356
12681TIP3    H159458   4.701   4.066   3.050 -0.4152 -0.3059  0.2959
12681TIP3    H259459   4.612   4.188   3.053 -0.3420 -0.1269 -2.4480
12682TIP3   OH259460   0.996   2.570   3.162 -0.1764 -0.0012 -0.1144
12682TIP3    H159461   1.004   2.492   3.107  1.0015 -1.0061  1.3935
12682TIP3    H259462   1.081   2.613   3.155 -0.6790  0.9377 -0.5944
12683TIP3   OH259463   3.039   1.313   0.734  0.1671  0.0079 -0.3038
12683TIP3    H159464   3.087   1.241   0.691 -0.2965  0.5606 -1.8005
12683TIP3    H259465   3.048   1.387   0.674 -0.9729  0.6579  0.2970
12684TIP3   OH259466   4.244   0.782  13.792  0.0408 -0.1734 -0.2783
12684TIP3    H159467   4.250   0.857  13.852  0.5618 -0.2464 -0.2391
12684TIP3    H259468   4.150   0.761  13.790 -0.5689  2.2136 -2.4372
12685TIP3   OH259469   3.283   4.261  15.271 -0.0402  0.0092 -0.0696
12685TIP3    H159470   3.300   4.221  15.185  0.6027 -1.0720  0.5493
12685TIP3    H259471   3.269   4.186  15.330 -1.3247  0.7459  0.6153
12686TIP3   OH259472   2.671   0.963  14.204 -0.1919  0.1807 -0.1760
12686TIP3    H159473   2.630   1.037  14.160  0.5594 -0.0324 -1.2792
12686TIP3    H259474   2.675   0.989  14.296  1.4317  2.2161 -0.7278
12687TIP3   OH259475   5.145   2.847   3.243  0.2974 -0.5732 -0.0576
12687TIP3    H159476   5.063   2.833   3.196 -0.6861  1.8392  0.8110
12687TIP3    H259477   5.212   2.851   3.175 -0.7491  0.4214 -1.0560
12688TIP3   OH259478   5.226   5.253  12.978  0.3458  0.2002 -0.3621
12688TIP3    H159479   5.226   5.230  12.885  0.1583 -0.6142 -0.1714
12688TIP3    H259480   5.157   5.198  13.016  0.6498  0.2816  0.3173
12689TIP3   OH259481   4.425   5.323  13.849  0.0524  0.3192  0.7180
12689TIP3    H159482   4.340   5.297  13.813 -1.0962  4.5516 -0.2230
12689TIP3    H259483   4.480   5.337  13.772  0.8150 -0.0186  1.1915
12690TIP3   OH259484   1.268   0.164  12.628  0.1142 -0.5462  0.0910
12690TIP3    H159485   1.225   0.197  12.706  0.9588 -1.7041  1.0856
12690TIP3    H259486   1.299   0.242  12.582 -1.6711  0.2241  0.1264
12691TIP3   OH259487   2.636   4.331  17.190 -0.3319  0.6476  0.2258
12691TIP3    H159488   2.648   4.277  17.268  0.6282  1.4411  0.6403
12691TIP3    H259489   2.541   4.342  17.184 -0.4516  0.1080  0.9576
12692TIP3   OH259490   5.031   2.452   4.177 -0.1125  0.4113 -0.1198
12692TIP3    H159491   5.030   2.361   4.208 -0.8145  0.1072 -0.9699
12692TIP3    H259492   5.043   2.444   4.083  0.3552  1.2343 -0.1320
12693TIP3   OH259493   5.452   6.260   4.738  0.2377  0.0715  0.6082
12693TIP3    H159494   5.536   6.274   4.694 -0.2230  0.0710 -0.3052
12693TIP3    H259495   5.449   6.165   4.755 -1.1037 -0.6494 -2.7244
12694TIP3   OH259496   1.791   0.681   2.774 -0.2153 -0.2219  0.2108
12694TIP3    H159497   1.784   0.640   2.860  1.9873  0.2569  0.6804
12694TIP3    H259498   1.710   0.732   2.765 -0.6686 -0.6185  1.8076
12695TIP3   OH259499   4.937   5.032   1.503 -0.9368  0.1844  0.3359
12695TIP3    H159500   4.992   4.989   1.569 -0.2136  0.9003  0.2177
12695TIP3    H259501   4.903   5.109   1.548  0.5257  1.3387 -0.4576
12696TIP3   OH259502   3.140   6.557  14.771  0.5959  0.2312 -0.2799
12696TIP3    H159503   3.055   6.514  14.776  0.5528  0.3520  0.0443
12696TIP3    H259504   3.169   6.542  14.681  0.9879 -1.2310  0.0724
12697TIP3   OH259505   5.955   3.342   3.598 -0.7643 -0.1219  0.0098
12697TIP3    H159506   5.901   3.321   3.522 -0.2837  1.7711 -0.9199
12697TIP3    H259507   5.957   3.438   3.600  3.5326 -0.0128 -0.7676
12698TIP3   OH259508   0.095   3.430   6.414 -0.5998 -0.2692 -0.0284
12698TIP3    H159509   0.021   3.472   6.459 -1.9591 -0.5783 -1.8512
12698TIP3    H259510   0.092   3.339   6.442 -0.9185 -0.2794 -0.0921
12699TIP3   OH259511   1.568   4.603   4.165 -0.2153 -0.4401  0.6342
12699TIP3    H159512   1.538   4.686   4.127 -0.0005 -0.1608  1.0673
12699TIP3    H259513   1.606   4.555   4.091 -1.1933 -0.5604  0.1828
12700TIP3   OH259514   5.300   1.592   5.545  0.0693  0.1123  0.5963
12700TIP3    H159515   5.213   1.620   5.515  0.3860  1.2713  0.7019
12700TIP3    H259516   5.318   1.511   5.496 -0.4230  0.6792 -0.5646
12701TIP3   OH259517   6.439   4.758  16.228  0.3006 -0.4726  0.2523
12701TIP3    H159518   6.386   4.729  16.302  1.2645  0.2000  1.2218
12701TIP3    H259519   6.524   4.715  16.240 -0.0581 -1.7795 -1.4496
12702TIP3   OH259520   3.478   5.307  16.024  0.1740 -0.0729  0.0518
12702TIP3    H159521   3.450   5.241  15.960 -0.9869 -0.1480  0.5985
12702TIP3    H259522   3.517   5.256  16.095  0.9564 -0.0298 -0.3419
12703TIP3   OH259523   0.561   5.290   0.832  0.3175 -0.1678 -0.2133
12703TIP3    H159524   0.584   5.370   0.785 -1.3093  1.0249  0.9026
12703TIP3    H259525   0.571   5.220   0.768  0.0521  1.1515 -1.7497
12704TIP3   OH259526   5.297   3.874  15.546  0.0885  0.0435  0.6710
12704TIP3    H159527   5.286   3.876  15.451 -2.2648 -0.1605  0.8704
12704TIP3    H259528   5.389   3.851  15.559  0.1200 -1.4373 -1.5710
12705TIP3   OH259529   3.268   2.202  15.382 -0.0435  0.5063  0.4028
12705TIP3    H159530   3.340   2.250  15.340 -0.2332  1.7279  1.4081
12705TIP3    H259531   3.243   2.257  15.456 -2.1369  0.1925 -0.0176
12706TIP3   OH259532   0.901   3.948  13.428 -0.1778  0.1211  0.0681
12706TIP3    H159533   0.985   3.951  13.474  0.5256  0.9030 -1.2218
12706TIP3    H259534   0.883   4.039  13.404 -0.6580 -0.2283 -0.9520
12707TIP3   OH259535   0.257   3.276   3.539  0.3335 -0.0645 -0.4170
12707TIP3    H159536   0.186   3.307   3.595 -0.7461 -1.2123 -1.1096
12707TIP3    H259537   0.285   3.193   3.579  1.4251  0.4568 -0.0512
12708TIP3   OH259538   3.068   2.917  11.346 -0.1143  0.0660 -0.6976
12708TIP3    H159539   3.011   2.993  11.340 -1.1588 -0.7915 -2.1437
12708TIP3    H259540   3.027   2.851  11.289  0.5056 -1.7342  0.8243
12709TIP3   OH259541   5.210   3.519  15.787  0.6322  0.1030 -0.4261
12709TIP3    H159542   5.156   3.583  15.833  0.7150  0.2847 -0.5784
12709TIP3    H259543   5.157   3.439  15.785 -0.9259  1.0759 -3.1685
12710TIP3   OH259544   4.256   1.655   2.445  0.3034  0.4423  0.8613
12710TIP3    H159545   4.184   1.706   2.482 -0.3930  0.0215  0.1415
12710TIP3    H259546   4.335   1.699   2.474 -0.2636  1.2726  1.1753
12711TIP3   OH259547   4.502   5.769  17.266 -0.4320  0.5100 -0.3195
12711TIP3    H159548   4.450   5.696  17.233 -0.8720  0.8939 -0.4657
12711TIP3    H259549   4.503   5.833  17.195  2.3321 -0.5119 -1.3476
12712TIP3   OH259550   1.894   6.567  16.624 -0.5897  0.1574  0.0936
12712TIP3    H159551   1.855   6.482  16.602  2.5575 -1.5735  0.5869
12712TIP3    H259552   1.922   6.603  16.540 -0.7587  0.0658 -0.0011
12713TIP3   OH259553   6.352   2.467  16.479 -0.5252  0.1261 -0.0924
12713TIP3    H159554   6.329   2.549  16.522 -0.2794 -0.5256  1.3330
12713TIP3    H259555   6.442   2.449  16.506 -0.1964 -0.0914 -1.2512
12714TIP3   OH259556   0.903   2.385   4.382 -0.5714 -0.4978 -0.2053
12714TIP3    H159557   0.911   2.292   4.361  0.4731 -0.3644 -0.4557
12714TIP3    H259558   0.882   2.387   4.475 -1.1983 -1.0002 -0.3354
12715TIP3   OH259559   5.756   6.442   2.671  0.2237  0.3106  0.4083
12715TIP3    H159560   5.739   6.408   2.759  1.4531 -1.4519  0.0050
12715TIP3    H259561   5.850   6.428   2.658 -0.2385 -1.1958 -1.8787
12716TIP3   OH259562   2.229   0.817  14.360 -0.4137 -0.8525 -0.9320
12716TIP3    H159563   2.197   0.801  14.449 -0.4652 -0.6739 -0.9188
12716TIP3    H259564   2.219   0.911  14.347  1.1801 -0.5973 -0.5126
12717TIP3   OH259565   2.022   1.387   4.348 -0.5594 -0.2589  0.5606
12717TIP3    H159566   2.056   1.451   4.411 -0.8033 -0.1308  0.5613
12717TIP3    H259567   1.939   1.423   4.319  0.3720  0.6104 -1.2247
12718TIP3   OH259568   2.055   4.096   0.682  0.3086 -0.4530  0.0281
12718TIP3    H159569   1.969   4.130   0.705  0.6087  1.4780 -1.3940
12718TIP3    H259570   2.044   4.063   0.593  1.2530  0.8839 -0.6216
12719TIP3   OH259571   3.035   6.621   4.920  0.1983 -0.1329 -0.1660
12719TIP3    H159572   3.109   6.665   4.962 -0.7722  1.9380 -0.5099
12719TIP3    H259573   2.961   6.637   4.979 -0.0973 -1.8458 -0.0167
12720TIP3   OH259574   0.398   4.312  14.834  0.4106 -0.3953 -0.0786
12720TIP3    H159575   0.399   4.408  14.835 -0.7933 -0.3648  0.5565
12720TIP3    H259576   0.478   4.287  14.880  0.6899  0.3136 -0.1677
12721TIP3   OH259577   3.330   1.511   3.126  0.1601  0.1229 -0.2194
12721TIP3    H159578   3.320   1.417   3.137 -0.2421  0.4526  3.3388
12721TIP3    H259579   3.420   1.529   3.150  0.0508  0.7024 -0.2250
12722TIP3   OH259580   2.250   0.835  14.986 -0.3256 -0.2544 -0.0293
12722TIP3    H159581   2.202   0.840  15.068 -1.6449 -1.0208 -0.7302
12722TIP3    H259582   2.192   0.874  14.921  0.3987 -0.3201 -0.7339
12723TIP3   OH259583   4.745   2.518  16.297  0.1588  0.3581  0.0249
12723TIP3    H159584   4.683   2.488  16.231 -0.9104  0.0315  1.1324
12723TIP3    H259585   4.704   2.595  16.336 -0.0011 -0.3830  1.3854
12724TIP3   OH259586   0.164   6.504  15.154  0.3588 -0.2663  0.3733
12724TIP3    H159587   0.180   6.585  15.105 -1.0503 -0.5502 -0.6106
12724TIP3    H259588   0.071   6.486  15.142  0.1209 -0.7947  2.5307
12725TIP3   OH259589   5.416   5.373  12.378  0.1495  0.0909 -0.1279
12725TIP3    H159590   5.420   5.459  12.419 -1.5441  0.9669 -1.6262
12725TIP3    H259591   5.385   5.315  12.446  0.2382  0.8931  0.6118
12726TIP3   OH259592   4.096   6.619   0.395 -0.5914  0.3212 -0.8349
12726TIP3    H159593   4.165   6.599   0.331 -0.3560 -0.5445 -0.3317
12726TIP3    H259594   4.110   6.555   0.465 -0.3643  1.7146  0.4523
12727TIP3   OH259595   3.714   5.648   2.056 -0.2109  0.1624  0.5208
12727TIP3    H159596   3.720   5.555   2.033  1.3379  0.7972 -1.9864
12727TIP3    H259597   3.798   5.667   2.098  0.3813  0.8678 -0.9323
12728TIP3   OH259598   0.877   2.197  17.015 -0.2742  0.3270  0.6231
12728TIP3    H159599   0.870   2.177  16.922 -0.9398  0.6480  0.5949
12728TIP3    H259600   0.814   2.268  17.029 -0.2953  0.1728  1.3493
12729TIP3   OH259601   3.777   2.793  14.128  0.3865 -0.1151 -0.8717
12729TIP3    H159602   3.852   2.841  14.093  0.1553  0.3408 -0.7410
12729TIP3    H259603   3.710   2.799  14.059  0.6445 -0.9637 -1.2083
12730TIP3   OH259604   0.026   1.098   6.846  0.3553  0.5006 -0.1452
12730TIP3    H159605  -0.028   1.029   6.807  2.5266 -1.3625 -0.0497
12730TIP3    H259606  -0.014   1.179   6.815 -1.8437 -0.7619 -0.9147
12731TIP3   OH259607   4.870   5.555   5.870 -0.2426  0.6612 -0.1549
12731TIP3    H159608   4.808   5.622   5.842  0.6857  1.1701 -1.0401
12731TIP3    H259609   4.956   5.595   5.856  0.3183 -0.6418 -0.5208
12732TIP3   OH259610   1.232   5.575   6.001  0.0369 -1.0940 -0.6156
12732TIP3    H159611   1.141   5.574   6.029  0.5674 -2.0001  1.2259
12732TIP3    H259612   1.259   5.667   6.013 -0.7116 -0.7423 -1.5268
12733TIP3   OH259613   2.966   1.308   3.121 -0.2097  0.1358 -0.2505
12733TIP3    H159614   2.900   1.245   3.091 -0.7704  0.1932  0.8260
12733TIP3    H259615   2.926   1.393   3.104  0.4177  0.2161 -1.4124
12734TIP3   OH259616   4.308   5.581  17.176 -0.6441  0.5386 -0.7455
12734TIP3    H159617   4.361   5.509  17.209 -1.0462  0.6631  0.2265
12734TIP3    H259618   4.268   5.547  17.096  0.0963  0.0993 -0.9369
12735TIP3   OH259619   1.306   2.879   2.025 -0.2015  0.2156  0.4282
12735TIP3    H159620   1.280   2.788   2.044 -0.9346 -0.0421 -1.5328
12735TIP3    H259621   1.392   2.888   2.065  0.4420 -1.7588 -0.3908
12736TIP3   OH259622   0.233   2.508   3.645 -0.0888  0.1395 -0.4598
12736TIP3    H159623   0.148   2.507   3.601 -0.6227 -1.0285  0.5603
12736TIP3    H259624   0.231   2.434   3.705  1.5626  0.2387 -0.2231
12737TIP3   OH259625   4.274   3.471   6.031 -0.1534 -0.1782 -0.7673
12737TIP3    H159626   4.244   3.391   6.075 -0.9218 -0.8774 -2.4639
12737TIP3    H259627   4.321   3.439   5.954  2.3320  0.9796  0.1920
12738TIP3   OH259628   1.544   4.239  14.191  0.1364  0.3467 -0.1622
12738TIP3    H159629   1.566   4.172  14.256  0.3529 -1.0683 -1.6148
12738TIP3    H259630   1.591   4.317  14.220  2.3354 -0.9555  0.0214
12739TIP3   OH259631   4.721   6.465  16.607 -0.6325 -0.1076  0.0318
12739TIP3    H159632   4.677   6.549  16.595  2.2669  1.7902  1.4541
12739TIP3    H259633   4.784   6.461  16.535 -0.0531 -0.5712  0.5571
12740TIP3   OH259634   2.305   5.506  15.656 -0.4523  0.1032 -0.4672
12740TIP3    H159635   2.369   5.521  15.725 -0.4189 -0.6940 -0.3160
12740TIP3    H259636   2.266   5.591  15.640  1.1240  0.7563 -1.0358
12741TIP3   OH259637   3.506   6.532   6.252 -0.3074  0.1886  0.5923
12741TIP3    H159638   3.465   6.584   6.183 -0.8458  0.3086  0.9856
12741TIP3    H259639   3.449   6.455   6.261 -0.2135  0.1470  0.8579
12742TIP3   OH259640   4.187   4.797  13.318 -0.6590  0.2182 -0.2024
12742TIP3    H159641   4.110   4.854  13.324 -0.0436  1.1370 -0.8177
12742TIP3    H259642   4.231   4.809  13.402 -0.9255  0.0668 -0.0391
12743TIP3   OH259643   3.935   1.174   5.080  0.4132 -0.0584 -0.4093
12743TIP3    H159644   3.844   1.180   5.107  0.5077  0.2241 -0.1408
12743TIP3    H259645   3.933   1.124   4.998 -0.1016  0.8866 -0.9958
12744TIP3   OH259646   5.337   5.991  14.142  0.0622  0.6007  0.0600
12744TIP3    H159647   5.425   6.028  14.136  0.2801  0.1636  0.4461
12744TIP3    H259648   5.350   5.909  14.190 -0.7247  1.1461  1.2384
12745TIP3   OH259649   6.423   4.363  14.381  0.1448  0.0105  0.6289
12745TIP3    H159650   6.491   4.429  14.369 -0.5979  0.6708 -0.1257
12745TIP3    H259651   6.348   4.412  14.416  0.3650 -0.8895  2.4701
12746TIP3   OH259652   5.984   1.044   6.381 -0.0395 -0.0166  0.0780
12746TIP3    H159653   6.046   1.115   6.396  0.0939 -0.4260  1.5929
12746TIP3    H259654   6.038   0.972   6.348  0.3781 -0.4830  1.7175
12747TIP3   OH259655   2.125   0.599   5.225  0.1044  0.5191 -0.1182
12747TIP3    H159656   2.069   0.545   5.169  2.3979 -1.7322 -0.4129
12747TIP3    H259657   2.148   0.674   5.171 -0.9016  0.4174 -0.7270
12748TIP3   OH259658   1.840   1.341   2.966 -0.5428  0.1938 -0.6530
12748TIP3    H159659   1.772   1.331   3.032 -0.1710  2.5005  0.1530
12748TIP3    H259660   1.824   1.270   2.904 -2.2021 -0.7386  0.7706
12749TIP3   OH259661   2.887   2.455   5.876  0.9581 -0.1443 -0.4240
12749TIP3    H159662   2.935   2.393   5.930  0.3643  0.3038  0.6615
12749TIP3    H259663   2.954   2.516   5.844  1.1696  0.4363  1.0162
12750TIP3   OH259664   0.841   0.135  13.961  0.1546  0.4051  0.2103
12750TIP3    H159665   0.903   0.131  13.888 -1.6396 -1.9030 -1.2928
12750TIP3    H259666   0.879   0.201  14.020  3.1711  0.2630 -1.3694
12751TIP3   OH259667   0.928   1.231   4.549 -0.3544 -0.3756 -0.3622
12751TIP3    H159668   1.003   1.208   4.604 -0.5676 -1.5322 -0.5311
12751TIP3    H259669   0.944   1.185   4.467 -0.5470  0.5211 -0.9112
12752TIP3   OH259670   5.860   6.206   1.657 -0.0085  0.0101 -0.0151
12752TIP3    H159671   5.955   6.202   1.644 -0.1010 -2.5500 -0.3268
12752TIP3    H259672   5.849   6.199   1.752  0.1258  2.7087  0.2734
12753TIP3   OH259673   2.782   5.993   3.142  0.6634  0.0118  0.0697
12753TIP3    H159674   2.706   5.955   3.186  0.4104  1.6786  1.1900
12753TIP3    H259675   2.752   6.010   3.053 -0.4215  0.9297  0.5807
12754TIP3   OH259676   0.230   5.531   4.887  0.3323 -0.3238  0.1765
12754TIP3    H159677   0.309   5.575   4.854 -0.6787  0.5625 -1.2101
12754TIP3    H259678   0.172   5.529   4.811 -0.4942 -2.1350  0.8206
12755TIP3   OH259679   4.682   2.111  12.996  0.4998  0.4338 -0.3468
12755TIP3    H159680   4.642   2.158  13.069 -0.5473 -0.6424 -0.1875
12755TIP3    H259681   4.661   2.019  13.013  0.9463  0.0842 -1.5755
12756TIP3   OH259682   0.867   0.735  14.633  0.0872 -0.0490 -0.1570
12756TIP3    H159683   0.805   0.770  14.568  0.1263 -3.4113 -2.2668
12756TIP3    H259684   0.925   0.808  14.652 -1.2921  1.7333 -2.2478
12757TIP3   OH259685   5.999   6.559  12.499  0.9880  0.0729 -0.5311
12757TIP3    H159686   6.016   6.649  12.529 -1.1861  0.8568 -1.4792
12757TIP3    H259687   6.046   6.553  12.416  0.5662  0.5826 -0.8113
12758TIP3   OH259688   3.734   1.624   3.734 -0.4217  0.1179 -0.3762
12758TIP3    H159689   3.786   1.631   3.814  0.9380  0.6371 -1.2564
12758TIP3    H259690   3.681   1.704   3.733  0.5091  0.7492 -0.6096
12759TIP3   OH259691   4.903   6.342  12.116  0.2060 -0.3612 -0.2773
12759TIP3    H159692   4.809   6.335  12.132  0.0829  0.1816 -0.7500
12759TIP3    H259693   4.943   6.304  12.194 -0.3882 -3.1219 -1.2264
12760TIP3   OH259694   0.700   5.882   5.260  0.2006  0.2814 -0.0715
12760TIP3    H159695   0.681   5.799   5.305  0.0863 -0.8172 -2.0475
12760TIP3    H259696   0.618   5.905   5.216  0.8003  0.3980 -1.1392
12761TIP3   OH259697   6.135   6.175   2.804 -0.4237 -0.0708  0.0937
12761TIP3    H159698   6.043   6.147   2.794  0.2179 -1.9252 -1.1994
12761TIP3    H259699   6.131   6.270   2.799 -2.0627 -0.1741 -2.3815
12762TIP3   OH259700   3.311   5.043   1.602 -0.4355  0.0567 -0.0919
12762TIP3    H159701   3.352   4.978   1.545 -1.2617 -0.7224  0.1836
12762TIP3    H259702   3.380   5.109   1.617 -0.6039  1.0766 -3.1445
12763TIP3   OH259703   5.383   4.585  12.376 -0.8729  0.6092 -0.3807
12763TIP3    H159704   5.429   4.638  12.441 -2.8663  1.5661  0.3277
12763TIP3    H259705   5.415   4.617  12.292 -3.5398  4.6883 -0.1156
12764TIP3   OH259706   4.389   2.140  13.305 -0.1087 -0.2772  0.1054
12764TIP3    H159707   4.478   2.174  13.320 -1.2216  2.7545  0.6086
12764TIP3    H259708   4.342   2.160  13.386 -1.7684  0.1779 -0.9184
12765TIP3   OH259709   3.404   6.034  13.870 -0.8236 -0.7855 -0.0653
12765TIP3    H159710   3.335   5.975  13.898 -1.0572  0.4928  2.2696
12765TIP3    H259711   3.432   6.079  13.949  1.0933  0.4166 -1.3277
12766TIP3   OH259712   3.727   1.799   1.407 -0.0754 -0.6684  0.1949
12766TIP3    H159713   3.689   1.886   1.424  2.0058  0.2735  0.3793
12766TIP3    H259714   3.788   1.813   1.335 -0.9152 -2.3778 -0.9083
12767TIP3   OH259715   4.913   6.033   5.312  0.0596  0.5320  0.6648
12767TIP3    H159716   4.954   6.103   5.261 -0.1212  1.3376  1.5963
12767TIP3    H259717   4.852   6.078   5.369  0.5872 -0.2923  1.9160
12768TIP3   OH259718   1.779   6.306   0.021  0.8543 -0.3288 -0.2494
12768TIP3    H159719   1.754   6.395  -0.005 -0.6968 -0.6118  0.1970
12768TIP3    H259720   1.739   6.249  -0.046 -2.0756 -0.9719  1.8477
12769TIP3   OH259721   5.902   3.170  15.629 -0.1711  0.2927  0.1271
12769TIP3    H159722   5.875   3.207  15.713 -0.8163  1.9354 -0.7643
12769TIP3    H259723   5.842   3.098  15.614 -0.0997  0.0271  1.0183
12770TIP3   OH259724   0.668   0.928  12.895 -0.0374  0.0399  0.0655
12770TIP3    H159725   0.675   0.968  12.981  1.0631  1.4450 -0.6399
12770TIP3    H259726   0.669   0.834  12.912  2.3743  0.2341  1.4960
12771TIP3   OH259727   3.165   0.120  16.974  0.8138  0.3169 -0.2715
12771TIP3    H159728   3.219   0.126  17.053  0.9061 -3.0144  0.0820
12771TIP3    H259729   3.225   0.086  16.907 -0.1334 -0.7142 -0.6425
12772TIP3   OH259730   6.505   1.236  16.466 -0.8248  0.0215  0.3584
12772TIP3    H159731   6.459   1.312  16.503 -0.8309  0.1317  0.1246
12772TIP3    H259732   6.438   1.191  16.414 -0.7152  0.0774  0.1713
12773TIP3   OH259733   5.241   2.772   2.432  0.0851  0.1694  0.0866
12773TIP3    H159734   5.226   2.821   2.351  0.8105 -0.1086 -0.2235
12773TIP3    H259735   5.153   2.758   2.468 -0.1470  1.5224  0.0841
12774TIP3   OH259736   1.124   4.604   4.021  0.1187  0.0833  0.3701
12774TIP3    H159737   1.142   4.527   4.074 -1.1802 -0.6866 -0.2744
12774TIP3    H259738   1.209   4.648   4.014  0.3379  0.2098  3.0102
12775TIP3   OH259739   0.309   3.664   1.124  0.1554  0.0644  0.7395
12775TIP3    H159740   0.244   3.676   1.055  0.5221  1.9422  0.6904
12775TIP3    H259741   0.315   3.749   1.167  3.2097  0.2552  0.1643
12776TIP3   OH259742   1.487   1.638   5.858 -0.3566  0.9518  0.3586
12776TIP3    H159743   1.507   1.616   5.767 -1.9540 -1.5457  0.5331
12776TIP3    H259744   1.541   1.715   5.876  0.3510  1.2377 -2.5371
12777TIP3   OH259745   5.944   2.560   2.288  0.0023 -0.4613  0.6539
12777TIP3    H159746   5.863   2.612   2.292 -0.9213 -1.8151  0.2640
12777TIP3    H259747   6.011   2.623   2.262 -1.1493  0.4722 -0.2027
12778TIP3   OH259748   1.319   6.536  12.185  0.5117  0.2135  0.3262
12778TIP3    H159749   1.328   6.473  12.256 -1.2795 -0.2256  0.2197
12778TIP3    H259750   1.295   6.618  12.230  0.6585  0.2655  0.3103
12779TIP3   OH259751   5.169   2.948  13.067  0.5036  0.4230  0.6357
12779TIP3    H159752   5.133   3.017  13.123  0.3769  0.9587 -0.0932
12779TIP3    H259753   5.109   2.874  13.079 -0.6528  1.1811 -0.2750
12780TIP3   OH259754   0.856   3.290  11.726  0.2661 -0.6500  0.2194
12780TIP3    H159755   0.944   3.253  11.733 -0.2578 -1.8475  0.9018
12780TIP3    H259756   0.799   3.213  11.722 -0.6668  0.0838 -1.7214
12781TIP3   OH259757   4.427   2.010  12.185 -0.0402  0.3148 -0.3206
12781TIP3    H159758   4.471   1.994  12.269  1.3419  0.6586 -0.9450
12781TIP3    H259759   4.378   2.091  12.199  1.0321  0.9601 -0.1149
12782TIP3   OH259760   1.568   2.419   4.096 -0.3707  0.6564  0.2025
12782TIP3    H159761   1.580   2.348   4.034 -0.8092  2.7225 -2.4262
12782TIP3    H259762   1.476   2.411   4.124 -0.6163  0.5700 -0.6069
12783TIP3   OH259763   5.120   2.920   5.452  0.0287 -0.3781 -0.4764
12783TIP3    H159764   5.172   2.923   5.372  1.0350  0.9397  0.1844
12783TIP3    H259765   5.122   3.010   5.485 -0.4054 -0.8830  0.9954
12784TIP3   OH259766   6.451   3.326  11.140 -0.1111 -0.2733  0.3045
12784TIP3    H159767   6.389   3.276  11.193  0.3462  0.3835  1.4944
12784TIP3    H259768   6.396   3.374  11.078 -0.5766 -1.9002 -0.5793
12785TIP3   OH259769   4.625   0.934  13.844 -0.3949 -0.1284  0.2627
12785TIP3    H159770   4.669   1.011  13.880 -0.9404 -0.2699  1.2606
12785TIP3    H259771   4.568   0.968  13.775  2.0144 -0.0404 -1.8437
12786TIP3   OH259772   6.524   4.294  17.110 -0.1813  0.1143  0.1377
12786TIP3    H159773   6.529   4.300  17.205  0.4036 -0.3119  0.1351
12786TIP3    H259774   6.598   4.238  17.085  0.6649  1.5305 -0.6898
12787TIP3   OH259775   2.366   5.398   5.038  0.8052  0.0333 -0.5465
12787TIP3    H159776   2.273   5.417   5.027  0.9680  1.2396 -0.0642
12787TIP3    H259777   2.374   5.372   5.130  1.3776  3.2166  0.4290
12788TIP3   OH259778   5.451   0.225  16.864 -0.8241  0.2564  1.0331
12788TIP3    H159779   5.404   0.284  16.805 -0.2939 -0.9194 -0.6315
12788TIP3    H259780   5.505   0.284  16.918  0.4008  1.2941 -1.2059
12789TIP3   OH259781   2.595   1.220  12.545 -0.3606  0.1888  0.1396
12789TIP3    H159782   2.539   1.189  12.615 -2.4513  1.5320 -0.8235
12789TIP3    H259783   2.684   1.201  12.574 -1.1828  0.1840  2.8634
12790TIP3   OH259784   0.756   1.107  12.257  0.1742  0.0958 -0.1470
12790TIP3    H159785   0.840   1.131  12.216  0.4502 -2.0593 -0.9584
12790TIP3    H259786   0.780   1.047  12.328 -0.6660 -0.2734 -0.1636
12791TIP3   OH259787   3.054   5.372   6.858 -0.3245  0.2863 -0.1736
12791TIP3    H159788   3.101   5.290   6.841  0.8150  0.6828  0.9006
12791TIP3    H259789   3.121   5.440   6.850 -0.8876  0.9470  0.5763
12792TIP3   OH259790   3.985   0.273   6.283  0.3865 -0.1536 -0.6446
12792TIP3    H159791   3.946   0.199   6.329 -2.6634  1.6657 -0.0337
12792TIP3    H259792   3.970   0.348   6.340 -2.1072  1.9376 -3.6588
12793TIP3   OH259793   2.208   3.011  15.461  0.3160  0.0594  0.0279
12793TIP3    H159794   2.122   2.992  15.497  0.5826 -0.3684  0.4542
12793TIP3    H259795   2.213   3.106  15.458 -0.6403  0.0981 -1.1518
12794TIP3   OH259796   0.050   2.232  11.518  0.4118  0.0525 -0.5436
12794TIP3    H159797   0.016   2.254  11.605  2.2966 -1.6524  0.7109
12794TIP3    H259798   0.006   2.150  11.495 -0.0866  0.5030 -1.2147
12795TIP3   OH259799   6.022   0.778  16.936 -0.1808 -0.7296  0.1353
12795TIP3    H159800   5.976   0.785  16.852 -0.8102 -0.6067  0.4893
12795TIP3    H259801   6.023   0.867  16.970  1.8207 -0.4112 -0.6507
12796TIP3   OH259802   0.873   2.771  10.693  0.1527 -0.1178  0.1511
12796TIP3    H159803   0.826   2.833  10.748  0.0973 -1.4998  1.7445
12796TIP3    H259804   0.806   2.735  10.635  0.3998  2.0897 -1.6421
12797TIP3   OH259805   1.419   4.627  16.116  0.1819 -0.5298  0.3067
12797TIP3    H159806   1.452   4.558  16.060 -1.0048  0.7499 -2.1133
12797TIP3    H259807   1.457   4.708  16.082 -1.4964  0.4270  0.5286
12798TIP3   OH259808   5.893   0.534   1.107 -0.5407 -0.0807  0.5261
12798TIP3    H159809   5.945   0.455   1.091 -1.5286 -0.6748  0.1627
12798TIP3    H259810   5.930   0.599   1.046  1.9546  0.5815  2.5636
12799TIP3   OH259811   4.167   1.526  12.626 -0.3685  0.3545 -0.0092
12799TIP3    H159812   4.193   1.447  12.579 -2.1879 -0.9657  1.0983
12799TIP3    H259813   4.238   1.589  12.608  0.8821 -1.3383 -1.3077
12800TIP3   OH259814   2.555   4.898   5.047  0.1704  0.4754 -0.2399
12800TIP3    H159815   2.520   4.983   5.018  1.6167  0.0926 -3.5325
12800TIP3    H259816   2.584   4.855   4.967  0.6622 -2.6518  1.4568
12801TIP3   OH259817   0.102   3.214   6.855  0.1671 -0.1033 -0.1747
12801TIP3    H159818   0.022   3.256   6.823 -0.9393 -1.8166  0.2119
12801TIP3    H259819   0.125   3.152   6.786 -0.3535 -1.4564  0.8144
12802TIP3   OH259820   2.194   2.376   1.257  0.0855  0.0424 -0.6829
12802TIP3    H159821   2.192   2.282   1.274  1.4144  0.0610 -0.2913
12802TIP3    H259822   2.283   2.393   1.225  0.3285  1.3794  0.6027
12803TIP3   OH259823   5.681   1.247   6.664 -0.5312 -0.1561  0.1448
12803TIP3    H159824   5.613   1.311   6.645  0.1730  0.6178  0.2137
12803TIP3    H259825   5.762   1.288   6.634 -0.2071 -1.4720 -0.8822
12804TIP3   OH259826   4.761   2.304  17.337  0.2559 -0.2336 -0.0830
12804TIP3    H159827   4.713   2.341  17.263  0.4915  0.3823  0.0665
12804TIP3    H259828   4.747   2.366  17.408 -0.4180 -1.0952  0.5559
12805TIP3   OH259829   0.125   3.444   1.898  0.4771 -0.0432  0.2696
12805TIP3    H159830   0.060   3.374   1.892  1.1685 -0.7036  0.3023
12805TIP3    H259831   0.140   3.455   1.992  2.0622 -1.4897  0.2368
12806TIP3   OH259832   1.006   3.033   0.418 -0.0634  0.4395  0.9503
12806TIP3    H159833   1.023   2.998   0.505  0.2210 -1.5005  0.1736
12806TIP3    H259834   0.921   3.076   0.425  0.1503  0.6902  2.2681
12807TIP3   OH259835   3.776   2.193  12.246 -0.1016 -0.1421  0.0988
12807TIP3    H159836   3.753   2.113  12.294  0.5583 -1.7228 -2.0640
12807TIP3    H259837   3.693   2.223  12.208 -0.3195  0.0993  0.7603
12808TIP3   OH259838   0.979   5.151   6.380 -0.5786 -0.5450  0.8280
12808TIP3    H159839   0.978   5.109   6.466  0.1210  0.3411  1.2902
12808TIP3    H259840   1.012   5.239   6.397  0.3394 -0.6147 -0.4628
12809TIP3   OH259841   6.377   6.297  16.945 -0.8262 -0.7659  0.0566
12809TIP3    H159842   6.395   6.204  16.932  0.8775 -1.0340  3.2817
12809TIP3    H259843   6.324   6.322  16.870 -1.6027 -4.3838 -0.7837
12810TIP3   OH259844   4.146   2.137  17.602  0.2798 -0.4835 -0.9239
12810TIP3    H159845   4.118   2.065  17.545 -0.5709 -1.0304  0.1580
12810TIP3    H259846   4.133   2.104  17.691 -0.6445  1.2041 -0.3955
12811TIP3   OH259847   5.557   4.748   2.440  0.0996 -0.1969  0.0143
12811TIP3    H159848   5.550   4.681   2.508  0.3466 -1.0819 -0.8183
12811TIP3    H259849   5.627   4.806   2.471 -0.6799  0.1889  1.1431
12812TIP3   OH259850   4.818   6.650   5.760 -0.2923 -0.5729  0.3521
12812TIP3    H159851   4.816   6.582   5.827 -0.9016 -0.3298  0.5942
12812TIP3    H259852   4.812   6.732   5.808 -1.6822 -0.4221 -0.0166
12813TIP3   OH259853   1.672   5.145  15.256  0.0364 -0.0289 -0.1040
12813TIP3    H159854   1.618   5.223  15.266 -0.3939 -0.2441 -0.7020
12813TIP3    H259855   1.621   5.087  15.199  0.1387 -0.9327  0.6950
12814TIP3   OH259856   6.439   1.355  12.217 -0.2986  0.8078 -0.0607
12814TIP3    H159857   6.482   1.283  12.171 -1.1714 -0.1285  0.5409
12814TIP3    H259858   6.347   1.347  12.193 -0.2078  2.7762 -1.3332
12815TIP3   OH259859   5.028   1.728   6.140 -0.1536 -0.5226 -0.3572
12815TIP3    H159860   4.976   1.737   6.060 -0.1744 -0.2056 -0.3100
12815TIP3    H259861   5.003   1.643   6.175  0.8052 -1.2434 -1.3638
12816TIP3   OH259862   1.244   5.412   4.660 -0.2761  0.2882  0.0912
12816TIP3    H159863   1.234   5.350   4.588 -0.4548 -1.1526  1.3059
12816TIP3    H259864   1.159   5.412   4.703  0.1851  0.2112  1.0144
12817TIP3   OH259865   4.060   4.181  16.461  0.3576  0.1751 -0.1446
12817TIP3    H159866   3.994   4.113  16.467  1.9695 -1.4900 -0.3289
12817TIP3    H259867   4.027   4.252  16.517 -1.7996 -0.3428 -0.6830
12818TIP3   OH259868   1.566   5.573   3.280 -0.9663 -0.0308  0.2227
12818TIP3    H159869   1.477   5.540   3.272 -0.8777 -0.1717 -0.1936
12818TIP3    H259870   1.618   5.517   3.222 -0.8556  1.0237 -0.7329
12819TIP3   OH259871   1.494   5.995   5.856  0.1196 -0.2411  0.1631
12819TIP3    H159872   1.574   5.950   5.882  0.1649 -0.0862  0.2881
12819TIP3    H259873   1.523   6.069   5.803 -0.0327 -1.6919 -2.1168
12820TIP3   OH259874   0.336   6.433  16.006  0.6206  0.4014 -0.6017
12820TIP3    H159875   0.328   6.505  16.069  0.0920 -0.7712  0.7424
12820TIP3    H259876   0.245   6.411  15.984  0.7502 -0.3655 -0.3844
12821TIP3   OH259877   5.862   4.500  13.799 -0.3341  0.0029  0.1244
12821TIP3    H159878   5.935   4.549  13.760 -0.8230 -0.0548 -0.8828
12821TIP3    H259879   5.796   4.567  13.817  0.1816  0.1567  1.6400
12822TIP3   OH259880   1.034   4.026   4.858  0.3904  0.2667  0.2112
12822TIP3    H159881   1.067   4.047   4.945 -0.4579  0.7401  0.4346
12822TIP3    H259882   0.977   3.950   4.872 -0.6720  1.0539  0.2810
12823TIP3   OH259883   6.342   5.079  16.067 -0.0760  0.2192  0.1285
12823TIP3    H159884   6.394   5.091  16.146  0.3765  1.4004 -0.3106
12823TIP3    H259885   6.391   5.016  16.015 -0.4423 -0.6614  0.8341
12824TIP3   OH259886   4.462   5.780  14.609  0.6252 -0.3842 -0.1965
12824TIP3    H159887   4.438   5.817  14.524  1.8804  2.1400  0.4537
12824TIP3    H259888   4.554   5.756  14.600  0.9091  0.3577  0.5576
12825TIP3   OH259889   1.231   3.860   2.398 -0.2979  0.0330  0.3218
12825TIP3    H159890   1.308   3.852   2.342 -0.5249 -1.3419  0.1926
12825TIP3    H259891   1.266   3.860   2.487 -0.1743 -1.1576  0.2847
12826TIP3   OH259892   0.543   1.179  13.652  0.1399  0.6421 -0.0692
12826TIP3    H159893   0.556   1.240  13.579  0.4473  1.2908  0.5128
12826TIP3    H259894   0.510   1.099  13.611  1.1010  0.7080 -1.0167
12827TIP3   OH259895   6.301   3.548  17.079 -0.0860 -0.2485  0.1419
12827TIP3    H159896   6.328   3.551  16.987 -0.4049 -0.7311  0.0334
12827TIP3    H259897   6.384   3.548  17.128  0.0924 -0.4469 -0.1563
12828TIP3   OH259898   4.637   1.864  10.913 -0.3287 -0.1905 -0.0261
12828TIP3    H159899   4.684   1.948  10.916 -0.1353 -0.3187  0.7188
12828TIP3    H259900   4.545   1.888  10.903  0.0040  0.0462 -4.0727
12829TIP3   OH259901   4.382   1.381   4.822 -0.0443  0.1201 -0.4108
12829TIP3    H159902   4.316   1.426   4.769 -0.4539 -2.2534 -2.0733
12829TIP3    H259903   4.332   1.319   4.875  0.7063 -0.3421 -0.2310
12830TIP3   OH259904   5.374   3.749   2.900 -0.4004 -0.5591 -0.3782
12830TIP3    H159905   5.355   3.838   2.869 -0.8012 -0.8918 -1.1049
12830TIP3    H259906   5.437   3.715   2.838 -0.7089 -1.0020 -0.4491
12831TIP3   OH259907   6.222   5.309   1.621 -0.0290 -0.2813  0.3594
12831TIP3    H159908   6.139   5.284   1.580 -0.0668  0.2927  0.0733
12831TIP3    H259909   6.198   5.378   1.683  0.2238 -0.1563  0.3182
12832TIP3   OH259910   3.673   4.136   2.084  0.1198  0.4441 -0.1839
12832TIP3    H159911   3.579   4.123   2.100  0.2700 -1.1255 -0.4864
12832TIP3    H259912   3.687   4.229   2.102 -1.1339  0.3326  1.6829
12833TIP3   OH259913   4.074   0.239  13.738 -0.2149  0.2169  0.1865
12833TIP3    H159914   4.041   0.196  13.818  0.5206 -1.5515 -0.4047
12833TIP3    H259915   4.163   0.205  13.728  1.5343  3.9987  1.1375
12834TIP3   OH259916   1.918   2.470  15.393  0.2356  0.2420  0.1222
12834TIP3    H159917   1.993   2.524  15.415  1.2479 -0.4721 -1.3746
12834TIP3    H259918   1.893   2.427  15.475  0.6554  1.4398  0.8975
12835TIP3   OH259919   4.943   1.399  12.689 -0.1840 -0.2127 -0.0279
12835TIP3    H159920   5.017   1.400  12.751  0.7532 -0.2664 -1.1207
12835TIP3    H259921   4.874   1.350  12.735  1.4889 -2.8629 -0.1135
12836TIP3   OH259922   1.356   1.636  13.114 -0.3324  0.3368 -0.0262
12836TIP3    H159923   1.431   1.612  13.167  1.3355  0.6163 -2.1223
12836TIP3    H259924   1.346   1.564  13.052  0.4048  1.7754 -1.9368
12837TIP3   OH259925   2.888   2.016  16.900 -0.2615 -0.1761  0.1448
12837TIP3    H159926   2.863   1.924  16.894  0.3256 -0.2905 -0.7180
12837TIP3    H259927   2.824   2.054  16.960  0.0727 -1.3430  1.2737
12838TIP3   OH259928   3.079   1.502  14.013  0.0941  0.2338 -0.0568
12838TIP3    H159929   3.063   1.456  13.931  0.9655 -0.9329  0.3975
12838TIP3    H259930   3.171   1.485  14.032 -0.5275 -1.0871  2.0809
12839TIP3   OH259931   3.401   4.172  12.338  0.2967 -0.1209 -0.3101
12839TIP3    H159932   3.308   4.182  12.360  0.2776  0.1588 -0.5110
12839TIP3    H259933   3.448   4.210  12.412  0.2729 -1.0393  0.1981
12840TIP3   OH259934   2.089   3.981   4.104  0.1966  0.0303 -0.0224
12840TIP3    H159935   2.089   3.898   4.151  1.1372  0.5443  0.9251
12840TIP3    H259936   2.014   3.975   4.044  0.9981 -2.0153 -0.9183
12841TIP3   OH259937   1.325   2.421   4.892 -0.1400 -0.7497 -0.0981
12841TIP3    H159938   1.324   2.443   4.985  0.7138  0.0398 -0.2513
12841TIP3    H259939   1.363   2.499   4.850  0.5840 -1.5466 -0.9634
12842TIP3   OH259940   0.732   2.407   3.601  0.1666 -0.2606 -0.4306
12842TIP3    H159941   0.774   2.322   3.616  0.0762 -0.2106  0.1446
12842TIP3    H259942   0.748   2.426   3.509 -0.3438 -1.1899 -0.7205
12843TIP3   OH259943   1.684   2.231  12.245  0.0883 -0.1191  0.4085
12843TIP3    H159944   1.756   2.175  12.218  0.7751 -0.0394  1.9766
12843TIP3    H259945   1.633   2.245  12.165  0.0034 -2.7783 -0.1036
12844TIP3   OH259946   0.989   2.077   5.122  0.7825  0.5337  0.0283
12844TIP3    H159947   1.040   2.148   5.161  1.5829  0.3730 -0.6792
12844TIP3    H259948   0.934   2.120   5.056 -1.0287  0.8909  1.6835
12845TIP3   OH259949   4.897   0.305   5.859 -0.6209  0.2262 -0.3594
12845TIP3    H159950   4.904   0.231   5.918  0.5354 -0.0175 -0.7868
12845TIP3    H259951   4.948   0.280   5.782 -1.9340  0.6115 -1.3928
12846TIP3   OH259952   5.981   0.151   4.956  0.0763  0.1662  0.7798
12846TIP3    H159953   6.005   0.142   5.048 -0.5845 -0.9689  0.8643
12846TIP3    H259954   5.949   0.241   4.948  0.6154  0.4330  1.5394
12847TIP3   OH259955   2.276   0.169  16.236  0.5541 -0.0005 -0.5526
12847TIP3    H159956   2.336   0.125  16.297  0.1472 -0.9458 -0.8136
12847TIP3    H259957   2.206   0.105  16.221 -0.4163  0.9874 -0.4320
12848TIP3   OH259958   6.165   5.740   4.165  0.0910  0.1820 -0.0364
12848TIP3    H159959   6.147   5.767   4.255  0.9599  0.0125  0.1998
12848TIP3    H259960   6.140   5.647   4.163 -1.3678  0.5596 -0.4038
12849TIP3   OH259961   5.487   3.961  16.827  0.2164  0.5003 -0.7091
12849TIP3    H159962   5.538   3.986  16.750  0.7659 -1.5355 -1.0874
12849TIP3    H259963   5.406   3.924  16.791 -0.2319  1.0144 -0.2376
12850TIP3   OH259964   5.201   2.997  16.357 -0.1405 -0.2267  0.1251
12850TIP3    H159965   5.184   3.032  16.270 -1.3203  2.1502  1.2112
12850TIP3    H259966   5.295   3.009  16.370 -0.4342  2.4551  0.3169
12851TIP3   OH259967   5.029   0.749  16.289  0.0019  0.6512 -0.0181
12851TIP3    H159968   5.109   0.790  16.256  0.3429  1.2375  1.4419
12851TIP3    H259969   5.015   0.673  16.233  1.7220  0.4082 -0.1555
12852TIP3   OH259970   3.625   0.081   1.086  0.3326  0.3488  0.0580
12852TIP3    H159971   3.624   0.033   1.003  0.2723  1.6572 -0.7255
12852TIP3    H259972   3.536   0.072   1.120  0.2844  0.0269 -0.1506
12853TIP3   OH259973   1.840   0.627  13.799 -0.2967 -0.8661  0.2941
12853TIP3    H159974   1.781   0.553  13.785  0.2855 -1.2143 -0.4025
12853TIP3    H259975   1.926   0.594  13.772  0.0219 -0.0302  0.2588
12854TIP3   OH259976   3.025   5.627   1.966 -0.1936  0.3533  0.0735
12854TIP3    H159977   3.045   5.606   1.875 -1.0615 -0.0698 -0.0285
12854TIP3    H259978   3.093   5.690   1.992 -0.4177  1.1154 -1.1139
12855TIP3   OH259979   6.599   3.780  12.537 -0.2353  0.4749 -0.0381
12855TIP3    H159980   6.518   3.767  12.585 -0.9313  2.3231 -0.6023
12855TIP3    H259981   6.666   3.788  12.605 -0.6851 -0.1012  0.4754
12856TIP3   OH259982   0.989   3.222   1.135  0.0922  0.4507 -0.1916
12856TIP3    H159983   1.039   3.294   1.095  2.7181 -1.2585 -0.2152
12856TIP3    H259984   1.007   3.230   1.228  1.6349 -0.9369 -0.3176
12857TIP3   OH259985   6.547   1.999  14.626 -0.3341  0.4181  0.5144
12857TIP3    H159986   6.613   1.990  14.695 -0.1890  3.0252  0.8244
12857TIP3    H259987   6.479   1.936  14.649  1.2687 -1.2011  1.0756
12858TIP3   OH259988   0.844   5.331   6.065 -0.0901 -0.0796  0.2112
12858TIP3    H159989   0.829   5.257   6.124  1.0030  1.0371  2.0160
12858TIP3    H259990   0.761   5.345   6.021 -0.9256 -1.0679  1.4048
12859TIP3   OH259991   5.751   1.279  14.385 -0.1126  0.6480  0.2323
12859TIP3    H159992   5.794   1.206  14.429 -1.2827  1.1082  2.2826
12859TIP3    H259993   5.787   1.279  14.297  1.3381 -1.1957  0.7689
12860TIP3   OH259994   6.475   3.785  13.447 -0.3646 -0.4780 -0.4575
12860TIP3    H159995   6.508   3.753  13.531 -0.2259 -0.0834 -0.3640
12860TIP3    H259996   6.384   3.753  13.444 -0.3789 -0.4720 -0.1500
12861TIP3   OH259997   2.004   1.655   2.023 -0.2795  0.2387 -0.5222
12861TIP3    H159998   2.000   1.570   2.067  0.1488 -0.5736 -1.9770
12861TIP3    H259999   1.975   1.636   1.933 -0.2738  1.6585 -0.8401
12862TIP3   OH260000   2.139   2.482   0.418  0.6283  1.1843 -0.7192
12862TIP3    H160001   2.061   2.468   0.472  1.1827 -0.5026 -0.2793
12862TIP3    H260002   2.113   2.551   0.357 -0.4711  2.1966  0.7905
12863TIP3   OH260003   1.064   5.926   1.156  0.0116  0.4233 -0.0585
12863TIP3    H160004   1.058   5.851   1.097  1.8667  0.8077 -0.8216
12863TIP3    H260005   1.124   5.898   1.225 -4.6219 -1.2728  3.8384
12864TIP3   OH260006   1.679   2.191   2.570 -0.3597 -0.1771 -0.0758
12864TIP3    H160007   1.736   2.125   2.610 -1.8881 -1.1543  0.5822
12864TIP3    H260008   1.716   2.275   2.598  0.3834 -0.7823  0.8410
12865TIP3   OH260009   0.025   0.689   5.864 -0.3704  0.2170  0.9088
12865TIP3    H160010  -0.016   0.776   5.854  2.0120  1.4095  0.8582
12865TIP3    H260011   0.078   0.697   5.943  1.0561 -0.6970  0.0755
12866TIP3   OH260012   1.043   3.748  17.554 -0.1739  0.4541  0.3081
12866TIP3    H160013   1.028   3.842  17.546 -3.2905  0.0419 -0.0471
12866TIP3    H260014   1.035   3.730  17.648  2.7275  0.7752  0.6896
12867TIP3   OH260015   1.716   6.474  12.704  0.7014  0.6207  0.4087
12867TIP3    H160016   1.785   6.525  12.663  0.2811  0.8782  0.0095
12867TIP3    H260017   1.664   6.539  12.752  0.1488  0.5762 -0.1222
12868TIP3   OH260018   1.421   5.507  14.396 -0.2250 -0.0359  0.0482
12868TIP3    H160019   1.457   5.474  14.313 -1.1053  0.1133 -0.4060
12868TIP3    H260020   1.444   5.600  14.397 -0.4781  0.0324 -0.1842
12869TIP3   OH260021   1.733   0.606  11.472 -0.2000 -0.3692 -0.1309
12869TIP3    H160022   1.817   0.649  11.457  0.2185 -1.2903 -0.5761
12869TIP3    H260023   1.750   0.514  11.451 -0.6839 -1.0218  2.0919
12870TIP3   OH260024   4.865   2.338   6.048  0.0325  0.2739 -0.5777
12870TIP3    H160025   4.853   2.432   6.061 -0.9414  0.0157  0.5587
12870TIP3    H260026   4.877   2.329   5.953  3.0885  1.8060 -0.4542
12871TIP3   OH260027   3.775   5.327   4.100  0.0891  0.2906  0.3669
12871TIP3    H160028   3.767   5.325   4.196  2.5823 -1.3659  0.6456
12871TIP3    H260029   3.740   5.413   4.075 -2.2065  0.1019  2.5373
12872TIP3   OH260030   5.743   2.780  14.193 -0.3678 -0.2108  0.2490
12872TIP3    H160031   5.665   2.724  14.189  0.2637 -1.0629 -0.5091
12872TIP3    H260032   5.766   2.782  14.286 -1.3138  0.0968  0.4876
12873TIP3   OH260033   5.427   5.282   2.971  0.6261 -0.2481 -0.0110
12873TIP3    H160034   5.357   5.245   3.025  0.6334  1.4401  1.2334
12873TIP3    H260035   5.507   5.265   3.021  0.8634 -0.2524 -0.3854
12874TIP3   OH260036   5.447   1.134   4.265 -0.4383  0.1322 -0.2706
12874TIP3    H160037   5.507   1.061   4.279 -1.9388 -1.0034  0.3770
12874TIP3    H260038   5.435   1.137   4.170  0.7782  0.5175 -0.4321
12875TIP3   OH260039   3.672   0.305  15.097  0.4350 -0.0318  0.0799
12875TIP3    H160040   3.716   0.281  15.178 -0.7696 -0.5160  0.6061
12875TIP3    H260041   3.591   0.348  15.125 -0.5656 -1.2584 -0.8489
12876TIP3   OH260042   2.544   4.254   3.805 -0.5357 -0.1774  0.0643
12876TIP3    H160043   2.613   4.298   3.855 -2.0581  3.3173 -0.5913
12876TIP3    H260044   2.571   4.260   3.714  0.0067 -2.2865  0.0292
12877TIP3   OH260045   0.163   1.555   4.389 -0.3868 -0.6391  0.3597
12877TIP3    H160046   0.102   1.493   4.349 -1.0712  0.5622 -0.5434
12877TIP3    H260047   0.107   1.626   4.420  0.1192 -1.4629  3.4549
12878TIP3   OH260048   4.609   3.235   0.835  0.6940  0.0784 -0.2745
12878TIP3    H160049   4.516   3.252   0.824  0.7316  0.4521 -0.0194
12878TIP3    H260050   4.614   3.177   0.911  0.5137 -1.6936 -1.5242
12879TIP3   OH260051   6.553   1.527   4.162 -0.4665 -0.7823  0.4965
12879TIP3    H160052   6.554   1.565   4.074  1.9918 -1.0869  0.3200
12879TIP3    H260053   6.523   1.437   4.148  0.5192 -1.0287 -0.1619
12880TIP3   OH260054   5.762   2.172   3.562  0.6662 -0.0471  0.1235
12880TIP3    H160055   5.843   2.223   3.570  0.8655 -0.5936  1.7853
12880TIP3    H260056   5.790   2.088   3.527  0.6374  0.1824 -0.4651
12881TIP3   OH260057   4.672   1.903  14.407  0.2872 -0.1798 -0.3532
12881TIP3    H160058   4.748   1.959  14.392  0.7481 -0.1503  1.7246
12881TIP3    H260059   4.624   1.904  14.325  3.4148 -1.5811 -2.3562
12882TIP3   OH260060   5.980   1.931   1.404 -0.0616 -0.0508  0.2620
12882TIP3    H160061   6.071   1.956   1.389  0.6558 -1.9538  1.1482
12882TIP3    H260062   5.980   1.887   1.489 -2.2777  2.0223  1.4825
12883TIP3   OH260063   1.934   0.980   6.623  0.1893  0.0833 -0.0540
12883TIP3    H160064   1.874   1.054   6.612 -1.3020 -1.1714 -0.5770
12883TIP3    H260065   1.993   1.008   6.693 -0.0321  1.9561 -0.5531
12884TIP3   OH260066   5.471   5.783   5.511 -0.2216  0.3951 -0.2800
12884TIP3    H160067   5.438   5.693   5.500 -0.6376  0.7213 -2.0953
12884TIP3    H260068   5.463   5.800   5.604  0.6605 -1.7511  0.2431
12885TIP3   OH260069   6.142   1.042  11.742 -0.4977 -0.3845  0.7005
12885TIP3    H160070   6.227   1.011  11.774  0.7207  1.4737 -0.5977
12885TIP3    H260071   6.108   1.095  11.814  0.0758 -0.0211  0.7117
12886TIP3   OH260072   5.755   5.311   5.406 -0.2611 -0.0024 -0.0418
12886TIP3    H160073   5.789   5.400   5.393  1.5596 -0.7337 -0.5832
12886TIP3    H260074   5.817   5.271   5.467 -1.5946 -0.6302  0.9348
12887TIP3   OH260075   2.708   5.096   1.382  0.3285  0.4963 -0.3894
12887TIP3    H160076   2.733   5.187   1.400  1.0657  0.1062  0.7524
12887TIP3    H260077   2.789   5.055   1.350  0.3117 -0.0024  0.1689
12888TIP3   OH260078   0.886   6.479   3.419 -0.1789  0.0759 -0.0276
12888TIP3    H160079   0.792   6.484   3.402 -0.0583  2.2304 -0.4086
12888TIP3    H260080   0.893   6.438   3.506 -1.5316  0.7522  0.4241
12889TIP3   OH260081   4.698   5.418  13.261 -0.4373 -0.4474 -0.2204
12889TIP3    H160082   4.755   5.410  13.337  0.7123 -1.7050 -1.1758
12889TIP3    H260083   4.612   5.439  13.299  0.2074 -0.4986  1.3762
12890TIP3   OH260084   4.470   1.689   5.518 -0.0977  0.2714  0.3608
12890TIP3    H160085   4.483   1.681   5.613  1.9635 -1.5167  0.0204
12890TIP3    H260086   4.504   1.776   5.497 -0.6065  0.7024  1.2441
12891TIP3   OH260087   2.787   1.379  16.654 -0.0116  0.1643 -0.3321
12891TIP3    H160088   2.861   1.408  16.601  2.4953 -3.1258  1.0082
12891TIP3    H260089   2.722   1.450  16.646  2.9481  2.9425 -2.1523
12892TIP3   OH260090   4.595   2.722  16.396  0.0266 -0.3257 -0.1430
12892TIP3    H160091   4.542   2.794  16.361  0.8129  0.4492  0.1926
12892TIP3    H260092   4.627   2.755  16.480 -1.9969 -2.2331  1.4751
12893TIP3   OH260093   5.590   0.296   1.464  0.2342  0.1534  0.2878
12893TIP3    H160094   5.625   0.234   1.527  0.6598  0.9789  0.8864
12893TIP3    H260095   5.529   0.350   1.514 -0.1489  0.1975 -0.2231
12894TIP3   OH260096   1.349   2.908  12.239  0.1116  0.0308 -0.2212
12894TIP3    H160097   1.328   2.975  12.305 -0.4686 -0.4236  0.0647
12894TIP3    H260098   1.291   2.928  12.165  0.2516  0.1080 -0.3105
12895TIP3   OH260099   6.695   4.014   2.928 -0.2380 -1.1516  0.5813
12895TIP3    H160100   6.605   3.996   2.902 -0.1377 -0.8402 -0.0240
12895TIP3    H260101   6.692   4.099   2.971 -0.2336 -1.1232  0.5267
12896TIP3   OH260102   4.373   0.190  11.659  0.0837  0.0156  0.5934
12896TIP3    H160103   4.419   0.174  11.742 -0.1248  0.4050  0.7910
12896TIP3    H260104   4.297   0.131  11.662  1.2799 -1.6502 -0.3585
12897TIP3   OH260105   4.483   6.687   1.085 -0.6104 -0.3055 -0.0095
12897TIP3    H160106   4.518   6.697   0.996  0.5641  1.1300  0.5847
12897TIP3    H260107   4.524   6.607   1.118  0.9040  0.4885  0.0958
12898TIP3   OH260108   6.200   2.540   0.520  0.1715 -0.5034  0.5659
12898TIP3    H160109   6.235   2.520   0.432  1.1875 -0.0982  0.8596
12898TIP3    H260110   6.225   2.631   0.535  1.4294 -1.0218  1.8952
12899TIP3   OH260111   0.961   2.469   5.059 -0.2524 -0.6378 -0.2359
12899TIP3    H160112   0.941   2.562   5.058 -0.0125 -0.5872 -0.3593
12899TIP3    H260113   0.928   2.438   5.143  0.4478 -0.2679  0.1777
12900TIP3   OH260114   5.024   3.520  17.409 -0.0721 -0.4334 -0.0539
12900TIP3    H160115   5.046   3.611  17.427 -0.1774 -0.2023 -1.0322
12900TIP3    H260116   5.021   3.514  17.313  1.3015 -1.7964 -0.0421
12901TIP3   OH260117   1.218   4.639  11.464  0.0713  0.0354 -0.0750
12901TIP3    H160118   1.252   4.552  11.439  0.9990  0.6947 -1.2449
12901TIP3    H260119   1.124   4.625  11.475  0.3656 -1.3815  1.0472
12902TIP3   OH260120   1.088   5.586  16.370  0.6760 -0.0106  0.4029
12902TIP3    H160121   1.007   5.589  16.317  0.1849 -1.5551  1.0178
12902TIP3    H260122   1.059   5.610  16.458  0.3919 -2.6141  1.1101
12903TIP3   OH260123   5.126   2.623  16.224 -0.3204  0.4315  0.4083
12903TIP3    H160124   5.075   2.554  16.182  0.9211 -0.9630  1.1080
12903TIP3    H260125   5.154   2.679  16.152 -0.1641 -0.6032 -0.3594
12904TIP3   OH260126   5.525   2.310   4.643  0.3641 -0.5702  0.3616
12904TIP3    H160127   5.558   2.393   4.606  0.9614 -0.0925  1.8948
12904TIP3    H260128   5.430   2.319   4.639  0.4138 -0.2659 -0.4548
12905TIP3   OH260129   4.764   4.501  15.307  0.2592 -0.7955  0.1181
12905TIP3    H160130   4.758   4.480  15.400 -0.1707 -4.1250 -0.5162
12905TIP3    H260131   4.761   4.596  15.303 -1.6560 -0.5863  3.3595
12906TIP3   OH260132   1.789   4.452  16.216  0.0013 -0.6842  0.0105
12906TIP3    H160133   1.786   4.526  16.156  0.1896  0.6102  1.5492
12906TIP3    H260134   1.774   4.376  16.160  0.1955  0.4592 -1.6717
12907TIP3   OH260135   0.858   5.488  15.073  0.8094  0.3622 -0.5912
12907TIP3    H160136   0.843   5.582  15.087  3.1033  0.7105 -0.1156
12907TIP3    H260137   0.898   5.483  14.986  0.9366 -0.1480 -0.5032
12908TIP3   OH260138   5.144   5.051   3.708  0.0006 -0.0726 -0.1894
12908TIP3    H160139   5.131   4.988   3.637  0.2356  0.6512 -0.8878
12908TIP3    H260140   5.162   5.134   3.663 -0.2296  0.4739  0.7184
12909TIP3   OH260141   2.802   5.131   5.966 -0.3750  0.7145 -0.5205
12909TIP3    H160142   2.830   5.050   5.925 -1.2838  0.2446 -0.2409
12909TIP3    H260143   2.781   5.107   6.056 -0.7583  1.2353 -0.4621
12910TIP3   OH260144   5.629   5.362  16.242 -0.6065  0.3102  0.4375
12910TIP3    H160145   5.663   5.452  16.238 -1.0782  0.4801  0.0968
12910TIP3    H260146   5.610   5.348  16.335  0.4999  0.1603  0.6595
12911TIP3   OH260147   0.869   6.481   4.912 -0.1093 -0.0626  0.6189
12911TIP3    H160148   0.784   6.522   4.924 -0.5903 -0.7617 -0.2444
12911TIP3    H260149   0.926   6.522   4.977 -0.1547  3.0393 -1.1351
12912TIP3   OH260150   1.267   1.171  11.883  0.1212 -0.3191  0.0368
12912TIP3    H160151   1.260   1.249  11.938  0.3644  1.1273 -1.8813
12912TIP3    H260152   1.178   1.155  11.852  0.3842  0.5134 -1.2363
12913TIP3   OH260153   1.504   4.880  15.863  0.1687 -0.2313  0.1102
12913TIP3    H160154   1.582   4.871  15.918 -1.4671  0.9955  2.8788
12913TIP3    H260155   1.529   4.844  15.778  2.6021 -3.2793  1.9197
12914TIP3   OH260156   2.125   1.045  11.622 -0.8623  0.4106 -0.2092
12914TIP3    H160157   2.204   1.096  11.640 -0.3317 -0.9805  1.7458
12914TIP3    H260158   2.055   1.089  11.671 -0.4094 -0.6356  1.4574
12915TIP3   OH260159   1.247   1.049   0.500 -0.1873  0.0731  0.1656
12915TIP3    H160160   1.318   1.112   0.507  0.4493 -0.5499 -0.4279
12915TIP3    H260161   1.167   1.100   0.514  0.4308  0.3191  3.7074
12916TIP3   OH260162   5.435   3.732  14.339  0.0693  0.1688 -0.2081
12916TIP3    H160163   5.522   3.771  14.325 -0.1844  1.1018  0.6571
12916TIP3    H260164   5.376   3.786  14.286 -0.5280  2.1184  2.2705
12917TIP3   OH260165   1.908   3.437  11.205 -0.0302 -0.0912 -0.2045
12917TIP3    H160166   1.901   3.526  11.172 -2.2903 -0.1532  0.0019
12917TIP3    H260167   2.002   3.418  11.200  0.1931  1.2142 -3.0343
12918TIP3   OH260168   4.794   5.176   1.269  0.1288  0.3633  0.1804
12918TIP3    H160169   4.800   5.083   1.293  0.3355  0.4255  0.3799
12918TIP3    H260170   4.754   5.217   1.346 -2.6862  0.0135 -0.9908
12919TIP3   OH260171   4.388   2.645  17.043 -0.1455  0.1092  0.1858
12919TIP3    H160172   4.323   2.581  17.073  1.6285 -0.9101  2.1324
12919TIP3    H260173   4.391   2.710  17.113  1.0783  0.0032  0.2476
12920TIP3   OH260174   5.349   1.735  10.897 -0.0885  0.2631  0.1312
12920TIP3    H160175   5.378   1.734  10.988 -2.4544  1.4467  0.9891
12920TIP3    H260176   5.256   1.713  10.901 -0.4761  1.2810 -1.8779
12921TIP3   OH260177   2.273   5.473   2.123 -0.2467 -0.1870 -0.3396
12921TIP3    H160178   2.361   5.469   2.085 -0.0889 -1.6517  0.1252
12921TIP3    H260179   2.287   5.458   2.216 -1.0089 -0.6282 -0.2890
12922TIP3   OH260180   1.637   4.037  11.718 -0.3627  0.5507 -0.3698
12922TIP3    H160181   1.605   3.948  11.731  0.0567  0.3193 -0.9022
12922TIP3    H260182   1.561   4.086  11.688 -0.5196  0.3041 -0.3783
12923TIP3   OH260183   2.727   2.135   6.037 -0.1817 -0.1624  0.0419
12923TIP3    H160184   2.805   2.119   6.091  1.3774  0.9050 -1.7903
12923TIP3    H260185   2.718   2.056   5.984  1.3256  0.7377 -1.6505
12924TIP3   OH260186   4.951   3.142  16.957  0.3556  0.8270 -0.8002
12924TIP3    H160187   4.952   3.208  17.027 -1.6923  1.3303 -1.1815
12924TIP3    H260188   4.944   3.193  16.876 -2.0040  0.1814 -1.0516
12925TIP3   OH260189   1.681   2.710  16.737  0.4455 -0.0295 -0.5846
12925TIP3    H160190   1.706   2.737  16.648 -1.2247 -0.4689 -1.2283
12925TIP3    H260191   1.622   2.779  16.766 -0.8140 -1.0248 -0.7292
12926TIP3   OH260192   3.200   5.456   5.347  0.0172  0.4712  0.0689
12926TIP3    H160193   3.155   5.372   5.353 -0.7398  0.8997  0.6335
12926TIP3    H260194   3.246   5.464   5.431 -0.8062  1.0978  0.4768
12927TIP3   OH260195   5.008   2.679  12.024 -0.4510  0.1102 -0.1967
12927TIP3    H160196   4.923   2.640  12.043 -0.1553 -1.5935 -2.0185
12927TIP3    H260197   5.052   2.615  11.969  3.0617 -0.2431  2.6619
12928TIP3   OH260198   4.111   6.464   0.911  0.0243  0.2820 -0.6377
12928TIP3    H160199   4.201   6.495   0.907  0.3092 -0.3719  0.3324
12928TIP3    H260200   4.063   6.534   0.956  0.1823  0.3489 -0.5724
12929TIP3   OH260201   5.751   2.907   3.159  0.6269 -0.5902 -0.0553
12929TIP3    H160202   5.665   2.893   3.120  0.1016  1.3144  0.3126
12929TIP3    H260203   5.795   2.967   3.099  0.9890 -0.0885  0.6937
12930TIP3   OH260204   0.218   2.696  13.653 -0.4531  0.7340 -0.0023
12930TIP3    H160205   0.221   2.691  13.749  1.3428  1.8067  0.0386
12930TIP3    H260206   0.146   2.757  13.635 -1.1464  0.1335  0.6115
12931TIP3   OH260207   5.234   3.954  17.163 -0.0213  0.1923 -0.5643
12931TIP3    H160208   5.234   3.996  17.249  0.1953 -0.9844  0.0268
12931TIP3    H260209   5.256   4.024  17.102  2.4016  0.5360  0.6114
12932TIP3   OH260210   0.285   5.721  12.408  0.1199 -0.3067  0.0512
12932TIP3    H160211   0.211   5.665  12.384 -0.3055  0.3281 -0.1478
12932TIP3    H260212   0.319   5.683  12.489 -1.6861  0.5459  1.2770
12933TIP3   OH260213   4.890   2.914   2.103  0.0842 -0.2886  0.6689
12933TIP3    H160214   4.906   2.992   2.155 -1.2492  0.3710  0.1403
12933TIP3    H260215   4.963   2.910   2.041 -0.7817  1.6652 -0.5718
12934TIP3   OH260216   1.692   5.226   3.658 -0.0488 -0.0032  0.1338
12934TIP3    H160217   1.613   5.183   3.625 -0.1621  1.5892 -1.8898
12934TIP3    H260218   1.762   5.197   3.599  0.5503 -0.1203  0.8935
12935TIP3   OH260219   2.183   1.881   4.081  0.5726 -0.0154 -0.0308
12935TIP3    H160220   2.240   1.958   4.085 -0.2664  0.5770  1.3261
12935TIP3    H260221   2.096   1.915   4.102 -0.1873 -1.0152 -1.4100
12936TIP3   OH260222   1.349   5.549   2.470 -0.1432  0.2653  0.0560
12936TIP3    H160223   1.354   5.583   2.559  0.1897 -0.9738  0.5245
12936TIP3    H260224   1.424   5.490   2.462 -0.3269  0.1465 -0.9547
12937TIP3   OH260225   2.117   6.336  13.700  0.1497 -0.4806  0.1178
12937TIP3    H160226   2.150   6.252  13.733  0.6694  1.1046  4.2003
12937TIP3    H260227   2.022   6.329  13.709  0.2770 -0.1080  2.1240
12938TIP3   OH260228   4.957   1.792   4.413  0.2913  0.2775 -0.1936
12938TIP3    H160229   4.927   1.758   4.497  0.1740  0.5248 -0.1354
12938TIP3    H260230   5.053   1.792   4.420  0.2880  0.1261 -0.1319
12939TIP3   OH260231   5.096   2.008   1.650  0.7459  0.3619 -0.0966
12939TIP3    H160232   5.101   1.949   1.575  0.4653  1.7092 -1.2143
12939TIP3    H260233   5.183   2.049   1.654  0.6415  0.5715  0.0843
12940TIP3   OH260234   0.850   3.448   2.333 -1.0597  0.0342  0.0424
12940TIP3    H160235   0.876   3.539   2.319  0.2782 -0.3324  0.0373
12940TIP3    H260236   0.761   3.453   2.369 -0.8119  1.3540  0.5018
12941TIP3   OH260237   5.358   2.336  13.229  0.2690  0.3798 -0.3121
12941TIP3    H160238   5.412   2.403  13.271 -0.5516  1.1647 -0.4961
12941TIP3    H260239   5.415   2.298  13.163  1.5422 -0.7744  1.3641
12942TIP3   OH260240   4.231   4.847   5.649 -1.0350 -0.4232 -0.5156
12942TIP3    H160241   4.267   4.780   5.707  0.1306 -1.3467 -2.2015
12942TIP3    H260242   4.195   4.797   5.575  1.0801  0.7631 -2.4748
12943TIP3   OH260243   0.948   1.153   3.500 -0.2459  0.1631  0.0432
12943TIP3    H160244   0.942   1.246   3.479  3.6088  0.4216 -0.5971
12943TIP3    H260245   0.966   1.151   3.594 -1.4551 -0.0819  0.2950
12944TIP3   OH260246   4.320   2.053  11.885  0.2860  0.2355 -0.7030
12944TIP3    H160247   4.329   2.102  11.967 -0.2092  1.3646 -1.2984
12944TIP3    H260248   4.288   1.967  11.912  0.5658  0.4440  0.3268
12945TIP3   OH260249   1.057   2.646  13.015 -0.5745 -0.1304  0.0256
12945TIP3    H160250   1.048   2.562  13.062  0.7322 -0.2553  0.0766
12945TIP3    H260251   1.130   2.632  12.955 -1.3752  0.4700 -1.1226
12946TIP3   OH260252   4.577   4.952  15.341 -0.1091 -0.0087 -0.2937
12946TIP3    H160253   4.609   4.872  15.384  0.1851 -0.0478 -0.5871
12946TIP3    H260254   4.624   4.956  15.258 -1.6321 -0.6508 -1.2454
12947TIP3   OH260255   1.261   2.213   5.651  0.0005  0.6466  0.1388
12947TIP3    H160256   1.294   2.124   5.636 -1.0698  0.1698  0.4854
12947TIP3    H260257   1.264   2.224   5.746 -1.3161  0.3860  0.2231
12948TIP3   OH260258   2.441   2.568  14.471 -0.1054 -0.0240 -0.0516
12948TIP3    H160259   2.509   2.500  14.477  0.6781  0.5213 -1.7740
12948TIP3    H260260   2.388   2.541  14.396  0.4998  1.4562 -1.0566
12949TIP3   OH260261   6.121   5.092  16.398 -0.1397  0.4892  0.4576
12949TIP3    H160262   6.074   5.085  16.481  1.0989 -0.6611  1.1020
12949TIP3    H260263   6.058   5.062  16.332  0.3204 -3.4330  1.5416
12950TIP3   OH260264   3.642   2.417   5.497 -0.5980  0.0807 -0.3975
12950TIP3    H160265   3.709   2.460   5.550 -1.2247  1.3014 -0.5556
12950TIP3    H260266   3.616   2.340   5.549  0.2059  0.1475  0.1237
12951TIP3   OH260267   1.695   4.499  17.280  0.0329  0.7316  0.4626
12951TIP3    H160268   1.608   4.538  17.283 -0.3092  0.0444 -0.2129
12951TIP3    H260269   1.733   4.531  17.198 -0.1321 -0.0843  0.0553
12952TIP3   OH260270   3.675   5.576   4.050  0.2695  0.1169  0.0228
12952TIP3    H160271   3.735   5.593   3.978 -0.2469 -0.3567 -0.5325
12952TIP3    H260272   3.674   5.658   4.100  1.6540  0.0046  0.2617
12953TIP3   OH260273   2.176   4.641   5.539  0.6141 -0.3401  0.3204
12953TIP3    H160274   2.264   4.649   5.502  0.4420  1.2832  0.1909
12953TIP3    H260275   2.171   4.711   5.605 -0.8687  0.1917 -0.3056
12954TIP3   OH260276   2.968   6.343   0.333  0.2175 -0.2249 -0.0928
12954TIP3    H160277   3.048   6.374   0.291  2.4865 -2.4314  2.2639
12954TIP3    H260278   2.981   6.360   0.426 -1.7167 -1.4016  0.4496
12955TIP3   OH260279   3.373   0.070   1.528  0.2290  0.2356 -0.7724
12955TIP3    H160280   3.334  -0.002   1.478 -1.5993  1.7318 -1.6063
12955TIP3    H260281   3.301   0.130   1.545  1.4380  1.2640  1.0598
12956TIP3   OH260282   0.868   3.013   3.928 -0.2800  0.1829  0.2887
12956TIP3    H160283   0.939   2.960   3.892 -1.4821 -0.0183 -2.0068
12956TIP3    H260284   0.791   2.955   3.925 -1.1330  1.2888 -0.0596
12957TIP3   OH260285   1.720   1.631   0.509 -0.2975  0.4639  0.1498
12957TIP3    H160286   1.658   1.624   0.436 -0.6606 -0.2170  0.5191
12957TIP3    H260287   1.806   1.629   0.466 -0.5185  1.3441 -0.3549
12958TIP3   OH260288   1.538   1.921   6.286 -0.3187 -0.1461 -0.4303
12958TIP3    H160289   1.502   1.866   6.355  0.4091 -0.4839 -0.3082
12958TIP3    H260290   1.632   1.922   6.303  0.1047 -1.5855 -2.3543
12959TIP3   OH260291   0.728   4.631   5.223 -0.1746 -0.0689  0.3115
12959TIP3    H160292   0.699   4.562   5.162 -0.4130  0.8696 -0.6770
12959TIP3    H260293   0.694   4.603   5.308 -1.4640 -0.5011 -0.3048
12960TIP3   OH260294   4.053   3.036   3.098 -0.1928 -0.1019  0.2499
12960TIP3    H160295   4.060   3.063   3.189 -0.2335 -1.7278  0.7762
12960TIP3    H260296   4.023   2.945   3.102 -0.7105 -0.0415 -1.4037
12961TIP3   OH260297   5.525   4.063  15.717  0.1685  0.3384 -0.0351
12961TIP3    H160298   5.570   4.059  15.802  1.1228 -2.5402 -0.5374
12961TIP3    H260299   5.432   4.069  15.739  0.5118  2.3107  1.1095
12962TIP3   OH260300   0.155   2.307   4.424  0.3662 -0.1622 -0.4053
12962TIP3    H160301   0.076   2.352   4.395 -0.5716 -0.0635  2.0476
12962TIP3    H260302   0.216   2.377   4.447 -0.1620 -0.1299  1.0025
12963TIP3   OH260303   3.819   5.345  15.337 -0.4494 -0.1893  0.2907
12963TIP3    H160304   3.756   5.403  15.379 -1.5490 -1.3611  0.3383
12963TIP3    H260305   3.768   5.298  15.271  0.0833 -1.8986  1.0115
12964TIP3   OH260306   1.111   3.788  16.276 -0.1084 -0.7685 -0.3589
12964TIP3    H160307   1.133   3.846  16.349 -0.8818 -1.2486  0.2664
12964TIP3    H260308   1.149   3.704  16.299 -0.5365 -0.9785 -0.4068
12965TIP3   OH260309   5.040   0.736   1.199  0.4056  0.0295  0.6978
12965TIP3    H160310   4.948   0.752   1.180  0.6818  0.2209 -0.5977
12965TIP3    H260311   5.047   0.743   1.294 -1.1072 -1.1300  0.9244
12966TIP3   OH260312   0.949   4.491  13.283 -0.2875 -0.1801 -0.3539
12966TIP3    H160313   0.987   4.579  13.281 -2.4619  0.8421  0.2467
12966TIP3    H260314   0.913   4.479  13.195 -1.5336  0.3013  0.0661
12967TIP3   OH260315   5.747   5.363  15.738  0.4907  0.0909 -0.1120
12967TIP3    H160316   5.667   5.350  15.687 -0.1646 -0.3656  1.0153
12967TIP3    H260317   5.810   5.301  15.699  0.6010  1.0875 -1.5881
12968TIP3   OH260318   2.800   3.428   1.278 -0.0333  0.2401 -0.3809
12968TIP3    H160319   2.844   3.505   1.314  0.9423  0.0370 -1.0994
12968TIP3    H260320   2.707   3.447   1.287  0.1605  2.1052 -1.7432
12969TIP3   OH260321   5.714   6.078  15.669  0.0321 -0.1051 -0.2312
12969TIP3    H160322   5.647   6.032  15.720 -1.3427  0.6027 -1.3445
12969TIP3    H260323   5.786   6.091  15.731 -0.3667 -1.8808  0.6941
12970TIP3   OH260324   2.853   2.673  14.633  0.4476  0.2583 -0.4995
12970TIP3    H160325   2.787   2.666  14.565 -0.4891  1.1133  0.2892
12970TIP3    H260326   2.871   2.766  14.639  0.2811  0.2284  0.6330
12971TIP3   OH260327   2.847   5.783   3.372 -0.0695 -0.0940 -0.0734
12971TIP3    H160328   2.850   5.868   3.328 -0.5660  0.7258  1.4000
12971TIP3    H260329   2.938   5.753   3.370  0.0689  0.3382 -0.8416
12972TIP3   OH260330   5.884   0.650  12.275  0.1239  0.0176  0.0119
12972TIP3    H160331   5.934   0.571  12.298 -1.5572 -1.3927 -0.9035
12972TIP3    H260332   5.793   0.621  12.275 -0.7686  2.5180  1.7130
12973TIP3   OH260333   4.863   2.271  15.312 -0.6874  0.6361 -0.1263
12973TIP3    H160334   4.809   2.216  15.369 -0.8290  1.4205  0.5198
12973TIP3    H260335   4.944   2.222  15.301 -2.1220 -1.4271 -2.5689
12974TIP3   OH260336   0.973   1.691  16.934 -0.3291 -0.0211  0.8245
12974TIP3    H160337   1.012   1.742  16.863  0.4903  0.2083  1.4353
12974TIP3    H260338   0.947   1.756  17.000  0.1906 -0.3439  1.3503
12975TIP3   OH260339   5.430   6.324   1.216  0.0222  0.6505  0.2509
12975TIP3    H160340   5.474   6.242   1.197 -2.2956 -0.5966 -0.0537
12975TIP3    H260341   5.367   6.303   1.285 -1.1064  1.9815 -0.3031
12976TIP3   OH260342   1.385   0.208   6.047 -0.0055  0.1239  0.6403
12976TIP3    H160343   1.451   0.143   6.070  0.1187 -0.1055 -0.3374
12976TIP3    H260344   1.336   0.169   5.975 -0.9267  0.4855  1.0485
12977TIP3   OH260345   3.268   2.004  10.686 -0.0095  0.1585  0.0477
12977TIP3    H160346   3.231   2.043  10.766  1.6518  1.0687  0.4205
12977TIP3    H260347   3.334   1.943  10.718  0.1167 -0.0723 -0.6358
12978TIP3   OH260348   5.250   1.732   4.757  0.3727 -0.0838  0.1094
12978TIP3    H160349   5.293   1.692   4.832  0.6931 -0.3565 -0.2107
12978TIP3    H260350   5.202   1.659   4.716 -0.9350  0.3420  0.8234
12979TIP3   OH260351   5.376   0.023  15.282  0.1612 -0.3645  0.0995
12979TIP3    H160352   5.350  -0.045  15.220  1.2969  0.5138 -1.4053
12979TIP3    H260353   5.440  -0.019  15.339 -1.9389 -1.5901  1.6965
12980TIP3   OH260354   3.829   6.147   4.650 -0.9887  0.0896 -0.2560
12980TIP3    H160355   3.843   6.188   4.736  1.1062 -0.6714 -0.1821
12980TIP3    H260356   3.797   6.218   4.594  1.4307  1.6093  0.1554
12981TIP3   OH260357   1.341   5.998   1.096  0.2150 -0.0762  0.7643
12981TIP3    H160358   1.331   6.085   1.134 -0.8017  0.0912  0.1446
12981TIP3    H260359   1.311   6.007   1.006  1.6966 -0.6903  0.1778
12982TIP3   OH260360   2.447   1.442   1.075 -0.6033 -0.3319  0.0393
12982TIP3    H160361   2.535   1.405   1.066 -0.4809  0.3615 -2.3862
12982TIP3    H260362   2.389   1.370   1.049 -0.6941 -0.4396  0.5330
12983TIP3   OH260363   0.699   6.588  16.954 -0.4050  0.3960 -0.1569
12983TIP3    H160364   0.673   6.515  17.010 -1.6599  0.5029 -0.5806
12983TIP3    H260365   0.676   6.561  16.865  1.8057  0.1170 -0.7243
12984TIP3   OH260366   2.690   5.535   5.528 -0.1352 -0.4031  0.5015
12984TIP3    H160367   2.648   5.544   5.442  1.0150 -0.7043 -0.1066
12984TIP3    H260368   2.650   5.457   5.566  0.9768 -1.6191 -0.7342
12985TIP3   OH260369   0.891   4.967   5.613  0.1960 -0.4755 -0.7038
12985TIP3    H160370   0.906   4.874   5.631  1.0482  0.0341  1.4872
12985TIP3    H260371   0.882   5.007   5.699  0.3574  1.5704 -1.5849
12986TIP3   OH260372   3.860   5.052  16.010 -0.1418 -0.0194  0.2589
12986TIP3    H160373   3.951   5.053  15.981 -0.5531 -0.9372 -1.1531
12986TIP3    H260374   3.810   5.066  15.930 -1.3409 -2.6040  0.4628
12987TIP3   OH260375   5.183   5.650  17.138  0.3745 -0.0896  0.3866
12987TIP3    H160376   5.146   5.594  17.207  0.9779  0.2749  1.0194
12987TIP3    H260377   5.137   5.733  17.149 -0.5509 -0.4513 -0.5777
12988TIP3   OH260378   2.924   0.154  12.082 -0.0302 -0.4014 -0.2272
12988TIP3    H160379   2.851   0.216  12.090 -1.6530 -2.1709 -0.3802
12988TIP3    H260380   2.977   0.168  12.160 -0.0450  1.5053 -0.5188
12989TIP3   OH260381   5.208   5.469   6.208  0.8688 -0.2102 -0.2570
12989TIP3    H160382   5.188   5.539   6.271 -1.0908 -0.9171 -0.0063
12989TIP3    H260383   5.175   5.389   6.250  0.7451 -0.8935 -1.5997
12990TIP3   OH260384   6.067   2.016  13.067 -0.5425  0.3143  0.2495
12990TIP3    H160385   6.037   2.107  13.075 -0.4834  0.3555  0.0022
12990TIP3    H260386   6.122   2.016  12.989  0.4097  0.3212  0.9069
12991TIP3   OH260387   6.586   0.573   2.809 -0.1514  0.1053 -0.1284
12991TIP3    H160388   6.631   0.566   2.894 -1.6208 -0.2316  0.6557
12991TIP3    H260389   6.527   0.648   2.820 -0.9264 -0.4296 -0.5739
12992TIP3   OH260390   1.303   1.226   1.344 -0.2822  0.5604  0.2297
12992TIP3    H160391   1.222   1.233   1.395 -0.2770  0.8392  0.1990
12992TIP3    H260392   1.285   1.157   1.280  0.4967 -1.4904  2.0812
12993TIP3   OH260393   5.574   5.381   5.876  0.1823 -0.0795  0.0622
12993TIP3    H160394   5.662   5.344   5.879  0.1135 -0.3102 -0.7376
12993TIP3    H260395   5.549   5.389   5.968  0.5779 -1.1129  0.2783
12994TIP3   OH260396   3.149   3.941   5.047  0.6845  0.2821 -0.0209
12994TIP3    H160397   3.065   3.898   5.036  1.4027 -1.4292  0.8447
12994TIP3    H260398   3.131   4.016   5.103 -0.6720  1.4891 -1.9209
12995TIP3   OH260399   6.689   0.879  11.903 -0.1781 -0.0705  0.6969
12995TIP3    H160400   6.754   0.936  11.861  0.6794 -1.0092  0.7074
12995TIP3    H260401   6.683   0.911  11.993 -0.0006  0.2511  0.5963
12996TIP3   OH260402   0.301   2.540  14.168 -0.5134 -0.0007 -0.6842
12996TIP3    H160403   0.304   2.451  14.204 -2.2997  0.7206  1.5391
12996TIP3    H260404   0.389   2.575  14.183 -0.4717 -0.6216  0.7133
12997TIP3   OH260405   1.972   1.206  17.266  0.0775  0.1985 -0.3180
12997TIP3    H160406   1.923   1.217  17.185 -1.3540 -3.5365 -0.1498
12997TIP3    H260407   1.915   1.243  17.334  0.0424  0.8273 -0.6794
12998TIP3   OH260408   3.200   4.317  12.620  0.3583 -0.0700  0.0700
12998TIP3    H160409   3.204   4.229  12.657 -0.2769  0.1976  0.7962
12998TIP3    H260410   3.162   4.304  12.533 -0.9596 -0.3948  0.6632
12999TIP3   OH260411   4.903   6.602  14.053 -0.4730  0.6130  0.0403
12999TIP3    H160412   4.969   6.544  14.091 -1.3528  1.6049  3.4119
12999TIP3    H260413   4.843   6.542  14.008  0.8072 -0.6462 -0.0800
13000TIP3   OH260414   1.700   4.142   6.817  0.1375 -0.1482  0.1691
13000TIP3    H160415   1.796   4.144   6.809  0.1861 -1.1776  0.3964
13000TIP3    H260416   1.682   4.184   6.901  0.4812 -1.0955  0.7295
13001TIP3   OH260417   0.739   0.383  15.237 -0.0843 -0.0370 -0.2246
13001TIP3    H160418   0.759   0.433  15.316 -1.1616  1.0254 -0.5907
13001TIP3    H260419   0.652   0.345  15.254 -0.1938 -0.0456 -0.7718
13002TIP3   OH260420   4.680   5.837  14.458 -0.2289  0.1867 -0.2729
13002TIP3    H160421   4.719   5.847  14.371 -2.2018  0.3169 -1.2167
13002TIP3    H260422   4.647   5.925  14.480  0.3750  0.1850  0.6777
13003TIP3   OH260423   5.968   4.850  14.769 -0.5661  0.2986 -0.3966
13003TIP3    H160424   5.890   4.810  14.809  0.2672 -0.5325  0.4331
13003TIP3    H260425   6.030   4.858  14.841  1.0542 -1.4269 -1.5289
13004TIP3   OH260426   2.985   4.653  16.840 -0.4405 -0.3876  0.2984
13004TIP3    H160427   2.896   4.649  16.804 -0.2773  0.8106 -0.2992
13004TIP3    H260428   3.026   4.726  16.793  0.7577 -0.7201  0.8003
13005TIP3   OH260429   0.063   1.125  12.108  0.2429 -0.4176  0.0756
13005TIP3    H160430  -0.023   1.083  12.111  0.1116 -0.1218  0.5142
13005TIP3    H260431   0.045   1.219  12.117  0.4460 -0.1375 -1.8629
13006TIP3   OH260432   5.554   2.386  14.796  0.0646  0.4861  0.2599
13006TIP3    H160433   5.530   2.420  14.882 -1.0425 -0.8161  0.4969
13006TIP3    H260434   5.477   2.400  14.742 -0.6617 -2.0419  0.5198
13007TIP3   OH260435   5.169   2.790  11.267  0.2920  0.3613 -0.1252
13007TIP3    H160436   5.123   2.814  11.186  1.5055  0.6052 -0.7586
13007TIP3    H260437   5.241   2.853  11.273  1.1768 -0.6732  0.2877
13008TIP3   OH260438   6.452   0.734  12.567 -0.3465  0.1400 -0.0050
13008TIP3    H160439   6.382   0.796  12.585 -1.0778 -0.9722  1.2752
13008TIP3    H260440   6.528   0.788  12.548 -1.1308  1.4113  0.3216
13009TIP3   OH260441   5.653   0.201   0.177 -0.3203  0.0607  0.4866
13009TIP3    H160442   5.604   0.173   0.255  2.5324  0.5213  2.6169
13009TIP3    H260443   5.744   0.204   0.206  0.8521  0.6066 -2.8364
13010TIP3   OH260444   1.361   3.170  12.620 -0.3653  0.1469  0.3358
13010TIP3    H160445   1.313   3.250  12.642 -0.0746  0.2872  0.4747
13010TIP3    H260446   1.326   3.143  12.535 -1.6223 -0.4910  1.0364
13011TIP3   OH260447   5.534   2.976   4.823 -0.0105 -0.1763 -0.7261
13011TIP3    H160448   5.554   3.007   4.735  1.8742  1.2208  0.1202
13011TIP3    H260449   5.587   2.896   4.833 -1.9796 -1.6622 -1.5955
13012TIP3   OH260450   1.311   0.682   0.514 -0.2371 -0.6838  0.7353
13012TIP3    H160451   1.398   0.702   0.547  0.3244 -1.0565 -0.4493
13012TIP3    H260452   1.316   0.699   0.420 -1.1244 -1.7210  0.4689
13013TIP3   OH260453   5.856   5.121   4.827  0.0782 -0.3323 -0.0315
13013TIP3    H160454   5.846   5.027   4.844  0.5615 -0.5649 -0.9981
13013TIP3    H260455   5.812   5.136   4.744 -0.8436  0.4951  0.5799
13014TIP3   OH260456   0.574   3.751   3.303 -0.5909  0.1111  0.3291
13014TIP3    H160457   0.483   3.726   3.316 -0.7876  0.9755  0.7632
13014TIP3    H260458   0.608   3.760   3.392 -0.3035  0.5368  0.1781
13015TIP3   OH260459   3.656   3.498   6.446  0.5681 -0.1610  0.5072
13015TIP3    H160460   3.640   3.538   6.361  1.2539 -0.4656  0.2282
13015TIP3    H260461   3.716   3.558   6.490  0.1320  0.0498  0.8201
13016TIP3   OH260462   4.271   2.139   0.997  0.0639 -0.6374 -0.0531
13016TIP3    H160463   4.228   2.059   0.967 -0.2786 -0.1374 -0.9323
13016TIP3    H260464   4.272   2.196   0.921  2.3685 -0.6400 -0.0870
13017TIP3   OH260465   1.226   1.532  17.509  0.4029  0.1464 -0.3255
13017TIP3    H160466   1.165   1.461  17.530 -1.6787  1.6643 -0.8467
13017TIP3    H260467   1.282   1.538  17.586 -1.4446 -0.0139  1.1256
13018TIP3   OH260468   3.959   2.626  13.531  0.1706 -0.3277  0.2091
13018TIP3    H160469   3.877   2.620  13.481  1.4723 -0.0116 -2.1436
13018TIP3    H260470   3.974   2.720  13.542  0.7501 -0.3352 -0.4016
13019TIP3   OH260471   1.433   1.196  11.628  0.1460 -0.0908  0.0844
13019TIP3    H160472   1.371   1.201  11.700  1.1361 -1.7309  1.1133
13019TIP3    H260473   1.513   1.235  11.663  0.2767  0.2412 -0.5651
13020TIP3   OH260474   5.297   5.285  15.896  0.1420  0.3041 -0.1275
13020TIP3    H160475   5.372   5.228  15.878  1.0755  1.8981 -1.6358
13020TIP3    H260476   5.232   5.260  15.831  0.5292  0.8603 -0.7504
13021TIP3   OH260477   3.384   0.570  14.692 -0.5550  0.2087 -0.1224
13021TIP3    H160478   3.337   0.519  14.627  1.9393  0.2855 -2.1206
13021TIP3    H260479   3.465   0.522  14.707  0.7227  2.2417 -0.1225
13022TIP3   OH260480   5.705   3.309  12.256  0.8306  0.2895 -0.0325
13022TIP3    H160481   5.628   3.296  12.312  1.9183 -1.6362  1.1380
13022TIP3    H260482   5.762   3.367  12.307  0.4877  1.1054 -0.5672
13023TIP3   OH260483   3.067   5.145  16.431  0.5801  0.1078  0.0338
13023TIP3    H160484   3.130   5.196  16.381  0.3980 -1.0065 -1.3857
13023TIP3    H260485   3.088   5.054  16.411 -2.0122 -0.3089 -1.2515
13024TIP3   OH260486   5.467   1.126   1.038 -0.4790  0.3247  0.4368
13024TIP3    H160487   5.421   1.102   1.119 -1.4088  1.8384  0.3879
13024TIP3    H260488   5.520   1.201   1.062  0.0013  0.1703 -0.1325
13025TIP3   OH260489   2.340   6.389   0.259 -0.5586  0.2749 -0.1782
13025TIP3    H160490   2.321   6.376   0.166 -1.2691 -1.2907  0.1573
13025TIP3    H260491   2.255   6.401   0.300 -0.5282 -1.8369  0.6350
13026TIP3   OH260492   2.313   6.037   3.415 -0.1209 -0.2545 -0.1421
13026TIP3    H160493   2.322   5.949   3.451 -1.6043  0.0838  1.1422
13026TIP3    H260494   2.351   6.095   3.481 -2.8033  0.3612  1.0140
13027TIP3   OH260495   5.459   2.005   3.782 -0.6388 -0.2260 -0.0054
13027TIP3    H160496   5.439   1.916   3.752  0.8644 -1.4409  2.3025
13027TIP3    H260497   5.375   2.038   3.814 -1.2304 -0.7782 -0.9399
13028TIP3   OH260498   5.445   3.549   0.352  0.0741 -0.0395 -0.2819
13028TIP3    H160499   5.499   3.526   0.276  1.4749  0.8387  0.3990
13028TIP3    H260500   5.358   3.517   0.330  0.6188 -0.5095 -1.9207
13029TIP3   OH260501   1.747   2.400  12.492  0.0987  0.1993  0.1714
13029TIP3    H160502   1.713   2.348  12.419  2.4293 -0.5787 -0.4565
13029TIP3    H260503   1.676   2.460  12.515 -1.5052 -1.0804 -1.2239
13030TIP3   OH260504   5.462   2.146  14.511 -0.5208  0.2259 -0.4069
13030TIP3    H160505   5.428   2.089  14.442  0.0297 -1.2094  0.4660
13030TIP3    H260506   5.517   2.208  14.465  1.0849 -1.6564 -1.1813
13031TIP3   OH260507   6.000   2.683   4.473  0.2635  0.0769 -0.4625
13031TIP3    H160508   6.058   2.734   4.529  0.1628 -0.5096  0.1987
13031TIP3    H260509   5.948   2.747   4.426  0.3064  0.5829  0.1707
13032TIP3   OH260510   1.951   5.391  13.106 -0.2428 -0.2963  0.5000
13032TIP3    H160511   1.914   5.436  13.182 -0.2742 -1.3604  1.1371
13032TIP3    H260512   1.956   5.299  13.133 -2.3145 -1.1095 -1.5239
13033TIP3   OH260513   1.808   0.728  16.917  0.0853  0.2207 -0.4326
13033TIP3    H160514   1.714   0.737  16.901  0.0073  0.0796 -0.0354
13033TIP3    H260515   1.831   0.642  16.882 -0.2139 -0.3778  0.8010
13034TIP3   OH260516   5.042   4.974  11.491  0.0653  0.7535  0.3063
13034TIP3    H160517   5.117   4.948  11.545  0.5371 -0.5768 -0.9379
13034TIP3    H260518   4.991   4.894  11.479  0.9281  0.5227 -2.6418
13035TIP3   OH260519   3.954   2.723  15.109  0.1244 -0.3270 -0.2570
13035TIP3    H160520   3.943   2.653  15.173  2.1819  0.5133  1.1246
13035TIP3    H260521   3.951   2.680  15.024  0.0679 -1.8694  0.5053
13036TIP3   OH260522   3.009   1.157  17.264  0.0234 -0.3093  0.1068
13036TIP3    H160523   2.928   1.200  17.290  0.1672 -0.9140  1.6532
13036TIP3    H260524   3.019   1.085  17.326  0.6574 -1.5434 -1.3799
13037TIP3   OH260525   1.990   5.692  15.297  0.1378  0.0302  0.2093
13037TIP3    H160526   1.975   5.755  15.227  1.4561 -1.3287 -1.3889
13037TIP3    H260527   2.025   5.615  15.253  1.0199 -0.9007  2.3770
13038TIP3   OH260528   2.997   0.734   3.375 -0.3130  0.0090  1.6535
13038TIP3    H160529   3.008   0.827   3.356 -1.7424 -0.0345  0.4514
13038TIP3    H260530   2.990   0.692   3.289 -0.6984 -1.0617  2.1896
13039TIP3   OH260531   0.582   1.364   2.551  0.4250  0.8223  0.3927
13039TIP3    H160532   0.557   1.298   2.616  0.1950  0.7887  0.2685
13039TIP3    H260533   0.505   1.419   2.541  0.2784  0.5152 -0.2368
13040TIP3   OH260534   4.112   0.062   1.350 -0.2847  0.1753  0.5141
13040TIP3    H160535   4.019   0.069   1.327 -0.3564  1.5136  1.1182
13040TIP3    H260536   4.114   0.004   1.426 -0.5778 -0.1419  0.2851
13041TIP3   OH260537   0.987   2.208  14.779 -0.0453  0.4074  0.1071
13041TIP3    H160538   0.944   2.290  14.804  0.1738  0.1979  1.2519
13041TIP3    H260539   1.067   2.236  14.734  1.6664  0.9706  3.1896
13042TIP3   OH260540   2.952   1.759   0.865  0.3952  0.1633 -0.1072
13042TIP3    H160541   2.889   1.705   0.818 -2.3158  2.3832  0.7023
13042TIP3    H260542   2.965   1.836   0.809  0.6888  0.7108  0.6909
13043TIP3   OH260543   6.292   6.070   3.822 -0.0075  0.3471 -0.5082
13043TIP3    H160544   6.229   6.134   3.856  0.8297  0.2995  1.2603
13043TIP3    H260545   6.250   5.985   3.838  0.4739  0.3155  0.6660
13044TIP3   OH260546   4.954   3.865  17.173  0.6034  0.0821  0.3783
13044TIP3    H160547   5.036   3.913  17.160  0.1608  0.3524 -1.6849
13044TIP3    H260548   4.886   3.931  17.162  0.0327 -0.7145 -1.1489
13045TIP3   OH260549   6.509   5.782   4.377  0.3937  0.3414 -0.4346
13045TIP3    H160550   6.458   5.702   4.389  0.1561  0.6816  1.0689
13045TIP3    H260551   6.485   5.838   4.451  2.4372  0.7882 -0.0374
13046TIP3   OH260552   3.553   3.347  14.990 -0.4139 -0.2539 -0.1693
13046TIP3    H160553   3.564   3.356  14.895  2.8059 -0.2791  0.1059
13046TIP3    H260554   3.573   3.256  15.008  0.1417  0.0223  0.6481
13047TIP3   OH260555   3.614   3.315  14.665 -0.4527 -0.1872 -0.7481
13047TIP3    H160556   3.681   3.255  14.699 -0.3452  0.2959 -0.0728
13047TIP3    H260557   3.553   3.259  14.618  0.4049 -0.6447 -1.3422
13048TIP3   OH260558   2.823   4.063   0.080  0.3436  0.0415  0.0486
13048TIP3    H160559   2.766   4.140   0.075  1.8388  1.1754 -0.1249
13048TIP3    H260560   2.880   4.080   0.155  2.3556  0.3171 -1.4787
13049TIP3   OH260561   2.770   4.906  14.493 -0.3478 -0.1838 -0.1878
13049TIP3    H160562   2.730   4.983  14.534  1.3473  0.6195  0.0184
13049TIP3    H260563   2.863   4.913  14.514  0.3621 -0.5956 -2.8151
13050TIP3   OH260564   3.500   2.541  16.440  0.0032 -0.3759 -0.4756
13050TIP3    H160565   3.556   2.498  16.505 -0.5858  0.5542  0.6911
13050TIP3    H260566   3.416   2.551  16.483 -0.8386 -1.0022 -1.9157
13051TIP3   OH260567   2.111   4.324   3.723 -0.2659 -0.3865 -0.3303
13051TIP3    H160568   2.165   4.310   3.800  1.1231 -0.5911 -1.3116
13051TIP3    H260569   2.054   4.397   3.747  2.2313  1.6488 -0.1229
13052TIP3   OH260570   3.335   1.173  12.151 -0.6559  0.3400  0.1522
13052TIP3    H160571   3.426   1.191  12.127 -0.7003 -1.0510 -1.2122
13052TIP3    H260572   3.283   1.221  12.086 -0.8669  0.3375  0.3185
13053TIP3   OH260573   6.270   3.609   4.032 -0.1386 -0.0426  0.2567
13053TIP3    H160574   6.240   3.564   4.111 -1.5356 -0.4700 -0.4886
13053TIP3    H260575   6.212   3.578   3.962 -0.5081  2.1273 -0.4871
13054TIP3   OH260576   5.715   1.640  14.657  0.3232  0.4939  0.4367
13054TIP3    H160577   5.699   1.683  14.573  0.2658  0.7025  0.5538
13054TIP3    H260578   5.782   1.574  14.638 -0.0545  0.1953  0.1218
13055TIP3   OH260579   1.821   5.094   1.378  0.5213  0.8226 -0.2957
13055TIP3    H160580   1.891   5.093   1.444  0.2567  1.2863 -0.0043
13055TIP3    H260581   1.756   5.155   1.413 -1.1023 -1.2650  0.5447
13056TIP3   OH260582   1.099   6.321  16.563  0.2060 -0.4072 -0.5144
13056TIP3    H160583   1.171   6.271  16.601 -0.4645 -0.8491  0.2224
13056TIP3    H260584   1.136   6.407  16.546  0.1973  0.2957  2.5529
13057TIP3   OH260585   4.669   2.493  15.282  0.2821 -0.3399 -0.6340
13057TIP3    H160586   4.654   2.490  15.377  0.1768  0.9772 -0.5883
13057TIP3    H260587   4.712   2.410  15.262  0.7871 -0.4201  0.6598
13058TIP3   OH260588   3.032   1.766  16.132  0.2074  0.4880  0.2754
13058TIP3    H160589   3.125   1.781  16.118  0.3724 -1.5353 -1.1899
13058TIP3    H260590   3.025   1.674  16.156 -1.6178 -0.4733 -3.1543
13059TIP3   OH260591   0.377   1.072   3.780 -0.9631  0.6537  0.8233
13059TIP3    H160592   0.323   1.085   3.703  0.3283 -2.1899 -0.7226
13059TIP3    H260593   0.371   1.154   3.829 -4.3915  1.3963 -0.6264
13060TIP3   OH260594   6.153   0.144   6.394  0.2701 -0.1287  0.9626
13060TIP3    H160595   6.154   0.082   6.321  0.4270 -0.1290  0.9653
13060TIP3    H260596   6.093   0.105   6.457 -0.1396  0.0471  0.6820
13061TIP3   OH260597   5.501   3.792  11.217  0.1336  0.3843 -0.0355
13061TIP3    H160598   5.495   3.792  11.121  1.3782 -1.8193 -0.1770
13061TIP3    H260599   5.586   3.753  11.235 -1.7914 -3.3937  1.9577
13062TIP3   OH260600   6.573   6.532  11.835 -0.4107  0.8438 -0.2023
13062TIP3    H160601   6.581   6.541  11.930 -0.8171  0.7861 -0.1639
13062TIP3    H260602   6.638   6.594  11.800  2.3889 -1.6742  0.1382
13063TIP3   OH260603   4.810   6.485   5.150 -0.1025  0.0921 -0.1800
13063TIP3    H160604   4.719   6.512   5.143  0.1191  1.0104  0.3396
13063TIP3    H260605   4.837   6.510   5.238  1.7324  3.3619 -1.4991
13064TIP3   OH260606   6.403   0.896   3.757 -0.2497  0.3129  0.2332
13064TIP3    H160607   6.374   0.826   3.816 -0.7269  1.0518  0.8898
13064TIP3    H260608   6.491   0.870   3.730  0.3321  0.3746  1.9668
13065TIP3   OH260609   5.540   3.245   5.903  0.3291 -0.4891  0.1154
13065TIP3    H160610   5.471   3.224   5.966  0.4741  2.3868  1.4162
13065TIP3    H260611   5.521   3.335   5.875  3.1110  0.1856  0.0321
13066TIP3   OH260612   2.574   2.737  14.814 -0.0343  0.2306  0.2165
13066TIP3    H160613   2.600   2.645  14.821 -0.5396  0.1107  0.6060
13066TIP3    H260614   2.638   2.784  14.867  0.1872  0.0958  0.0700
13067TIP3   OH260615   4.983   5.304  16.111 -0.3902 -0.1306 -0.8515
13067TIP3    H160616   4.985   5.218  16.069  0.2954 -1.4078  1.6495
13067TIP3    H260617   5.066   5.345  16.086 -0.5707 -0.2996 -1.7749
13068TIP3   OH260618   0.439   6.251   6.534  0.4431  0.8161 -0.8787
13068TIP3    H160619   0.369   6.256   6.470 -1.3067  2.1618  1.0256
13068TIP3    H260620   0.465   6.159   6.534 -1.4047  0.2525 -1.5641
13069TIP3   OH260621   3.357   3.097  13.059  0.5483 -0.0160  0.1472
13069TIP3    H160622   3.380   3.138  12.976  0.4571 -0.8681 -0.3093
13069TIP3    H260623   3.432   3.041  13.080 -0.4109 -1.6458 -0.5873
13070TIP3   OH260624   1.189   6.475   0.564 -0.1783 -0.0435 -0.0468
13070TIP3    H160625   1.137   6.462   0.643  0.5718 -0.1849  0.4379
13070TIP3    H260626   1.125   6.484   0.494 -0.8493 -0.1882  0.5370
13071TIP3   OH260627   0.385   2.725   3.104 -0.4709  0.2850 -0.4588
13071TIP3    H160628   0.440   2.794   3.066 -0.6890  0.2745 -0.7945
13071TIP3    H260629   0.418   2.715   3.194  1.6994 -1.4217 -1.3571
13072TIP3   OH260630   3.811   3.091   0.323 -0.3935 -0.1573 -0.2109
13072TIP3    H160631   3.735   3.038   0.347 -0.0587 -2.1239 -2.9736
13072TIP3    H260632   3.781   3.145   0.250  0.1583  1.1306  0.4849
13073TIP3   OH260633   3.094   6.124  16.235 -0.7024  0.6965 -0.6567
13073TIP3    H160634   3.151   6.089  16.304 -0.1792 -0.7912 -1.7774
13073TIP3    H260635   3.023   6.167  16.282  0.4142  1.0567  0.7932
13074TIP3   OH260636   0.666   0.893   5.700 -0.0841 -0.4452  0.5737
13074TIP3    H160637   0.681   0.980   5.736  0.6184 -0.7321  0.9869
13074TIP3    H260638   0.648   0.838   5.777 -1.5873 -0.4705  0.2426
13075TIP3   OH260639   4.269   5.180   1.016 -0.5948 -0.0021 -0.5314
13075TIP3    H160640   4.177   5.175   0.989 -1.6063  0.4469  2.3877
13075TIP3    H260641   4.280   5.271   1.044  0.7959 -0.0293 -0.9334
13076TIP3   OH260642   5.223   6.699  12.151 -0.2942  0.1796 -0.0503
13076TIP3    H160643   5.160   6.752  12.102 -0.7764  0.2333  0.6107
13076TIP3    H260644   5.238   6.622  12.096 -2.3269 -0.7245  0.5427
13077TIP3   OH260645   3.356   5.132   2.737 -0.0161 -0.3132 -0.3177
13077TIP3    H160646   3.281   5.073   2.733  0.5810 -1.0413 -1.6470
13077TIP3    H260647   3.423   5.089   2.683  1.1964  0.5374  0.4519
13078TIP3   OH260648   4.618   1.854   0.101  0.3279  0.6343  0.1600
13078TIP3    H160649   4.623   1.835   0.195 -1.5379  0.8845  0.3449
13078TIP3    H260650   4.525   1.860   0.083  0.6732  1.1052 -1.6256
13079TIP3   OH260651   6.708   2.233  17.018  0.2785 -0.4994  0.0169
13079TIP3    H160652   6.722   2.304  17.080  0.2040  1.3404 -1.9434
13079TIP3    H260653   6.795   2.197  17.003  0.5637  0.2043 -0.0779
13080TIP3   OH260654   5.686   3.032   3.625 -0.9854 -0.5146  0.0353
13080TIP3    H160655   5.637   3.032   3.543 -2.6616 -3.7948  0.8834
13080TIP3    H260656   5.762   2.977   3.608 -1.2961 -1.1432  0.6125
13081TIP3   OH260657   2.948   0.020   5.186 -0.2154  0.4418  0.1485
13081TIP3    H160658   3.021   0.060   5.232 -0.1378 -0.3652  0.7408
13081TIP3    H260659   2.903   0.093   5.144  0.3078  1.0635  0.6570
13082TIP3   OH260660   4.557   5.070  12.555 -0.2977 -0.0767  0.0036
13082TIP3    H160661   4.529   5.099  12.642  1.3312  0.0382  0.5325
13082TIP3    H260662   4.601   5.146  12.517  0.2717 -0.5564 -0.3158
13083TIP3   OH260663   4.997   2.301   3.703  0.6713 -0.9254 -0.2872
13083TIP3    H160664   4.915   2.275   3.747 -0.2811  1.3700 -0.5633
13083TIP3    H260665   4.989   2.264   3.615 -1.4254  1.4466 -1.2253
13084TIP3   OH260666   5.016   5.905   0.854  0.0509 -0.3655  0.4895
13084TIP3    H160667   4.969   5.848   0.794  1.8499 -0.3365 -1.0555
13084TIP3    H260668   4.949   5.962   0.890 -1.1763 -0.5877 -1.2822
13085TIP3   OH260669   0.822   1.588  17.430 -0.4374 -0.8108  0.1461
13085TIP3    H160670   0.814   1.495  17.449  0.7417 -1.0295 -0.2991
13085TIP3    H260671   0.766   1.601  17.353 -1.2983 -0.9527  0.7339
13086TIP3   OH260672   3.181   4.028  11.367 -0.5689 -0.1255 -0.7866
13086TIP3    H160673   3.129   4.015  11.288  0.3177 -0.7142 -1.2864
13086TIP3    H260674   3.118   4.018  11.439 -0.8020 -3.1871 -1.2710
13087TIP3   OH260675   2.695   0.409  11.135  0.2624  0.3440 -0.2083
13087TIP3    H160676   2.730   0.464  11.066  1.0889 -0.4907 -0.4693
13087TIP3    H260677   2.769   0.354  11.163 -0.5457 -0.7010 -0.0278
13088TIP3   OH260678   4.703   4.506  15.576  0.1716 -0.2507  0.3731
13088TIP3    H160679   4.733   4.461  15.656  0.9116  0.1363  0.3222
13088TIP3    H260680   4.743   4.592  15.581  1.9342 -0.8866 -1.4163
13089TIP3   OH260681   2.487   2.090  14.136  0.0127  0.5095  0.4692
13089TIP3    H160682   2.473   1.995  14.137 -1.2205  0.6313 -1.2091
13089TIP3    H260683   2.571   2.102  14.178 -0.1361 -1.2721  1.3757
13090TIP3   OH260684   5.272   2.790   6.531 -0.5716 -0.3121  0.2153
13090TIP3    H160685   5.186   2.786   6.572 -0.1554  2.0775  1.4730
13090TIP3    H260686   5.256   2.826   6.444 -0.8503  0.2829  0.5073
13091TIP3   OH260687   3.233   2.450  16.528  0.7056  0.6146  0.2641
13091TIP3    H160688   3.246   2.355  16.525  0.8194  0.6313  0.1951
13091TIP3    H260689   3.197   2.467  16.615 -0.6573  0.3434 -0.2257
13092TIP3   OH260690   6.155   1.533  12.201  0.4930  0.0613 -0.4060
13092TIP3    H160691   6.149   1.443  12.170  2.1983 -0.0173 -0.5937
13092TIP3    H260692   6.186   1.525  12.291  1.4186  0.4771 -0.6803
13093TIP3   OH260693   0.320   6.388   5.154 -0.6592  0.2589 -0.1608
13093TIP3    H160694   0.278   6.363   5.237 -0.8440  1.2876  0.0746
13093TIP3    H260695   0.248   6.421   5.100 -0.2520  1.6068  0.0764
13094TIP3   OH260696   5.537   0.969   0.317 -0.0124 -0.4800  0.3160
13094TIP3    H160697   5.455   0.976   0.366 -0.7842  0.7941 -1.0793
13094TIP3    H260698   5.597   1.026   0.364 -0.3776 -0.2344  0.4898
13095TIP3   OH260699   5.434   5.940  12.664  0.5508  0.6966  0.1043
13095TIP3    H160700   5.396   6.027  12.653 -2.3535 -0.7500 -3.5809
13095TIP3    H260701   5.514   5.943  12.612  1.6566  1.6862  1.7841
13096TIP3   OH260702   2.212   6.022  15.405  0.5497 -0.5074  0.2712
13096TIP3    H160703   2.215   6.058  15.494 -3.0639 -0.4443  0.5095
13096TIP3    H260704   2.250   6.091  15.350 -0.4507  1.0193  1.4097
13097TIP3   OH260705   3.931   5.700  13.631 -0.7208 -0.5566  0.4089
13097TIP3    H160706   3.858   5.641  13.645 -3.1128  1.9129 -0.7241
13097TIP3    H260707   3.940   5.748  13.714  0.9450 -2.1143  1.1879
13098TIP3   OH260708   4.843   0.949   0.437  0.1896 -0.0566 -0.3447
13098TIP3    H160709   4.908   1.019   0.447 -0.0451  0.1590 -0.3232
13098TIP3    H260710   4.855   0.919   0.347 -0.8993  1.2193 -0.9547
13099TIP3   OH260711   0.905   6.192   4.169  0.0112  0.2016 -0.6131
13099TIP3    H160712   0.874   6.207   4.079  1.2137  1.8619 -0.7935
13099TIP3    H260713   1.000   6.196   4.162  0.1089  2.0593  0.9662
13100TIP3   OH260714   1.686   1.311  13.834  0.3201 -0.1905 -0.2846
13100TIP3    H160715   1.616   1.298  13.898 -0.1259  2.8782 -0.0244
13100TIP3    H260716   1.659   1.388  13.784  2.6285 -0.0678 -1.4634
13101TIP3   OH260717   3.879   4.760  14.543 -0.4785  0.0813 -0.3860
13101TIP3    H160718   3.827   4.838  14.525  2.6003  2.5327  0.4476
13101TIP3    H260719   3.923   4.779  14.626 -0.5346 -3.1513  0.5448
13102TIP3   OH260720   5.463   0.952   1.653 -0.3698 -0.0481  0.0087
13102TIP3    H160721   5.512   0.919   1.578  0.6297  2.1723 -0.4019
13102TIP3    H260722   5.521   0.938   1.728 -1.2076 -1.8979  0.3912
13103TIP3   OH260723   5.818   6.158  14.968  0.0716  0.1047 -0.2052
13103TIP3    H160724   5.724   6.153  14.983  0.0825 -0.0764 -0.1941
13103TIP3    H260725   5.855   6.175  15.055  0.0588  0.0576 -0.1905
13104TIP3   OH260726   1.803   0.010   4.530  0.0722  1.1559 -0.3059
13104TIP3    H160727   1.890  -0.030   4.524  0.0095  1.1419 -1.1893
13104TIP3    H260728   1.786   0.044   4.442 -0.8958  0.9917 -0.1908
13105TIP3   OH260729   4.315   3.252  16.937 -0.5348  0.2983 -0.2656
13105TIP3    H160730   4.411   3.252  16.927 -0.4786 -1.2466  0.0326
13105TIP3    H260731   4.300   3.207  17.020 -1.5787 -1.1229 -1.1995
13106TIP3   OH260732   0.004   1.831   4.515  0.6406  0.0189 -0.0877
13106TIP3    H160733  -0.025   1.751   4.472 -0.3897  0.5836 -0.4670
13106TIP3    H260734  -0.076   1.870   4.551  1.1630  0.7544  0.3060
13107TIP3   OH260735   2.726   5.049   1.107  0.6706 -0.0384  0.2629
13107TIP3    H160736   2.760   5.138   1.110  1.1760 -0.2290  0.3377
13107TIP3    H260737   2.671   5.041   1.185 -0.1926  0.5248 -0.2773
13108TIP3   OH260738   4.076   3.751   1.152  0.5125  0.5625 -0.0575
13108TIP3    H160739   4.133   3.684   1.116 -0.0248  0.0507  0.0246
13108TIP3    H260740   4.135   3.816   1.190  1.0160 -1.0781  2.1065
13109TIP3   OH260741   3.565   2.100  16.942 -0.0851 -0.4967 -0.0106
13109TIP3    H160742   3.637   2.068  16.997  0.8500  1.1336 -0.2281
13109TIP3    H260743   3.608   2.129  16.862 -0.9060  1.0208  0.0824
13110TIP3   OH260744   5.581   3.622  15.896  0.5292  0.2232  0.5714
13110TIP3    H160745   5.538   3.610  15.811 -1.5235  1.2597  1.3835
13110TIP3    H260746   5.637   3.545  15.906 -0.8529 -1.0345 -0.7672
13111TIP3   OH260747   2.312   6.253  14.083  0.2003  0.0278 -0.2396
13111TIP3    H160748   2.373   6.182  14.066  1.2808  1.0724 -0.8428
13111TIP3    H260749   2.325   6.314  14.011 -1.0748  0.6130 -0.0108
13112TIP3   OH260750   4.368   5.982   0.477  0.5350 -0.2836 -0.1113
13112TIP3    H160751   4.326   6.047   0.535 -0.3000  1.1140 -2.1681
13112TIP3    H260752   4.456   5.973   0.513  0.3840  1.3140  0.7959
13113TIP3   OH260753   0.409   2.163   0.668  0.4159  0.3888 -0.0645
13113TIP3    H160754   0.501   2.138   0.679  0.4054 -0.2222 -1.2140
13113TIP3    H260755   0.406   2.205   0.582 -0.3670  0.4830  0.0054
13114TIP3   OH260756   1.221   6.025   6.162  0.6775 -0.1195 -0.1933
13114TIP3    H160757   1.279   5.949   6.160 -0.8032 -1.3223 -2.8329
13114TIP3    H260758   1.146   5.998   6.215 -0.1477 -0.8524 -1.6475
13115TIP3   OH260759   2.102   2.350  14.920  0.0663  0.2764 -0.5381
13115TIP3    H160760   2.143   2.436  14.912 -0.1080  0.5876  1.5627
13115TIP3    H260761   2.008   2.367  14.908  0.0411  0.3753 -0.2108
13116TIP3   OH260762   2.500   5.856   1.678  0.3720 -0.2610 -0.0576
13116TIP3    H160763   2.524   5.765   1.696 -2.7675 -1.2982 -0.6044
13116TIP3    H260764   2.486   5.895   1.764 -0.2876 -0.9191  0.1403
13117TIP3   OH260765   1.246   3.548  16.297 -0.0099 -0.1787  0.8671
13117TIP3    H160766   1.339   3.554  16.274 -0.3865  0.1347 -0.7250
13117TIP3    H260767   1.230   3.453  16.302  0.5479 -0.2330  1.9140
13118TIP3   OH260768   3.934   2.208   3.516  0.2633  0.1818  0.3152
13118TIP3    H160769   4.022   2.243   3.526  0.0756  0.2202  2.0080
13118TIP3    H260770   3.906   2.185   3.604 -2.1542  1.8995  0.0921
13119TIP3   OH260771   1.695   5.710  13.065  0.7737  0.3207  0.1762
13119TIP3    H160772   1.760   5.697  12.996 -0.1590 -1.4084 -0.4409
13119TIP3    H260773   1.714   5.641  13.129  1.4969  1.7770  1.5867
13120TIP3   OH260774   5.477   4.672   0.181  0.4116 -0.3829 -0.2235
13120TIP3    H160775   5.427   4.741   0.137 -1.0002 -0.0478  1.7318
13120TIP3    H260776   5.499   4.709   0.266  0.8336 -1.8515  0.3430
13121TIP3   OH260777   5.233   2.067   4.512  0.2194  0.3937  0.3653
13121TIP3    H160778   5.247   2.104   4.425  0.5943 -0.8080 -0.1014
13121TIP3    H260779   5.316   2.025   4.534  0.1271  0.6895  1.3186
13122TIP3   OH260780   4.537   0.523   1.436  0.3451  0.4540 -0.5523
13122TIP3    H160781   4.568   0.503   1.348  0.2021  0.5837 -0.6320
13122TIP3    H260782   4.543   0.439   1.483 -0.5144  0.1459 -0.9660
13123TIP3   OH260783   3.972   5.949  14.224  0.3654  0.1899  0.0380
13123TIP3    H160784   3.890   5.927  14.268  0.2757  1.1265  0.3483
13123TIP3    H260785   3.954   5.937  14.131  0.7486 -2.4821  0.2128
13124TIP3   OH260786   4.544   6.707  16.619  0.7134 -0.1209  0.4139
13124TIP3    H160787   4.492   6.628  16.629 -0.9822  0.9128  0.1098
13124TIP3    H260788   4.504   6.770  16.679  0.3294  1.3171 -1.2962
13125TIP3   OH260789   1.723   5.658  11.762  0.5134  0.2670  0.1506
13125TIP3    H160790   1.718   5.600  11.687 -1.2102  0.6222 -0.0550
13125TIP3    H260791   1.716   5.600  11.838  0.9637  0.0244  0.0089
13126TIP3   OH260792   0.660   3.979   5.664 -0.6442 -0.1993 -0.3380
13126TIP3    H160793   0.711   4.060   5.671  0.3689 -0.8174 -0.4136
13126TIP3    H260794   0.569   4.008   5.674 -0.7471  1.5493 -4.4702
13127TIP3   OH260795   6.178   6.349  16.768  0.0162 -0.1517  0.2830
13127TIP3    H160796   6.173   6.436  16.730 -0.5146  0.0813  0.8561
13127TIP3    H260797   6.137   6.292  16.702  0.8692 -0.0607 -0.3350
13128TIP3   OH260798   3.289   3.207   3.752  0.4076 -0.1555 -0.3173
13128TIP3    H160799   3.293   3.216   3.847 -2.1230 -0.2495 -0.1477
13128TIP3    H260800   3.279   3.113   3.737  1.7573 -0.2513 -0.7619
13129TIP3   OH260801   1.347   1.816   3.862 -0.7949  0.8825  0.1936
13129TIP3    H160802   1.258   1.798   3.893 -0.4926 -2.0048 -0.3296
13129TIP3    H260803   1.394   1.844   3.941 -1.4521 -0.5900  1.1596
13130TIP3   OH260804   1.141   3.153  13.866  0.1995 -0.5618 -0.3720
13130TIP3    H160805   1.067   3.213  13.873  0.4904 -0.0866 -1.1626
13130TIP3    H260806   1.119   3.097  13.792  0.7304 -0.2628 -0.7604
13131TIP3   OH260807   4.148   2.590  10.635  0.1748 -0.1364  0.6298
13131TIP3    H160808   4.206   2.584  10.558 -0.7929 -4.4665  0.0125
13131TIP3    H260809   4.206   2.572  10.709  0.6928  1.9097  0.7890
13132TIP3   OH260810   5.926   3.620   2.218 -0.4107 -0.4007  0.0117
13132TIP3    H160811   5.989   3.570   2.270 -1.6541 -1.3809  0.6320
13132TIP3    H260812   5.870   3.662   2.283 -0.6924  0.0876 -0.5388
13133TIP3   OH260813   1.452   3.429  14.470  0.2811 -0.4294 -0.1368
13133TIP3    H160814   1.399   3.497  14.429  0.3016 -0.2180  0.1824
13133TIP3    H260815   1.388   3.364  14.501  0.3332 -1.2321 -1.6212
13134TIP3   OH260816   0.995   6.385  11.842 -0.2154 -0.4551  0.1982
13134TIP3    H160817   0.982   6.302  11.798 -1.1651 -1.4686  2.2738
13134TIP3    H260818   1.086   6.409  11.822 -0.7258 -0.5850 -2.6042
13135TIP3   OH260819   2.578   1.705  12.271  0.9633  0.4815 -0.2903
13135TIP3    H160820   2.586   1.639  12.340 -1.8857  1.3759  1.0320
13135TIP3    H260821   2.543   1.782  12.316  1.4176  1.9400 -2.3194
13136TIP3   OH260822   0.493   6.196  15.556 -0.3717 -0.0160  0.2032
13136TIP3    H160823   0.431   6.237  15.616  0.6821 -1.1290  2.1317
13136TIP3    H260824   0.511   6.110  15.594  0.6478 -0.6183 -1.5114
13137TIP3   OH260825   4.645   5.038   3.817 -0.4215  0.3929  0.5866
13137TIP3    H160826   4.567   4.985   3.830 -0.5113 -0.3222 -2.1746
13137TIP3    H260827   4.618   5.106   3.756  1.0280  0.2166 -0.3151
13138TIP3   OH260828   3.329   3.662   1.105  0.1117 -0.6719 -0.1651
13138TIP3    H160829   3.245   3.672   1.060  0.2996  1.9730 -0.0550
13138TIP3    H260830   3.307   3.627   1.191 -1.1720  1.9174  0.6401
13139TIP3   OH260831   4.627   4.743  13.019 -0.9217 -0.1878  0.4979
13139TIP3    H160832   4.669   4.676  13.073  0.2675 -0.5285 -0.7864
13139TIP3    H260833   4.534   4.737  13.042 -0.7511 -1.8094  0.9213
13140TIP3   OH260834   6.102   2.457  11.814  0.2704  0.3097  0.4596
13140TIP3    H160835   6.115   2.386  11.751 -2.7655 -0.1106  0.1653
13140TIP3    H260836   6.115   2.416  11.900 -3.1019 -1.2497  0.4040
13141TIP3   OH260837   2.148   0.551  12.136 -0.0344 -0.3424 -0.1875
13141TIP3    H160838   2.101   0.502  12.069 -1.2603 -0.8037  0.9546
13141TIP3    H260839   2.107   0.637  12.137 -2.0605 -1.2193  1.8704
13142TIP3   OH260840   1.827   3.510   5.666 -0.4702  0.5674 -0.1009
13142TIP3    H160841   1.763   3.581   5.662 -0.8346  0.3826  1.4972
13142TIP3    H260842   1.867   3.519   5.753 -0.0876 -0.8186 -0.1037
13143TIP3   OH260843   0.156   2.063   1.368  0.6596 -0.7237 -0.3344
13143TIP3    H160844   0.131   2.046   1.277  0.9629 -0.1973 -0.5208
13143TIP3    H260845   0.191   2.152   1.367 -1.3114  0.1204  0.6900
13144TIP3   OH260846   6.477   2.262   1.789 -0.0615  0.5073 -0.6138
13144TIP3    H160847   6.551   2.322   1.794 -0.2074  0.6130  2.3983
13144TIP3    H260848   6.423   2.284   1.865 -1.3554 -1.8516 -0.7385
13145TIP3   OH260849   1.640   2.279   0.831  0.0036  0.2470 -0.4913
13145TIP3    H160850   1.692   2.279   0.911 -1.0642  0.3387  0.2256
13145TIP3    H260851   1.668   2.201   0.783  1.9811  1.1655 -0.9371
13146TIP3   OH260852   2.041   4.389   5.868  0.4119  0.0318 -0.1520
13146TIP3    H160853   2.025   4.472   5.914  1.3102 -1.1970  2.5868
13146TIP3    H260854   2.129   4.399   5.831  1.0537 -0.1132  1.2733
13147TIP3   OH260855   6.208   2.200   4.510  0.1139  0.3663  0.5744
13147TIP3    H160856   6.204   2.295   4.495  1.2953  0.5326  1.1510
13147TIP3    H260857   6.131   2.180   4.562 -0.2831  0.9653  0.2279
13148TIP3   OH260858   2.716   6.130   1.933  0.1948  0.3485  0.7916
13148TIP3    H160859   2.639   6.102   1.884  0.7496 -0.3243  0.2907
13148TIP3    H260860   2.702   6.097   2.022  0.0245  0.0092  0.6389
13149TIP3   OH260861   1.522   2.387   3.383 -0.0368  0.1994  0.2021
13149TIP3    H160862   1.467   2.414   3.457 -3.2968 -2.3534 -1.0432
13149TIP3    H260863   1.566   2.308   3.413 -1.2664 -0.7691 -0.4540
13150TIP3   OH260864   0.560   5.449   1.358 -0.1664  0.2478 -0.2765
13150TIP3    H160865   0.538   5.356   1.356 -1.2962  0.5155 -0.7260
13150TIP3    H260866   0.648   5.452   1.395 -0.3299 -0.9600  0.2365
13151TIP3   OH260867   2.019   3.724  12.483  0.0663 -0.5416  0.1240
13151TIP3    H160868   1.932   3.688  12.469  0.4259 -0.9946 -1.1269
13151TIP3    H260869   2.078   3.660  12.442  0.9871 -0.2185  0.8854
13152TIP3   OH260870   4.512   6.502  14.762  0.3485  0.6863  0.0035
13152TIP3    H160871   4.471   6.525  14.845  3.6134  1.1293  1.6508
13152TIP3    H260872   4.503   6.582  14.709 -2.9709 -0.0320 -0.8017
13153TIP3   OH260873   4.556   2.765  15.514 -0.3659 -0.1584  0.1564
13153TIP3    H160874   4.465   2.735  15.511 -0.4468  0.1255 -0.2149
13153TIP3    H260875   4.600   2.714  15.447 -0.4764  0.4396 -0.3870
13154TIP3   OH260876   4.587   1.946   4.592 -0.0581  0.3067  0.0562
13154TIP3    H160877   4.598   1.909   4.680 -1.5427  0.2827  0.2607
13154TIP3    H260878   4.611   1.874   4.533 -0.1475 -0.0524  0.4481
13155TIP3   OH260879   1.426   0.308  12.907 -0.0853  0.2970 -0.0551
13155TIP3    H160880   1.438   0.241  12.974 -0.3117  2.3249  2.1565
13155TIP3    H260881   1.341   0.289  12.868 -0.3831 -0.3851  0.9008
13156TIP3   OH260882   3.519   4.790  12.970  0.3211  0.5500  0.1455
13156TIP3    H160883   3.431   4.826  12.961 -0.2843 -0.7203  0.7070
13156TIP3    H260884   3.573   4.844  12.914 -0.9754  0.8377 -0.8765
13157TIP3   OH260885   4.079   4.267   0.672 -0.1276  0.1947  0.3605
13157TIP3    H160886   3.991   4.231   0.660  0.6083 -1.5090 -0.2868
13157TIP3    H260887   4.086   4.336   0.607 -0.5305 -0.5810 -0.5311
13158TIP3   OH260888   2.749   3.711  16.811 -0.7024 -0.1951 -0.0226
13158TIP3    H160889   2.734   3.663  16.729  3.0010 -0.5635 -0.6576
13158TIP3    H260890   2.802   3.651  16.864 -0.4344  1.2298  1.3796
13159TIP3   OH260891   1.187   0.112   4.862 -0.6986 -0.0354  0.4586
13159TIP3    H160892   1.128   0.182   4.890  0.4905  1.9882 -1.7570
13159TIP3    H260893   1.163   0.095   4.771 -0.2869 -1.8763  0.6398
13160TIP3   OH260894   4.747   3.859  17.419 -0.5476 -0.3123 -0.3001
13160TIP3    H160895   4.659   3.895  17.408 -1.3736 -2.0106  0.5381
13160TIP3    H260896   4.738   3.767  17.395  1.1683 -0.3678 -0.8374
13161TIP3   OH260897   3.558   4.437   4.169  0.3874 -0.1194  0.7612
13161TIP3    H160898   3.558   4.468   4.079  1.4941  0.6384  1.0006
13161TIP3    H260899   3.531   4.345   4.163  0.6921 -0.1501 -0.3599
13162TIP3   OH260900   3.158   4.824  13.464 -0.1972  0.0050  0.0425
13162TIP3    H160901   3.158   4.875  13.545  1.1519  2.2417 -1.2561
13162TIP3    H260902   3.124   4.739  13.489  1.1169  0.2684  3.1852
13163TIP3   OH260903   2.591   1.665  15.137  0.1529  0.0586  0.7594
13163TIP3    H160904   2.676   1.708  15.135  0.7561 -1.0818  0.6576
13163TIP3    H260905   2.570   1.657  15.230  0.3009  0.0885  0.7959
13164TIP3   OH260906   4.629   6.342  12.559 -0.4297 -0.3625  0.0384
13164TIP3    H160907   4.646   6.421  12.611 -2.4288 -0.4745  0.9504
13164TIP3    H260908   4.591   6.375  12.478  0.3584 -0.3298 -0.3331
13165TIP3   OH260909   1.291   0.225   1.888  1.0590 -0.0017  0.1446
13165TIP3    H160910   1.342   0.265   1.817  0.3817  0.9653  0.1691
13165TIP3    H260911   1.337   0.249   1.968  0.6809  0.7265  0.1554
13166TIP3   OH260912   3.746   6.052  11.879  0.1344  1.0130 -0.5387
13166TIP3    H160913   3.789   6.105  11.946  1.6228 -1.7340  0.8148
13166TIP3    H260914   3.807   6.051  11.805  0.8895 -0.1282  0.0817
13167TIP3   OH260915   3.543   4.713   0.414 -0.0918  0.6770 -0.2889
13167TIP3    H160916   3.475   4.652   0.387  0.2804  0.4635 -0.7620
13167TIP3    H260917   3.597   4.665   0.476  0.1136  0.5652 -0.5489
13168TIP3   OH260918   0.680   6.115  13.821 -0.2187 -0.2462  0.2353
13168TIP3    H160919   0.736   6.127  13.745 -0.6429 -0.2868 -0.0843
13168TIP3    H260920   0.640   6.028  13.809 -1.5167  0.3956 -0.3174
13169TIP3   OH260921   0.642   6.466   4.053 -0.4597  0.0653 -0.0137
13169TIP3    H160922   0.604   6.550   4.077  0.7528  1.6550 -3.0780
13169TIP3    H260923   0.573   6.422   4.004 -0.1050  0.6918 -1.1076
13170TIP3   OH260924   0.104   2.423   5.995 -0.3582  0.0522  0.4936
13170TIP3    H160925   0.175   2.359   5.990  0.7102  1.1354  1.1846
13170TIP3    H260926   0.094   2.454   5.905  0.9826  0.8233  0.5743
13171TIP3   OH260927   0.339   6.089   6.312  0.8421 -0.3293  0.4914
13171TIP3    H160928   0.303   6.001   6.297 -0.5058  0.5059 -1.8269
13171TIP3    H260929   0.265   6.138   6.349  1.2885  0.0689  0.8575
13172TIP3   OH260930   0.445   0.670  13.262  0.0482  0.2597  0.1782
13172TIP3    H160931   0.410   0.753  13.230 -0.1209 -0.3560 -1.3219
13172TIP3    H260932   0.540   0.680  13.257  0.0634  0.8347  1.3223
13173TIP3   OH260933   6.239   5.396   5.406 -0.2889  0.7415 -0.5142
13173TIP3    H160934   6.153   5.402   5.366 -1.1154  1.0166  1.2080
13173TIP3    H260935   6.294   5.455   5.355 -1.4098  1.4696 -0.9117
13174TIP3   OH260936   3.778   1.800  13.041  0.3926  0.8583  0.4502
13174TIP3    H160937   3.761   1.847  12.959  0.5812  0.0121 -0.0865
13174TIP3    H260938   3.692   1.792  13.082 -0.3846 -1.8177 -1.3843
13175TIP3   OH260939   4.478   3.246  14.357  0.1195  0.1362  0.6662
13175TIP3    H160940   4.506   3.254  14.266 -0.7161  0.9358  0.4620
13175TIP3    H260941   4.469   3.152  14.372  4.3989 -0.3931  1.2474
13176TIP3   OH260942   6.013   1.915  15.561 -0.2034  0.2520  0.2540
13176TIP3    H160943   6.036   1.895  15.470  0.3509 -0.8207  0.6236
13176TIP3    H260944   6.075   1.983  15.586  0.7423 -0.6245  0.3461
13177TIP3   OH260945   5.940   4.526   6.051  0.1112 -0.3079 -0.0885
13177TIP3    H160946   5.983   4.528   5.965 -1.7997  1.4056 -1.0999
13177TIP3    H260947   5.880   4.600   6.049 -1.5449 -1.4887  1.9417
13178TIP3   OH260948   0.975   5.186  12.390  0.1430  0.2977 -0.0530
13178TIP3    H160949   0.964   5.160  12.299 -1.2312  1.5815 -0.2933
13178TIP3    H260950   1.052   5.242  12.390  1.5243 -1.5112  0.0152
13179TIP3   OH260951   5.768   1.803   5.394  0.1013 -0.2893 -0.3174
13179TIP3    H160952   5.686   1.852   5.384 -1.1233 -1.7756  1.7111
13179TIP3    H260953   5.821   1.858   5.452 -0.8280 -0.7940  1.0616
13180TIP3   OH260954   6.106   4.903   5.475 -0.0315 -0.3071 -0.2526
13180TIP3    H160955   6.139   4.975   5.530 -0.2296  1.0893 -1.8651
13180TIP3    H260956   6.154   4.912   5.393  0.4608 -2.5169 -0.2581
13181TIP3   OH260957   3.970   2.023  10.955  0.3468 -0.5717 -0.0696
13181TIP3    H160958   3.875   2.032  10.954  0.4057  0.0901 -1.3291
13181TIP3    H260959   4.001   2.102  11.000  0.3491 -0.1784 -0.7541
13182TIP3   OH260960   0.750   2.474  14.007  0.3692  0.5954  0.3209
13182TIP3    H160961   0.796   2.390  14.002  1.2611  1.0753  0.3483
13182TIP3    H260962   0.690   2.471  13.932 -0.1281 -0.3588  0.7342
13183TIP3   OH260963   0.834   0.904   1.703 -0.0588 -0.0426  0.0504
13183TIP3    H160964   0.879   0.823   1.728  1.1649  0.3868 -0.6582
13183TIP3    H260965   0.743   0.878   1.689  0.5227 -1.5296 -1.2490
13184TIP3   OH260966   0.950   0.931  13.265  0.1021 -0.0589 -0.6537
13184TIP3    H160967   0.965   1.018  13.228 -1.5400 -0.0027 -1.2752
13184TIP3    H260968   0.994   0.933  13.349 -0.2690  1.5415 -0.4599
13185TIP3   OH260969   1.057   5.903   4.020  0.8226 -0.2792  0.3667
13185TIP3    H160970   1.139   5.873   3.981  0.5974  1.5508 -1.7551
13185TIP3    H260971   1.072   5.996   4.039 -0.9866  0.3649 -0.9917
13186TIP3   OH260972   0.932   1.632  13.952  0.8558 -0.3370  0.3626
13186TIP3    H160973   0.972   1.717  13.968 -0.6716  0.9653 -2.0807
13186TIP3    H260974   0.840   1.652  13.936  0.4769 -2.4474 -0.3711
13187TIP3   OH260975   1.506   1.984   1.876  1.2261 -0.0088 -0.2031
13187TIP3    H160976   1.574   2.040   1.838  1.4683 -0.9633 -1.2323
13187TIP3    H260977   1.455   1.954   1.800  0.8207 -0.8158  0.3803
13188TIP3   OH260978   1.604   3.808  17.291  0.6359 -0.2153  0.5760
13188TIP3    H160979   1.655   3.756  17.229 -0.2311 -1.0849  0.5703
13188TIP3    H260980   1.577   3.885  17.241  0.5078 -0.5871  0.0642
13189TIP3   OH260981   1.089   3.641   3.540  0.2883 -0.4684 -0.2369
13189TIP3    H160982   1.078   3.550   3.513 -0.2297 -0.1595 -1.1210
13189TIP3    H260983   1.126   3.636   3.628  1.2166 -1.5307 -0.6606
13190TIP3   OH260984   1.801   3.129  16.560  0.4499 -0.1575 -0.1880
13190TIP3    H160985   1.834   3.215  16.533  0.5157 -0.3579 -0.7457
13190TIP3    H260986   1.717   3.120  16.515  1.0777 -0.9655 -1.2366
13191TIP3   OH260987   5.673   3.646   5.618 -0.0889  0.3512 -0.2645
13191TIP3    H160988   5.762   3.677   5.600  0.5207 -1.5677 -0.8530
13191TIP3    H260989   5.685   3.557   5.652 -1.7562  0.2872  0.2565
13192TIP3   OH260990   1.842   1.819  15.019 -0.3545 -0.4057 -0.5234
13192TIP3    H160991   1.917   1.874  14.998 -0.5985  0.5562  0.9403
13192TIP3    H260992   1.770   1.881  15.031 -1.3014 -1.2804 -1.5136
13193TIP3   OH260993   3.194   4.522  16.006  0.1159 -0.3225  0.0459
13193TIP3    H160994   3.191   4.427  15.995  3.3470 -0.6135  0.6339
13193TIP3    H260995   3.287   4.545  15.996 -0.3394  2.5869  1.2904
13194TIP3   OH260996   6.298   3.276   4.547 -0.1239 -0.1763 -0.1339
13194TIP3    H160997   6.384   3.268   4.506 -0.0890 -0.5346  0.0009
13194TIP3    H260998   6.239   3.301   4.476 -0.0121 -0.5102 -0.3445
13195TIP3   OH260999   4.855   1.078  14.287 -0.1356 -0.0204 -0.2266
13195TIP3    H161000   4.872   1.145  14.354  2.0063 -0.1270 -0.5841
13195TIP3    H261001   4.912   1.102  14.214  0.2165 -1.8424 -0.6154
13196TIP3   OH261002   3.026   2.007  16.392 -0.3838 -0.3001  0.6276
13196TIP3    H161003   2.941   2.004  16.348  0.8291 -1.3832 -1.8319
13196TIP3    H261004   3.034   1.922  16.435 -0.5045 -0.2009  0.8534
13197TIP3   OH261005   2.491   5.784  13.023 -0.7387  0.1288 -0.2042
13197TIP3    H161006   2.586   5.771  13.024 -0.7471 -0.3286 -1.9593
13197TIP3    H261007   2.478   5.863  13.075  0.5729  0.0452  0.3033
13198TIP3   OH261008   1.274   1.135  17.622  0.4798  0.3128  0.0274
13198TIP3    H161009   1.244   1.176  17.704  0.8495  1.4374 -0.3773
13198TIP3    H261010   1.337   1.198  17.586  0.9393 -0.5564 -0.7114
13199TIP3   OH261011   5.369   5.417  14.687  0.4004  0.0333 -0.1683
13199TIP3    H161012   5.453   5.371  14.694  0.0315 -1.1564 -2.5601
13199TIP3    H261013   5.304   5.353  14.717  0.3036  1.1425  2.2278
13200TIP3   OH261014   4.296   1.508  14.457  0.1879  0.1555  0.1746
13200TIP3    H161015   4.364   1.574  14.448  1.1717 -0.8408 -0.0019
13200TIP3    H261016   4.252   1.506  14.373  0.8002 -0.0874 -0.1444
13201TIP3   OH261017   5.307   1.338   5.375 -0.5097 -0.3057  0.3119
13201TIP3    H161018   5.234   1.304   5.427  0.6400 -1.6830  1.0860
13201TIP3    H261019   5.347   1.259   5.337  0.5780  0.4328 -0.1004
13202TIP3   OH261020   6.632   1.867   3.452  0.5050 -0.0006  0.0400
13202TIP3    H161021   6.704   1.924   3.427  0.6370  0.2963  1.0546
13202TIP3    H261022   6.617   1.886   3.544 -1.1136  0.2030 -0.2287
13203TIP3   OH261023   5.999   3.979   0.999 -0.3431  0.0507  0.0850
13203TIP3    H161024   5.952   4.026   1.068  0.9226 -0.1157  1.1152
13203TIP3    H261025   5.995   3.887   1.026  0.4379  0.0209  0.1234
13204TIP3   OH261026   2.893   4.833   1.189  0.4570 -0.7028 -0.5138
13204TIP3    H161027   2.828   4.893   1.153  0.0504 -0.9982 -0.2812
13204TIP3    H261028   2.935   4.794   1.113 -0.2521 -1.1670 -0.6782
13205TIP3   OH261029   4.633   3.994  15.681  0.3034  0.4861  0.2476
13205TIP3    H161030   4.620   3.941  15.603  0.7113 -0.1353  0.5956
13205TIP3    H261031   4.551   3.984  15.730  0.7834 -0.7369  0.8423
13206TIP3   OH261032   2.749   3.853   5.820  0.4156 -0.3290  0.1413
13206TIP3    H161033   2.784   3.908   5.750  0.4410 -0.2728  0.1982
13206TIP3    H261034   2.717   3.915   5.886 -0.4379 -0.3620 -0.2280
13207TIP3   OH261035   6.211   6.131   0.605  0.3491 -0.2474 -0.0615
13207TIP3    H161036   6.189   6.141   0.512 -0.1195  2.7995  0.2767
13207TIP3    H261037   6.301   6.163   0.611  0.4349 -0.5900  0.5286
13208TIP3   OH261038   3.153   3.230   1.584 -0.2450 -0.3518  0.2566
13208TIP3    H161039   3.182   3.309   1.629  0.3066 -0.4905  0.1543
13208TIP3    H261040   3.209   3.224   1.506 -0.0365 -1.0354  0.4527
13209TIP3   OH261041   6.468   4.172   6.133 -0.0443  0.3295  0.0529
13209TIP3    H161042   6.488   4.190   6.042 -0.9753  0.6994 -0.0925
13209TIP3    H261043   6.483   4.255   6.178  1.2409 -0.0660  0.4057
13210TIP3   OH261044   4.532   6.037   1.172 -0.3461  0.1538 -0.5607
13210TIP3    H161045   4.481   6.071   1.246  1.3526 -0.7445  1.0823
13210TIP3    H261046   4.611   6.091   1.171 -0.6917  0.6905 -2.2908
13211TIP3   OH261047   3.072   3.232   4.659 -0.5548  0.3215  0.5001
13211TIP3    H161048   3.114   3.157   4.701  0.1559 -0.0385 -0.8043
13211TIP3    H261049   3.060   3.205   4.568 -0.0398  1.8844 -0.0696
13212TIP3   OH261050   5.290   0.067  13.445  0.1706  0.0169  0.5815
13212TIP3    H161051   5.239   0.148  13.452  0.5440  0.1560  1.8302
13212TIP3    H261052   5.230  -0.002  13.473  0.6916  0.2054  2.2669
13213TIP3   OH261053   1.290   1.826  15.153  0.2866  0.0711  0.2564
13213TIP3    H161054   1.268   1.744  15.109 -1.0847 -0.7654  2.3145
13213TIP3    H261055   1.383   1.818  15.175  0.3540 -0.5951 -0.2529
13214TIP3   OH261056   4.536   5.617   4.182  0.1133  0.0691  0.3652
13214TIP3    H161057   4.566   5.702   4.149 -2.6754  0.7155 -0.7874
13214TIP3    H261058   4.496   5.637   4.267  0.7891 -0.3877  0.8061
13215TIP3   OH261059   4.890   2.599   5.976  0.4664  0.1536 -0.3703
13215TIP3    H161060   4.843   2.678   6.002  1.6527  1.2556 -1.4115
13215TIP3    H261061   4.906   2.611   5.882  2.1392 -0.5203 -0.1997
13216TIP3   OH261062   0.995   4.343  11.239 -0.1598 -0.0404  0.6898
13216TIP3    H161063   0.978   4.294  11.159 -0.4855  1.2631 -0.0561
13216TIP3    H261064   1.082   4.313  11.267 -0.3438 -1.0262  0.2590
13217TIP3   OH261065   0.716   4.394   5.041 -0.0768  0.4406 -0.0919
13217TIP3    H161066   0.647   4.428   4.984 -0.0549 -1.9721 -1.7038
13217TIP3    H261067   0.764   4.331   4.986  0.7175 -1.1275  2.2451
13218TIP3   OH261068   5.404   2.017  13.318 -0.4478 -0.1522  0.3236
13218TIP3    H161069   5.390   2.074  13.394  1.0009 -0.3895  0.8184
13218TIP3    H261070   5.497   2.029  13.297 -0.0419 -2.4148  0.5526
13219TIP3   OH261071   3.682   2.110  15.221  0.2357 -0.0895  0.5199
13219TIP3    H161072   3.774   2.086  15.211  0.2158  0.5211 -1.6710
13219TIP3    H261073   3.634   2.034  15.188 -0.0410 -0.1572  1.0702
13220TIP3   OH261074   6.134   0.375   6.106 -0.0728 -0.2770 -0.0062
13220TIP3    H161075   6.123   0.282   6.084 -1.9584 -0.0763 -0.1344
13220TIP3    H261076   6.103   0.422   6.028  2.4763  0.5255 -0.6377
13221TIP3   OH261077   2.226   5.051   3.745 -0.0596 -0.1021  0.1380
13221TIP3    H161078   2.228   5.013   3.657 -0.2371 -1.8943  0.8688
13221TIP3    H261079   2.313   5.032   3.781  0.3349  1.4184  0.0713
13222TIP3   OH261080   2.129   0.773   0.784 -0.0484  0.0305 -0.1104
13222TIP3    H161081   2.059   0.799   0.725 -1.3802 -0.9519  0.9449
13222TIP3    H261082   2.155   0.853   0.828  0.0965  0.5516 -1.1211
13223TIP3   OH261083   2.567   5.321  13.983 -0.5016 -0.3911 -0.4892
13223TIP3    H161084   2.485   5.275  14.004 -0.5231  0.2967  1.1453
13223TIP3    H261085   2.599   5.279  13.903 -0.5709 -3.1866  0.8239
13224TIP3   OH261086   4.121   3.360  11.449 -0.2176  0.3591 -0.2003
13224TIP3    H161087   4.076   3.362  11.364 -1.3652  0.8889  0.3984
13224TIP3    H261088   4.206   3.399  11.431 -0.9342  1.6998 -0.8679
13225TIP3   OH261089   4.269   3.788   2.830 -0.3129 -0.6007  0.4300
13225TIP3    H161090   4.329   3.765   2.759 -0.4478 -0.1778  0.1800
13225TIP3    H261091   4.310   3.864   2.872 -0.6841 -0.2979  0.2441
13226TIP3   OH261092   6.522   3.404  12.712  0.4044 -0.0326 -0.5418
13226TIP3    H161093   6.505   3.350  12.790  0.2354 -0.7352 -1.0571
13226TIP3    H261094   6.493   3.492  12.738 -0.3424 -0.4046 -0.0558
13227TIP3   OH261095   4.329   0.884   0.024  0.3676 -0.7591  0.5540
13227TIP3    H161096   4.269   0.839   0.083  2.0575 -2.2531  1.2535
13227TIP3    H261097   4.290   0.875  -0.062 -1.2103 -0.2242  1.1908
13228TIP3   OH261098   3.643   5.206   3.766 -0.1305 -0.1090  0.3022
13228TIP3    H161099   3.675   5.224   3.855 -0.1605  4.0164 -0.2983
13228TIP3    H261100   3.718   5.168   3.721  0.0983 -1.6194  1.8440
13229TIP3   OH261101   3.313   3.768   5.551  0.0175  0.7167 -0.1907
13229TIP3    H161102   3.222   3.745   5.570  0.6197 -1.2210  0.5660
13229TIP3    H261103   3.339   3.824   5.624  0.1842 -0.8700  1.0053
13230TIP3   OH261104   4.936   3.250  17.520 -0.0641 -0.0547 -0.1422
13230TIP3    H161105   5.031   3.242  17.522 -0.0805 -0.2047  0.9242
13230TIP3    H261106   4.919   3.324  17.463  0.7251  0.3132  0.0840
13231TIP3   OH261107   0.870   6.581   2.898  0.1555 -0.3308  0.1156
13231TIP3    H161108   0.895   6.533   2.819  2.0160 -0.6748  0.8652
13231TIP3    H261109   0.788   6.623   2.875  0.9013  0.0145 -2.2125
13232TIP3   OH261110   2.007   2.966  15.642  0.2837 -0.4470 -0.3576
13232TIP3    H161111   1.914   2.944  15.638  0.4161 -1.3874  1.0582
13232TIP3    H261112   2.019   3.004  15.729  1.0606  0.5424 -0.8727
13233TIP3   OH261113   3.052   3.666  12.641 -0.1808  0.0236 -0.0112
13233TIP3    H161114   3.003   3.661  12.559  0.3056  1.4597 -0.4092
13233TIP3    H261115   3.143   3.647  12.616 -0.3585 -1.8052  0.5888
13234TIP3   OH261116   2.419   4.722  12.042  0.3004 -0.0004 -0.2183
13234TIP3    H161117   2.475   4.674  11.980 -0.9607 -1.5247 -0.2390
13234TIP3    H261118   2.441   4.686  12.128 -1.3189 -1.3852 -0.3316
13235TIP3   OH261119   2.150   0.438  11.607  0.2788 -0.5138  0.4757
13235TIP3    H161120   2.217   0.380  11.644  1.1398 -0.8837 -1.5087
13235TIP3    H261121   2.116   0.389  11.532 -1.2804  0.2463  0.6593
13236TIP3   OH261122   6.161   3.592  15.898 -0.5016 -0.0750  0.3521
13236TIP3    H161123   6.076   3.573  15.937 -0.4726 -0.5862  0.1695
13236TIP3    H261124   6.218   3.521  15.927 -0.9150 -1.4781 -2.0050
13237TIP3   OH261125   5.150   1.411   5.720 -0.1443 -0.7258  0.2380
13237TIP3    H161126   5.203   1.481   5.684 -1.5527  0.3935  0.2487
13237TIP3    H261127   5.139   1.349   5.649 -0.2763 -0.0898 -0.3047
13238TIP3   OH261128   0.324   3.505   3.814 -0.0253  0.1486 -0.8345
13238TIP3    H161129   0.381   3.559   3.869  1.4076 -2.1254  0.0404
13238TIP3    H261130   0.355   3.521   3.724  2.8543 -1.7748 -0.3312
13239TIP3   OH261131   6.257   4.121   3.720  0.0389  0.0158 -0.4828
13239TIP3    H161132   6.351   4.124   3.707  0.1934 -1.5091  0.0156
13239TIP3    H261133   6.225   4.061   3.653 -0.3881 -0.5084  0.1724
13240TIP3   OH261134   6.636   5.301   2.867  0.3072 -0.8082  0.1298
13240TIP3    H161135   6.651   5.273   2.777  0.2622 -0.3528 -0.0177
13240TIP3    H261136   6.723   5.306   2.906  0.3711 -0.3914 -0.0681
13241TIP3   OH261137   2.602   5.489  17.333 -0.4070  0.1031  0.7798
13241TIP3    H161138   2.637   5.402  17.354  0.6343  0.3618  0.1753
13241TIP3    H261139   2.520   5.472  17.287  0.6943 -0.6294 -1.0042
13242TIP3   OH261140   3.758   4.701   3.763  0.3827 -0.1078 -0.0569
13242TIP3    H161141   3.832   4.716   3.821  0.3885  1.8243 -0.4951
13242TIP3    H261142   3.708   4.783   3.766 -0.4925 -0.5518 -1.5214
13243TIP3   OH261143   3.181   4.495  15.423 -0.3053 -0.3619  0.0557
13243TIP3    H161144   3.184   4.403  15.398  0.2488 -0.6958  1.3218
13243TIP3    H261145   3.262   4.532  15.388 -0.8393 -0.1758 -1.0429
13244TIP3   OH261146   2.546   1.879   3.457  0.4691 -0.6584  0.0418
13244TIP3    H161147   2.631   1.918   3.477  0.9183 -0.1896 -2.4976
13244TIP3    H261148   2.486   1.954   3.453  0.1744 -0.8586  0.5565
13245TIP3   OH261149   4.362   1.212   0.037  0.2713 -0.4904 -0.2520
13245TIP3    H161150   4.360   1.120   0.062 -1.7109 -0.5238 -0.3540
13245TIP3    H261151   4.285   1.250   0.078 -0.8976  0.3244 -2.9488
13246TIP3   OH261152   1.878   1.897  13.093  0.2044 -0.0096 -0.4946
13246TIP3    H161153   1.832   1.967  13.047 -0.6894  0.7316  1.3993
13246TIP3    H261154   1.819   1.873  13.164  1.8007 -0.5757  0.6921
13247TIP3   OH261155   1.667   1.766   1.678 -0.1819  0.4219 -0.1859
13247TIP3    H161156   1.759   1.790   1.666  0.0428 -0.9151 -1.4011
13247TIP3    H261157   1.625   1.790   1.596 -0.9841  1.1775  0.4190
13248TIP3   OH261158   5.504   6.503   3.824  0.4293 -0.2637 -0.5255
13248TIP3    H161159   5.482   6.576   3.882  0.2088 -0.3035 -0.5589
13248TIP3    H261160   5.581   6.462   3.865  0.0485 -0.5239 -0.0530
13249TIP3   OH261161   5.896   2.865  16.699  0.0795  0.1543 -0.4058
13249TIP3    H161162   5.805   2.845  16.722 -0.4912  2.5328 -0.3224
13249TIP3    H261163   5.946   2.848  16.779 -0.2613 -1.1623 -0.4502
13250TIP3   OH261164   4.551   3.843  14.115 -0.0510  0.4113  0.1842
13250TIP3    H161165   4.527   3.932  14.089 -0.5993 -0.1689 -1.3741
13250TIP3    H261166   4.481   3.816  14.175 -1.8380 -0.2070 -2.0683
13251TIP3   OH261167   3.406   6.582  17.194  0.5369  0.3819  0.0090
13251TIP3    H161168   3.381   6.489  17.194  1.5518  0.0743  1.4325
13251TIP3    H261169   3.469   6.589  17.122  2.3088 -0.6087  1.4008
13252TIP3   OH261170   2.935   3.983   4.808 -0.3263 -0.3111  0.3551
13252TIP3    H161171   2.949   3.889   4.804 -0.3304 -0.2665 -1.0517
13252TIP3    H261172   2.876   4.002   4.735 -1.9366  0.5179  1.8071
13253TIP3   OH261173   6.214   0.920  12.713 -0.0329 -0.1291  0.1239
13253TIP3    H161174   6.183   0.834  12.686 -0.6242  0.0240  0.3023
13253TIP3    H261175   6.245   0.907  12.803  0.5807 -0.3145 -0.1047
13254TIP3   OH261176   0.153   4.198  14.907  0.0472  0.4116 -0.0138
13254TIP3    H161177   0.238   4.232  14.882 -0.4562  1.0379 -0.9322
13254TIP3    H261178   0.134   4.131  14.842 -0.4621  0.7564 -0.2243
13255TIP3   OH261179   1.322   4.221   2.065  0.3262 -0.2806  0.2973
13255TIP3    H161180   1.336   4.292   2.002  2.4603 -1.2969 -0.4464
13255TIP3    H261181   1.288   4.149   2.011  0.7543 -0.6882  0.5784
13256TIP3   OH261182   3.856   6.637  13.118 -0.2002 -0.2344 -0.0111
13256TIP3    H161183   3.899   6.656  13.034 -0.5751  0.2527 -0.0996
13256TIP3    H261184   3.769   6.605  13.093 -0.2807 -0.1746  0.1884
13257TIP3   OH261185   5.270   5.282   0.560 -0.5837  0.0118  0.3607
13257TIP3    H161186   5.293   5.373   0.538  1.5469  0.0132  2.2348
13257TIP3    H261187   5.323   5.229   0.500 -1.1526  0.0051 -0.1369
13258TIP3   OH261188   6.188   4.183   1.347  0.0820  0.1552 -0.2861
13258TIP3    H161189   6.121   4.249   1.330 -0.3573  1.0133  3.7668
13258TIP3    H261190   6.259   4.231   1.391  2.8543 -0.9935 -3.1180
13259TIP3   OH261191   4.232   0.440   1.612  0.0257  0.3478 -0.1289
13259TIP3    H161192   4.205   0.531   1.603  0.2641  0.5111  0.7640
13259TIP3    H261193   4.326   0.440   1.594  0.0760  0.3182  0.1354
13260TIP3   OH261194   2.644   5.391  10.849 -0.6666 -0.4559 -0.1285
13260TIP3    H161195   2.598   5.374  10.931 -1.9494 -1.4466 -1.0115
13260TIP3    H261196   2.632   5.311  10.798  0.6102 -0.0787 -1.0590
13261TIP3   OH261197   2.787   3.901  11.412  0.6767 -0.2059  0.3040
13261TIP3    H161198   2.721   3.843  11.374  2.3342 -1.1455 -1.3266
13261TIP3    H261199   2.820   3.853  11.488  0.2780 -0.2283  0.4676
13262TIP3   OH261200   5.345   0.723   3.610 -0.2416  0.1051 -0.2879
13262TIP3    H161201   5.434   0.702   3.582 -0.2911 -0.6229  0.0625
13262TIP3    H261202   5.336   0.678   3.694 -1.5568 -1.4240 -1.1783
13263TIP3   OH261203   6.105   2.374   5.325  0.0590 -1.2329 -0.3972
13263TIP3    H161204   6.037   2.416   5.378 -0.4457 -1.6022 -0.7367
13263TIP3    H261205   6.076   2.387   5.234  0.3879 -1.4778 -0.5384
13264TIP3   OH261206   5.251   3.890  16.380 -0.3349 -0.7424 -0.1281
13264TIP3    H161207   5.219   3.979  16.396  2.2126  0.6563 -2.0172
13264TIP3    H261208   5.174   3.834  16.390 -1.8362  1.5163  2.0685
13265TIP3   OH261209   6.365   2.665   0.297  0.6980 -0.1476 -0.4634
13265TIP3    H161210   6.323   2.610   0.231  0.3849 -0.5534  0.0583
13265TIP3    H261211   6.455   2.633   0.302  0.6012 -0.4123 -0.3836
13266TIP3   OH261212   2.852   0.469   5.030 -0.3498  0.3317  0.2429
13266TIP3    H161213   2.785   0.456   4.963  0.2601  0.0776 -0.3275
13266TIP3    H261214   2.891   0.554   5.009  0.2473 -0.0183 -0.0966
13267TIP3   OH261215   5.593   6.086  14.376  0.1109 -0.0893 -0.3944
13267TIP3    H161216   5.610   6.066  14.284 -0.4779  1.1235 -0.7911
13267TIP3    H261217   5.649   6.162  14.394  1.1941 -1.0900  0.6321
13268TIP3   OH261218   3.985   0.645   3.839 -0.0393  0.7848  0.2895
13268TIP3    H161219   4.050   0.645   3.910 -0.6466  0.4867  0.8617
13268TIP3    H261220   3.964   0.737   3.825  1.8758  1.0617 -1.2127
13269TIP3   OH261221   2.749   2.875  16.352 -0.6453 -0.7485 -0.3512
13269TIP3    H161222   2.687   2.897  16.282 -1.3631  0.1572  0.5454
13269TIP3    H261223   2.818   2.825  16.308 -0.5722  0.6474 -1.9029
13270TIP3   OH261224   5.713   6.528  12.463 -0.1474 -0.0102  0.3766
13270TIP3    H161225   5.695   6.614  12.425 -0.5407 -0.3072 -0.1195
13270TIP3    H261226   5.804   6.533  12.491  0.2471  0.1444 -0.8581
13271TIP3   OH261227   5.462   3.530  15.640  0.5132 -0.3469 -0.0346
13271TIP3    H161228   5.430   3.570  15.559  0.4291 -1.2303 -0.4557
13271TIP3    H261229   5.382   3.509  15.689  0.5304 -0.5422 -0.0890
13272TIP3   OH261230   1.718   6.445  15.349  0.1049 -0.1557 -0.4385
13272TIP3    H161231   1.686   6.387  15.279 -0.0478 -0.0301 -0.4742
13272TIP3    H261232   1.659   6.521  15.345 -0.3051 -0.4308  0.2428
13273TIP3   OH261233   6.044   6.166   0.808 -0.1364 -0.3075 -0.5005
13273TIP3    H161234   6.103   6.145   0.736 -1.2607  3.0837 -2.6772
13273TIP3    H261235   5.968   6.206   0.765 -1.3298  0.9554  2.5215
13274TIP3   OH261236   6.420   1.066  12.387  0.1891 -0.1577  0.6286
13274TIP3    H161237   6.335   1.111  12.381 -1.7131 -3.5002  0.3498
13274TIP3    H261238   6.441   1.067  12.481 -0.8658 -0.4597  0.8810
13275TIP3   OH261239   3.790   0.923   5.489  0.4014  0.0131 -0.4019
13275TIP3    H161240   3.843   1.000   5.505  0.5522 -0.3557  0.9471
13275TIP3    H261241   3.699   0.952   5.499  0.4021  0.2501 -1.0106
13276TIP3   OH261242   0.600   2.622   2.106 -0.2717 -0.4682  0.7331
13276TIP3    H161243   0.635   2.570   2.179  1.8990  0.4107  0.3917
13276TIP3    H261244   0.631   2.577   2.028  0.6049  0.6454  0.4246
13277TIP3   OH261245   2.184   0.829  16.340  0.3643  0.1593 -0.1513
13277TIP3    H161246   2.122   0.756  16.348  0.3576 -0.1594 -2.6127
13277TIP3    H261247   2.261   0.791  16.298  0.8059  1.3324 -0.4379
13278TIP3   OH261248   2.041   2.110   4.029 -0.7174 -0.0572 -0.1942
13278TIP3    H161249   1.958   2.146   3.998 -0.5767  0.8733  0.4666
13278TIP3    H261250   2.107   2.168   3.992 -0.5029  0.5771  1.1153
13279TIP3   OH261251   3.579   4.922   0.601  0.6765  0.3077  0.1685
13279TIP3    H161252   3.527   4.894   0.525  1.8700  1.2784 -1.0506
13279TIP3    H261253   3.626   4.843   0.628 -2.0400 -0.8576  1.9114
13280TIP3   OH261254   1.317   5.840   0.342  0.1590 -0.6844  0.0029
13280TIP3    H161255   1.257   5.767   0.328  1.2700 -1.2768 -2.0956
13280TIP3    H261256   1.270   5.916   0.309 -0.2022 -0.8088  0.2299
13281TIP3   OH261257   1.245   2.372  16.929 -0.0923  0.0922  0.4878
13281TIP3    H161258   1.325   2.423  16.924 -0.1191  0.0175 -1.5118
13281TIP3    H261259   1.268   2.295  16.982  0.9049  0.4642  0.6118
13282TIP3   OH261260   1.757   4.165   4.671  0.3401 -0.0880 -0.0408
13282TIP3    H161261   1.672   4.154   4.626  0.0588  0.1289  0.4318
13282TIP3    H261262   1.735   4.210   4.752  0.9685  0.3156 -0.0939
13283TIP3   OH261263   5.699   3.744   1.430  0.4143 -0.2329  0.2452
13283TIP3    H161264   5.748   3.683   1.375  0.5508 -0.7561  0.9294
13283TIP3    H261265   5.758   3.762   1.504 -0.6665 -1.4159  1.4430
13284TIP3   OH261266   3.914   3.537   3.067  0.5724  0.2459  0.5506
13284TIP3    H161267   3.985   3.601   3.065  0.7547  0.0405 -0.0674
13284TIP3    H261268   3.944   3.469   3.127  0.7908  0.2820  0.4823
13285TIP3   OH261269   3.978   4.936  15.352  0.4705 -0.1133  0.5986
13285TIP3    H161270   4.033   4.993  15.297  1.0045  1.1599  2.3821
13285TIP3    H261271   4.035   4.862  15.372  0.5805 -0.1486  0.1711
13286TIP3   OH261272   0.002   4.968  13.909 -0.4029 -0.3544  0.3090
13286TIP3    H161273  -0.074   4.989  13.963  1.0684  1.9259  1.6297
13286TIP3    H261274  -0.030   4.975  13.819 -2.1361 -1.1766  0.8164
13287TIP3   OH261275   3.186   6.425   2.254  0.0552  0.1827  0.8265
13287TIP3    H161276   3.240   6.450   2.330  0.4503 -1.7984  1.2643
13287TIP3    H261277   3.245   6.371   2.201 -0.6730  0.3360 -0.1515
13288TIP3   OH261278   4.490   2.415  17.382 -0.9002  0.2979  0.8725
13288TIP3    H161279   4.550   2.458  17.443  2.2557 -1.1226 -0.9729
13288TIP3    H261280   4.520   2.441  17.295 -4.1039  0.8279 -0.2346
13289TIP3   OH261281   4.159   6.277  16.407  0.3809 -0.2815  0.2163
13289TIP3    H161282   4.143   6.347  16.472 -0.2278 -0.1059 -0.1081
13289TIP3    H261283   4.249   6.291  16.378 -0.2998  1.5905 -1.2513
13290TIP3   OH261284   0.189   5.904  16.303  0.3038  0.2175 -0.3693
13290TIP3    H161285   0.153   5.838  16.243  0.4489  1.0254 -1.3702
13290TIP3    H261286   0.272   5.930  16.262  0.9694 -0.0454  0.7820
13291TIP3   OH261287   0.513   1.486   6.515  0.0336  0.6965 -0.5849
13291TIP3    H161288   0.544   1.433   6.442 -0.7593  1.0706 -1.2092
13291TIP3    H261289   0.482   1.567   6.475  2.2741  2.1686  0.4344
13292TIP3   OH261290   6.397   5.380   1.112 -0.2897  0.2475 -0.2268
13292TIP3    H161291   6.301   5.387   1.104 -0.3207 -1.4618 -1.9764
13292TIP3    H261292   6.410   5.337   1.197 -1.0837  0.2362 -0.0940
13293TIP3   OH261293   4.141   6.274  12.157 -0.5542 -0.1264 -0.6857
13293TIP3    H161294   4.113   6.276  12.248 -2.3095 -1.0684 -1.1689
13293TIP3    H261295   4.176   6.186  12.144  0.3996  0.2416 -0.7583
13294TIP3   OH261296   2.805   2.940  12.954  0.2757  0.6984  0.1429
13294TIP3    H161297   2.789   2.910  13.044  2.4894 -0.2786  0.2817
13294TIP3    H261298   2.757   2.877  12.900  0.7746 -0.0977  0.5973
13295TIP3   OH261299   1.823   6.286  16.042 -0.3558 -0.2268  0.0338
13295TIP3    H161300   1.869   6.309  16.122  1.4532 -0.2793 -0.9384
13295TIP3    H261301   1.892   6.271  15.978 -1.7455 -0.0298 -1.5928
13296TIP3   OH261302   5.178   5.632  12.125 -0.1685  0.2263  0.3913
13296TIP3    H161303   5.123   5.650  12.201 -0.3126  2.8469 -0.2450
13296TIP3    H261304   5.260   5.678  12.143 -0.1178  0.6896 -0.9384
13297TIP3   OH261305   1.206   6.652   3.115 -0.3653 -0.1305  0.4160
13297TIP3    H161306   1.231   6.670   3.024  0.0314 -0.3985  0.4663
13297TIP3    H261307   1.115   6.625   3.110 -1.0095  1.8847  0.3459
13298TIP3   OH261308   3.572   2.306  16.239  0.6719  0.5526 -0.4397
13298TIP3    H161309   3.569   2.333  16.331  1.4606 -0.6116 -0.0497
13298TIP3    H261310   3.599   2.385  16.192  1.3711  0.8717  0.4695
13299TIP3   OH261311   3.451   5.680  15.952  0.0578  0.3282 -0.0848
13299TIP3    H161312   3.404   5.721  15.880  0.3636  0.9963  0.0930
13299TIP3    H261313   3.496   5.752  15.996 -0.0939 -0.0806  0.7580
13300TIP3   OH261314   5.951   5.785   5.645  0.2263  0.0201 -0.0929
13300TIP3    H161315   5.918   5.777   5.556 -0.7894  1.1812  0.1469
13300TIP3    H261316   5.960   5.695   5.676  1.7865 -0.4519 -1.7669
13301TIP3   OH261317   2.071   3.325  11.807  0.8067 -0.0019  0.3175
13301TIP3    H161318   1.995   3.359  11.855  2.0733 -0.2794  2.6480
13301TIP3    H261319   2.036   3.302  11.721 -1.7674 -0.2064  1.3293
13302TIP3   OH261320   2.871   5.395  15.646  0.1122 -0.1536 -0.1551
13302TIP3    H161321   2.933   5.415  15.716 -1.2956  1.2145  0.7670
13302TIP3    H261322   2.870   5.299  15.642  1.3990 -0.2247  0.5822
13303TIP3   OH261323   6.410   3.501   2.681  0.5726  0.2763 -0.1531
13303TIP3    H161324   6.330   3.548   2.704  0.5885  0.0976  0.2675
13303TIP3    H261325   6.475   3.531   2.745  0.5306 -0.4779  0.2428
13304TIP3   OH261326   6.004   4.764  17.226  0.3170 -0.0991 -0.3498
13304TIP3    H161327   5.978   4.852  17.199 -0.1423  0.1345  0.7910
13304TIP3    H261328   5.926   4.710  17.209  0.6733 -0.3409 -1.2571
13305TIP3   OH261329   2.208   6.644  11.816  0.1861 -0.0015 -0.3157
13305TIP3    H161330   2.235   6.714  11.875  1.2080  0.1800 -0.9672
13305TIP3    H261331   2.156   6.687  11.749 -0.2147 -0.0634 -0.0457
13306TIP3   OH261332   2.507   1.785   6.038 -0.3551  0.4861 -0.6286
13306TIP3    H161333   2.446   1.847   6.077  0.4063  1.2451 -0.6362
13306TIP3    H261334   2.579   1.838   6.004  0.8206 -0.4608  0.2724
13307TIP3   OH261335   3.911   4.381   2.852 -0.7776 -0.8138 -0.1004
13307TIP3    H161336   3.952   4.363   2.767  1.0829  1.0078  0.3233
13307TIP3    H261337   3.840   4.442   2.832  0.8104  1.0939 -0.2484
13308TIP3   OH261338   2.204   1.354  13.224  0.7318  0.2135 -0.5796
13308TIP3    H161339   2.272   1.420  13.232  1.3342 -0.5738  1.2355
13308TIP3    H261340   2.246   1.281  13.179  1.1098 -0.2648  0.5229
13309TIP3   OH261341   4.510   2.703  12.086  0.1828 -0.1625 -0.2772
13309TIP3    H161342   4.552   2.681  12.170 -1.3805  0.0366  0.5971
13309TIP3    H261343   4.416   2.701  12.105 -0.1941  0.3228 -1.9327
13310TIP3   OH261344   3.611   1.775   4.138  0.4544 -0.1776 -0.0937
13310TIP3    H161345   3.525   1.759   4.176 -0.0290 -0.6608 -1.3557
13310TIP3    H261346   3.650   1.842   4.195 -0.7479  0.0561  0.4830
13311TIP3   OH261347   5.262   1.555   1.439 -0.0616  0.4385 -0.1781
13311TIP3    H161348   5.242   1.556   1.345  0.7391  1.7935 -0.3553
13311TIP3    H261349   5.346   1.600   1.447 -0.0663  0.2646  1.1903
13312TIP3   OH261350   2.634   0.625  16.876  0.5299 -0.5390  0.0413
13312TIP3    H161351   2.624   0.621  16.971  0.9955 -0.1494  0.1114
13312TIP3    H261352   2.667   0.713  16.859  1.5131 -0.9754 -0.3735
13313TIP3   OH261353   0.911   1.309  14.450 -0.0387 -0.3999  0.1286
13313TIP3    H161354   0.867   1.267  14.376  1.0170 -0.5061 -0.4571
13313TIP3    H261355   0.940   1.393  14.415 -0.6567  0.1068  0.8087
13314TIP3   OH261356   6.375   0.128  13.273 -0.2730  0.5896 -0.8395
13314TIP3    H161357   6.415   0.176  13.201 -1.5114  1.7384 -0.8102
13314TIP3    H261358   6.296   0.178  13.293 -2.2767 -2.0888 -1.5656
13315TIP3   OH261359   6.598   5.125   1.922 -0.3553 -0.1306 -0.2795
13315TIP3    H161360   6.554   5.112   2.006 -1.4378  2.0511 -0.4403
13315TIP3    H261361   6.652   5.203   1.935  0.9896 -0.8855 -1.0762
13316TIP3   OH261362   6.371   6.048  15.144  0.2476  0.0321 -0.7635
13316TIP3    H161363   6.452   6.052  15.093 -0.6301  1.1973 -2.1366
13316TIP3    H261364   6.379   5.968  15.196  0.7669 -1.7880 -3.4423
13317TIP3   OH261365   3.216   4.878   5.719  0.0505 -0.1664 -0.1559
13317TIP3    H161366   3.310   4.868   5.734  0.5893 -0.0720 -2.8941
13317TIP3    H261367   3.179   4.792   5.741  0.6706 -0.0656  1.3897
13318TIP3   OH261368   3.688   1.770   4.981  0.3333  0.1587  0.4483
13318TIP3    H161369   3.688   1.716   4.902  2.6049  0.1791  0.3651
13318TIP3    H261370   3.776   1.759   5.018  0.1490  2.0811  1.6304
13319TIP3   OH261371   0.659   2.184  15.622 -0.0723  0.3330 -0.0289
13319TIP3    H161372   0.634   2.216  15.535  1.8367 -0.8818 -1.1040
13319TIP3    H261373   0.643   2.090  15.618  0.1637  0.2429  0.9116
13320TIP3   OH261374   3.486   6.642   4.123 -0.4768 -0.4073 -0.0959
13320TIP3    H161375   3.412   6.698   4.146 -0.4737 -0.2217 -0.5244
13320TIP3    H261376   3.542   6.698   4.070  0.6316 -0.1315  1.3030
13321TIP3   OH261377   6.707   1.239   4.103 -0.6006  0.3549  0.7701
13321TIP3    H161378   6.695   1.293   4.024 -0.7939  0.8980  1.1601
13321TIP3    H261379   6.759   1.164   4.074 -0.8767  0.4253  0.0736
13322TIP3   OH261380   1.538   1.234   0.193 -0.8056  0.6767 -0.2636
13322TIP3    H161381   1.576   1.158   0.149  1.1517  0.5409  1.5030
13322TIP3    H261382   1.477   1.197   0.257 -0.0713  0.5793  0.3942
13323TIP3   OH261383   2.848   4.329   0.988  0.1211 -0.1914  0.3572
13323TIP3    H161384   2.905   4.303   1.061  0.0963  0.1492  0.4988
13323TIP3    H261385   2.791   4.397   1.025  0.4469  0.3426 -0.1119
13324TIP3   OH261386   2.091   6.414  11.628  0.3130  0.2344  0.2053
13324TIP3    H161387   2.006   6.454  11.606  0.3719 -0.7921 -2.1868
13324TIP3    H261388   2.091   6.410  11.723 -1.0985  2.8429  0.4248
13325TIP3   OH261389   1.073   1.678   4.158 -0.2919 -0.1433 -0.8522
13325TIP3    H161390   1.024   1.602   4.127 -2.0812  1.2651 -1.6593
13325TIP3    H261391   1.060   1.744   4.090 -0.9940  1.7259  0.9974
13326TIP3   OH261392   2.135   0.803   4.131  0.2826  0.3750 -1.0553
13326TIP3    H161393   2.170   0.849   4.055  1.5714 -0.3992 -0.9588
13326TIP3    H261394   2.204   0.809   4.197 -0.7183  0.8383  0.0076
13327TIP3   OH261395   4.579   3.440  15.628  0.0855 -0.8505  0.3699
13327TIP3    H161396   4.512   3.461  15.563  0.1803 -0.2946  0.4483
13327TIP3    H261397   4.604   3.350  15.609  0.2566 -0.6274 -0.4874
13328TIP3   OH261398   3.085   4.295   2.498 -0.6154 -0.6283 -0.2391
13328TIP3    H161399   3.018   4.298   2.430  0.4840 -0.3033 -1.3487
13328TIP3    H261400   3.083   4.383   2.537 -0.3077 -0.3609 -0.8123
13329TIP3   OH261401   2.774   4.716  12.062 -0.2347 -0.1006 -0.3470
13329TIP3    H161402   2.764   4.792  12.120  0.5678  0.3954 -0.8422
13329TIP3    H261403   2.750   4.641  12.117 -0.4450  0.4490  0.3284
13330TIP3   OH261404   4.447   4.596   0.580  0.3470 -0.7835 -0.2989
13330TIP3    H161405   4.509   4.659   0.616  0.6809 -1.2096 -0.1106
13330TIP3    H261406   4.456   4.605   0.485  1.5312 -1.6178 -0.2920
13331TIP3   OH261407   2.504   5.395  16.960  0.2482 -0.2948 -0.1501
13331TIP3    H161408   2.428   5.436  16.918 -1.0287 -1.6713  0.7453
13331TIP3    H261409   2.480   5.303  16.968 -0.0919 -0.0443  4.4823
13332TIP3   OH261410   5.253   0.423  14.351 -0.0714  0.4369  0.2256
13332TIP3    H161411   5.199   0.363  14.299 -3.5241  3.0146  0.4828
13332TIP3    H261412   5.210   0.425  14.437  2.1580  0.5449  1.4110
13333TIP3   OH261413   4.484   5.162   0.423  0.0360  0.0258 -0.2855
13333TIP3    H161414   4.530   5.099   0.368 -0.1792 -1.7495  1.4493
13333TIP3    H261415   4.544   5.236   0.431  1.2182 -0.8745 -0.6603
13334TIP3   OH261416   5.992   4.202  11.418 -0.5257 -0.3322  0.5629
13334TIP3    H161417   5.966   4.268  11.482  0.9978  1.3379 -0.4193
13334TIP3    H261418   5.956   4.234  11.335  0.5338 -0.5030  0.0084
13335TIP3   OH261419   1.284   6.287  11.707  0.0995  0.2984 -0.0043
13335TIP3    H161420   1.311   6.359  11.765 -0.4860 -0.5888  1.4010
13335TIP3    H261421   1.294   6.208  11.759  1.1417 -0.7375 -1.6697
13336TIP3   OH261422   4.741   4.084  16.086 -0.4848  0.0829  0.0469
13336TIP3    H161423   4.765   4.034  16.008  1.7068  0.5900  0.3221
13336TIP3    H261424   4.748   4.021  16.158 -1.8981 -0.2258 -0.0500
13337TIP3   OH261425   2.306   0.748  10.960 -0.0696  0.1917 -0.4460
13337TIP3    H161426   2.318   0.689  11.034  0.3379  1.2515  0.3744
13337TIP3    H261427   2.389   0.743  10.912  0.4818  1.0643  0.3733
13338TIP3   OH261428   6.118   5.338   3.520 -0.2962 -0.0733  0.3994
13338TIP3    H161429   6.059   5.277   3.475 -0.1931 -0.2851  0.5490
13338TIP3    H261430   6.187   5.282   3.555  0.0328  0.1825  0.1578
13339TIP3   OH261431   6.057   5.097   2.577  0.1890 -0.1508 -0.2033
13339TIP3    H161432   6.020   5.162   2.637  0.0409  0.8442 -1.3215
13339TIP3    H261433   6.140   5.135   2.549  0.3521 -0.6887 -0.4539
13340TIP3   OH261434   0.383   1.799   5.574 -0.6483 -0.1119 -0.1134
13340TIP3    H161435   0.295   1.777   5.606 -0.9897  1.7046  0.3140
13340TIP3    H261436   0.379   1.782   5.480 -0.8917 -1.6989  0.1571
13341TIP3   OH261437   6.068   6.437   0.992  0.0654  0.0050 -0.0275
13341TIP3    H161438   6.040   6.426   0.901  0.0607 -0.1702 -0.0056
13341TIP3    H261439   6.073   6.348   1.026  0.2550  0.0600  0.0875
13342TIP3   OH261440   2.662   1.360  12.943  0.4769 -0.8582 -0.7163
13342TIP3    H161441   2.701   1.435  12.900 -0.8062  0.6634  0.6143
13342TIP3    H261442   2.725   1.336  13.012  1.3988 -1.7472 -1.8387
13343TIP3   OH261443   6.483   5.905  14.518 -0.3679 -0.5168 -0.2507
13343TIP3    H161444   6.518   5.870  14.437  0.1679  1.1842 -0.7913
13343TIP3    H261445   6.482   5.999  14.506  0.5483 -0.1437  2.0435
13344TIP3   OH261446   2.302   1.368   3.943  0.1364 -0.5461 -0.1854
13344TIP3    H161447   2.291   1.440   4.005  1.2848 -0.9785  0.5661
13344TIP3    H261448   2.367   1.399   3.881 -0.3467 -0.4513 -0.6498
13345TIP3   OH261449   4.527   2.083   0.798 -0.4836  0.5924  0.1020
13345TIP3    H161450   4.582   2.005   0.811 -1.0357  0.3772  1.1921
13345TIP3    H261451   4.484   2.067   0.713 -0.6182 -0.3124  0.3281
13346TIP3   OH261452   3.502   5.799   5.702  0.0700  0.4105 -0.1630
13346TIP3    H161453   3.579   5.760   5.662  0.1250  0.4830 -0.1275
13346TIP3    H261454   3.518   5.893   5.699  0.1491  0.4105  0.1804
13347TIP3   OH261455   4.633   1.870   4.861 -0.9927 -0.0606 -0.2172
13347TIP3    H161456   4.644   1.791   4.914 -0.6101 -0.4160 -0.8203
13347TIP3    H261457   4.657   1.941   4.920 -2.9794 -0.2177  0.8759
13348TIP3   OH261458   2.655   3.153   5.785  0.2005  0.1543 -0.3268
13348TIP3    H161459   2.604   3.073   5.783 -0.4928  0.5503  0.8179
13348TIP3    H261460   2.745   3.124   5.799 -0.3373 -0.3746  2.6636
13349TIP3   OH261461   3.087   5.173  13.414 -0.1365  0.1987  0.2500
13349TIP3    H161462   3.083   5.106  13.346 -0.9595  0.2246  0.2624
13349TIP3    H261463   3.180   5.194  13.421  0.2463 -1.5590  0.8633
13350TIP3   OH261464   6.675   3.734   0.536 -0.1216 -0.1018 -0.2509
13350TIP3    H161465   6.637   3.650   0.508 -0.5396  0.3815 -1.1920
13350TIP3    H261466   6.603   3.796   0.529 -0.9244 -0.2458  4.0187
13351TIP3   OH261467   4.044   4.897  17.052 -0.1658  0.7824 -0.1804
13351TIP3    H161468   4.065   4.977  17.003 -1.8204  0.6176 -1.2447
13351TIP3    H261469   4.107   4.895  17.124 -0.5012  3.3933  0.2683
13352TIP3   OH261470   4.523   0.997  11.599 -0.1213  0.3860 -0.1090
13352TIP3    H161471   4.505   0.968  11.688  1.4375 -0.6884 -0.1054
13352TIP3    H261472   4.616   1.019  11.598 -0.4959  2.1344 -1.0384
13353TIP3   OH261473   2.827   1.107   1.863  0.4223 -0.1526  0.0938
13353TIP3    H161474   2.918   1.134   1.851  0.4540 -0.5785 -0.6172
13353TIP3    H261475   2.827   1.013   1.848  0.2599 -0.5744  2.3060
13354TIP3   OH261476   2.815   5.722   6.614 -0.1374 -0.0060 -0.4550
13354TIP3    H161477   2.872   5.755   6.544 -0.1112 -0.2271 -0.5384
13354TIP3    H261478   2.777   5.801   6.653  0.5222  0.1653 -0.1430
13355TIP3   OH261479   3.840   2.363   0.432 -0.7240  0.0916  0.2231
13355TIP3    H161480   3.922   2.414   0.434 -0.0085 -0.9679  2.6734
13355TIP3    H261481   3.868   2.273   0.417 -1.5644 -0.1379 -0.0006
13356TIP3   OH261482   0.761   3.355   6.260  0.8355 -0.5456  0.1140
13356TIP3    H161483   0.781   3.448   6.268  2.4933 -0.8235 -0.4321
13356TIP3    H261484   0.840   3.311   6.291 -0.2336 -1.8043  1.1413
13357TIP3   OH261485   2.088   1.969   2.582  0.1062 -0.4445  0.1023
13357TIP3    H161486   1.999   1.987   2.611  0.2056  0.4941 -0.1231
13357TIP3    H261487   2.083   1.969   2.486  0.1473 -1.5011  0.0938
13358TIP3   OH261488   3.352   4.777  15.844 -0.9352  0.9093  0.3070
13358TIP3    H161489   3.351   4.867  15.876 -1.5698  0.9396  0.2242
13358TIP3    H261490   3.260   4.758  15.825 -1.2337 -0.6781  2.8626
13359TIP3   OH261491   3.564   2.818  13.943 -0.1642  0.5080 -0.5268
13359TIP3    H161492   3.598   2.866  13.867 -0.2368 -0.9091 -1.5033
13359TIP3    H261493   3.469   2.831  13.939 -0.1289  0.8189 -0.3942
13360TIP3   OH261494   4.308   1.942  15.613 -0.3776  0.0067 -0.6054
13360TIP3    H161495   4.317   2.021  15.667  1.6510 -0.3750 -0.3273
13360TIP3    H261496   4.216   1.916  15.625 -0.7626  1.6258  0.2524
13361TIP3   OH261497   0.356   1.066  11.227  0.5343 -0.0806 -0.5719
13361TIP3    H161498   0.365   1.161  11.218  0.6668 -0.1083 -0.7422
13361TIP3    H261499   0.262   1.050  11.227  0.4015  0.3066  2.1966
13362TIP3   OH261500   0.398   5.351   2.735 -0.0012 -0.2958 -0.2520
13362TIP3    H161501   0.329   5.368   2.671  0.7307  1.3309 -0.6473
13362TIP3    H261502   0.448   5.433   2.739  0.0014 -0.3276  2.3643
13363TIP3   OH261503   5.905   4.639   1.484  0.0004  0.0470 -0.1349
13363TIP3    H161504   5.945   4.668   1.402  1.2108 -0.4342  0.2722
13363TIP3    H261505   5.920   4.711   1.545 -0.5742  0.2463 -0.2163
13364TIP3   OH261506   4.925   6.308  12.928 -0.7055 -0.5418 -0.0989
13364TIP3    H161507   4.866   6.331  13.000  0.4742 -1.0251  1.0624
13364TIP3    H261508   5.011   6.301  12.969  0.4830  1.6478 -2.0032
13365TIP3   OH261509   4.565   4.256  17.541 -0.7014 -0.3768  0.1688
13365TIP3    H161510   4.503   4.325  17.522 -0.2801 -0.0117  0.1102
13365TIP3    H261511   4.598   4.228  17.456 -0.3735 -0.1862  0.2328
13366TIP3   OH261512   6.208   3.304  17.335  0.2686  0.0698 -0.3879
13366TIP3    H161513   6.142   3.349  17.282  0.1807  1.3397  0.7806
13366TIP3    H261514   6.291   3.341  17.307  0.6190 -1.8263 -2.1630
13367TIP3   OH261515   4.024   5.800  16.382  0.3022  0.0882  0.0852
13367TIP3    H161516   4.078   5.808  16.304  0.9087  1.1013  0.5878
13367TIP3    H261517   3.938   5.775  16.349  0.6082  0.2875 -0.8904
13368TIP3   OH261518   4.582   2.413  16.102  0.0756 -0.3479 -0.4283
13368TIP3    H161519   4.514   2.458  16.052  0.2605 -1.2760 -1.5805
13368TIP3    H261520   4.608   2.340  16.045  1.7131 -0.2750  0.1744
13369TIP3   OH261521   4.262   5.126  13.718  0.0227 -0.5925  0.3961
13369TIP3    H161522   4.196   5.061  13.740 -0.9324  0.5837  1.1376
13369TIP3    H261523   4.214   5.195  13.672  1.2844 -1.1224 -1.8690
13370TIP3   OH261524   3.428   5.275   4.011 -0.4518 -0.1939 -0.0015
13370TIP3    H161525   3.335   5.255   3.995 -1.1828  1.0490  2.2018
13370TIP3    H261526   3.454   5.331   3.938 -1.7151  0.1759 -0.1945
13371TIP3   OH261527   6.409   4.522   0.009 -0.5492 -0.3090  0.5295
13371TIP3    H161528   6.458   4.524  -0.073  1.7635  0.9907  1.8145
13371TIP3    H261529   6.343   4.454  -0.003  1.4666 -2.0748 -1.4326
13372TIP3   OH261530   0.561   0.895   0.065 -0.2097 -0.3572  0.5815
13372TIP3    H161531   0.603   0.918   0.148  0.4881 -0.1279  0.1765
13372TIP3    H261532   0.597   0.957   0.002 -0.8163 -0.4548  0.1212
13373TIP3   OH261533   3.377   3.375  13.492 -0.0754 -0.0769 -0.4587
13373TIP3    H161534   3.444   3.324  13.446 -1.1297 -1.1336 -0.8495
13373TIP3    H261535   3.309   3.312  13.514 -0.6807  0.8743  0.4607
13374TIP3   OH261536   2.996   6.287   0.046 -0.3325 -0.0481  0.4700
13374TIP3    H161537   3.024   6.198   0.068  0.3725  0.5321  2.0519
13374TIP3    H261538   3.064   6.319  -0.014  0.2441 -0.0530  1.1115
13375TIP3   OH261539   6.695   2.178  14.425  0.4237  0.2112 -0.7389
13375TIP3    H161540   6.743   2.095  14.420  1.2671  0.5315  1.1460
13375TIP3    H261541   6.605   2.152  14.447  1.2368 -0.2195  2.6945
13376TIP3   OH261542   3.105   4.203  13.849 -0.1663 -0.1127  0.3308
13376TIP3    H161543   3.086   4.192  13.942 -0.6449  0.0450  0.2553
13376TIP3    H261544   3.022   4.188  13.806  0.3516 -1.6326 -0.2011
13377TIP3   OH261545   2.281   3.276  11.963  0.6414  0.1468 -0.3680
13377TIP3    H161546   2.198   3.309  11.928  1.0238  1.2787 -0.2493
13377TIP3    H261547   2.348   3.315  11.907  1.1048 -0.7835 -0.4824
13378TIP3   OH261548   4.717   2.963   4.892  0.2056 -0.3745  0.4256
13378TIP3    H161549   4.667   2.941   4.814 -1.3763  0.9838  0.9782
13378TIP3    H261550   4.756   2.881   4.921  0.4520 -0.9739 -1.5167
13379TIP3   OH261551   3.986   4.772  17.613 -0.1127  0.0030  0.0980
13379TIP3    H161552   3.905   4.799  17.569 -1.2275 -1.2024  1.3225
13379TIP3    H261553   3.963   4.770  17.706  0.6338 -2.4889  0.2987
13380TIP3   OH261554   3.167   2.833   4.323  0.2436 -0.2166 -0.4974
13380TIP3    H161555   3.110   2.816   4.248 -0.3458 -1.3463  0.1870
13380TIP3    H261556   3.250   2.793   4.299 -0.2384 -1.4521 -0.1530
13381TIP3   OH261557   0.980   6.481   7.364  0.5403 -0.2828 -0.2827
13381TIP3    H161558   0.972   6.406   7.304 -0.5101 -0.6908  0.3545
13381TIP3    H261559   1.031   6.447   7.437 -0.9093 -0.7327  0.5464
13382TIP3   OH261560   5.255   5.770  11.786  0.3276 -0.5693  0.0033
13382TIP3    H161561   5.315   5.737  11.852  0.6019  0.6712  0.3910
13382TIP3    H261562   5.172   5.724  11.804  0.4034 -0.2605  1.1950
13383TIP3   OH261563   1.877   0.206   0.889  0.1551  0.4918 -0.3065
13383TIP3    H161564   1.906   0.269   0.955  1.1182 -0.9446  0.7101
13383TIP3    H261565   1.807   0.156   0.931  1.6034 -1.2618  0.1806
13384TIP3   OH261566   2.002   2.577  15.087  1.0683 -0.4611  0.0832
13384TIP3    H161567   2.041   2.587  15.174 -1.9128 -0.1518  1.5428
13384TIP3    H261568   2.005   2.665  15.049 -0.9680  0.3533  1.5757
13385TIP3   OH261569   5.577   2.124   5.876 -0.0903  0.1976 -0.1048
13385TIP3    H161570   5.510   2.085   5.932  0.5775 -0.4159  0.2907
13385TIP3    H261571   5.641   2.161   5.936 -1.5373  3.5669 -0.4342
13386TIP3   OH261572   1.215   6.444  13.398 -0.0293 -0.4013  0.2684
13386TIP3    H161573   1.222   6.365  13.344  1.6971 -1.5147  2.0227
13386TIP3    H261574   1.132   6.434  13.444 -1.3710  0.4061 -1.8022
13387TIP3   OH261575   5.141   6.667  14.535 -0.0524 -0.1317  0.3058
13387TIP3    H161576   5.092   6.746  14.513 -0.3613 -0.2915  0.4068
13387TIP3    H261577   5.101   6.636  14.617  0.8439  0.2599  0.9005
13388TIP3   OH261578   3.608   6.076  17.540  0.3873 -0.2250 -0.0401
13388TIP3    H161579   3.574   5.987  17.536 -0.8190  0.2675 -1.6213
13388TIP3    H261580   3.663   6.086  17.462  0.3752  0.4723  0.0294
13389TIP3   OH261581   0.633   1.339  17.293  0.1709  0.3230  0.6174
13389TIP3    H161582   0.562   1.322  17.232 -0.0842 -0.5441  1.1355
13389TIP3    H261583   0.711   1.307  17.248  0.1724  0.8371  0.2436
13390TIP3   OH261584   6.289   4.393  15.997  0.3500  0.5420  0.2744
13390TIP3    H161585   6.275   4.406  16.091  2.7148 -1.5514  1.0426
13390TIP3    H261586   6.384   4.385  15.988  0.1917  0.6311 -2.3149
13391TIP3   OH261587   5.357   4.255   5.064 -0.0598  0.0707  0.1090
13391TIP3    H161588   5.368   4.274   4.971 -1.9750  0.9157 -0.0009
13391TIP3    H261589   5.433   4.202   5.087  1.2853  1.1620 -1.5483
13392TIP3   OH261590   4.794   0.602   1.882 -0.0837  0.5007  0.8155
13392TIP3    H161591   4.809   0.558   1.798 -1.4540  0.2309  0.6841
13392TIP3    H261592   4.878   0.643   1.903  1.0441 -1.4911  0.5362
13393TIP3   OH261593   6.712   3.771   3.781 -0.1010  0.1670 -0.1322
13393TIP3    H161594   6.635   3.732   3.824  1.8694 -1.6489  2.0696
13393TIP3    H261595   6.697   3.865   3.786 -2.2161 -0.1197  0.0941
13394TIP3   OH261596   6.622   2.327  16.373  0.2594  0.4716  0.1870
13394TIP3    H161597   6.696   2.273  16.401  2.2019  2.3089 -1.1377
13394TIP3    H261598   6.577   2.272  16.308  1.5316 -0.0069 -0.3258
13395TIP3   OH261599   5.457   0.573   6.056  0.0836 -0.1506 -0.2947
13395TIP3    H161600   5.537   0.575   6.109 -1.6238  0.5159  2.4264
13395TIP3    H261601   5.464   0.650   6.000  1.2158  0.0706  0.1204
13396TIP3   OH261602   6.550   2.300  12.566  0.1634 -0.6019 -0.1738
13396TIP3    H161603   6.490   2.372  12.587  0.2734 -0.1009 -1.4940
13396TIP3    H261604   6.501   2.246  12.504  0.2940 -1.3715  0.3845
13397TIP3   OH261605   2.033   5.473   0.325  0.3701  0.3823  0.1768
13397TIP3    H161606   1.955   5.419   0.330  0.0636  0.7593 -0.4588
13397TIP3    H261607   2.003   5.561   0.348  0.9474  0.2315  1.6450
13398TIP3   OH261608   0.327   2.055  16.321  0.9301  0.1069 -0.1859
13398TIP3    H161609   0.346   1.971  16.364  2.1629  0.1338 -0.6303
13398TIP3    H261610   0.407   2.105  16.332  0.8411  0.5579 -1.4836
13399TIP3   OH261611   5.950   2.119   2.134  0.2912  0.2742 -0.0013
13399TIP3    H161612   6.011   2.192   2.145 -0.6354  1.1736 -0.5832
13399TIP3    H261613   5.915   2.103   2.222  0.8163  0.2319  0.2045
13400TIP3   OH261614   4.476   5.385  17.282 -0.0357 -0.1060 -0.7243
13400TIP3    H161615   4.452   5.293  17.264 -0.2875  0.1387 -1.7192
13400TIP3    H261616   4.501   5.386  17.374 -3.3787 -0.5000  0.3090
13401TIP3   OH261617   0.870   1.341   6.601  0.6196  0.4955  0.0867
13401TIP3    H161618   0.948   1.287   6.587 -0.7713 -1.7592  0.6113
13401TIP3    H261619   0.864   1.350   6.697 -1.0404 -1.4296  0.2188
13402TIP3   OH261620   5.555   4.733   2.770  0.1466 -0.2507 -0.8954
13402TIP3    H161621   5.478   4.718   2.825 -1.9076  1.0811 -3.2016
13402TIP3    H261622   5.576   4.647   2.734 -0.2230 -0.6424 -0.1979
13403TIP3   OH261623   2.993   1.474   6.339  1.0216 -0.2767  0.1984
13403TIP3    H161624   3.058   1.502   6.403  0.5663 -1.3134  1.1556
13403TIP3    H261625   2.933   1.419   6.389 -1.2110  1.4614 -0.4026
13404TIP3   OH261626   3.658   2.629   3.202  0.6765  0.2645 -0.7280
13404TIP3    H161627   3.717   2.700   3.227 -0.5851  1.3803 -0.8024
13404TIP3    H261628   3.715   2.553   3.189  2.0014  1.1338 -0.1687
13405TIP3   OH261629   4.828   5.554   3.663  0.1539  0.2579 -0.4935
13405TIP3    H161630   4.900   5.552   3.600 -0.3845  0.6988 -1.1373
13405TIP3    H261631   4.837   5.639   3.707  0.2726  0.1351 -0.2795
13406TIP3   OH261632   5.513   4.867   0.795 -0.0748 -0.2527  0.0730
13406TIP3    H161633   5.600   4.872   0.836 -0.6186  1.4963  1.1294
13406TIP3    H261634   5.524   4.911   0.711 -0.0970  0.7031  0.5542
13407TIP3   OH261635   1.708   2.693  14.603 -0.3512 -0.5345  0.4774
13407TIP3    H161636   1.638   2.663  14.660 -1.1568 -0.0767 -0.2469
13407TIP3    H261637   1.751   2.763  14.652  0.6406 -1.8512  1.5830
13408TIP3   OH261638   3.156   4.635   5.809  0.2747  0.4749  0.2028
13408TIP3    H161639   3.112   4.614   5.891  0.0075 -1.0352 -0.2856
13408TIP3    H261640   3.242   4.594   5.817 -0.1728 -0.7310 -0.6862
13409TIP3   OH261641   4.610   5.295   1.095 -0.4556 -0.7314 -0.3785
13409TIP3    H161642   4.605   5.380   1.140  1.2946  0.6694 -2.6155
13409TIP3    H261643   4.674   5.245   1.146  0.7360  0.4418 -0.6716
13410TIP3   OH261644   1.834   0.764   5.662 -0.1225  0.4391  0.4958
13410TIP3    H161645   1.760   0.728   5.712  1.9855 -1.5391  2.4350
13410TIP3    H261646   1.885   0.687   5.637 -0.1731  1.4784 -3.4524
13411TIP3   OH261647   2.841   0.845   5.437  0.9666  0.3853 -0.3974
13411TIP3    H161648   2.864   0.810   5.350  0.7063  2.2585 -1.2708
13411TIP3    H261649   2.804   0.770   5.483  0.7028 -0.5708 -2.0518
13412TIP3   OH261650   5.578   0.073  13.480 -0.5402  0.5187 -0.3865
13412TIP3    H161651   5.488   0.042  13.494 -0.3905  0.7229  1.1816
13412TIP3    H261652   5.588   0.146  13.540  0.2731  1.3662 -1.5010
13413TIP3   OH261653   4.346   6.537  17.172 -0.3670  0.1551 -0.2987
13413TIP3    H161654   4.419   6.560  17.114  0.2284  0.2084  0.4632
13413TIP3    H261655   4.341   6.610  17.234 -1.0720  0.1509 -0.3463
13414TIP3   OH261656   3.039   5.938  13.029  0.4893 -0.5731 -0.1477
13414TIP3    H161657   3.068   6.008  12.969 -1.6238  0.3053 -0.2295
13414TIP3    H261658   3.023   5.983  13.112 -2.4923 -0.5488 -0.6416
13415TIP3   OH261659   5.187   2.227   1.800 -0.0846 -0.1800  0.3200
13415TIP3    H161660   5.264   2.221   1.743 -1.2470 -0.2614 -1.3225
13415TIP3    H261661   5.130   2.155   1.770 -1.2135  0.4721  0.8407
13416TIP3   OH261662   0.681   2.452  16.500 -0.1474 -0.3082  0.8029
13416TIP3    H161663   0.734   2.526  16.530  0.0593 -0.0691 -0.1228
13416TIP3    H261664   0.744   2.386  16.474 -0.3179 -0.4182  0.6659
13417TIP3   OH261665   5.335   4.957   4.527 -0.1700 -0.5465  0.1566
13417TIP3    H161666   5.300   4.963   4.439  0.2161 -0.0358  0.0279
13417TIP3    H261667   5.268   4.996   4.583 -0.8818 -1.8392  0.2323
13418TIP3   OH261668   0.062   5.979   4.059 -0.0320 -0.2740  0.6657
13418TIP3    H161669   0.084   6.066   4.094  0.1443 -0.1673  0.3014
13418TIP3    H261670  -0.020   5.992   4.012  0.3667 -0.1365 -0.0096
13419TIP3   OH261671   3.630   3.464  16.548 -0.1276  0.3341 -0.0094
13419TIP3    H161672   3.573   3.391  16.572 -0.1579  0.0745 -0.8593
13419TIP3    H261673   3.705   3.423  16.505 -0.5297  0.8508 -1.2366
13420TIP3   OH261674   3.465   1.130   0.092 -0.0678 -0.5566  0.2667
13420TIP3    H161675   3.557   1.145   0.073 -0.4065 -0.7518 -1.8082
13420TIP3    H261676   3.453   1.163   0.181  1.5739  1.2523 -0.1073
13421TIP3   OH261677   0.560   2.219  16.326  0.4555 -0.0964  0.2481
13421TIP3    H161678   0.563   2.234  16.231  2.2923  0.0537  0.2946
13421TIP3    H261679   0.541   2.305  16.364  1.5025  0.2157  0.0855
13422TIP3   OH261680   3.998   6.246  13.452  0.0260 -0.3462  0.3685
13422TIP3    H161681   3.928   6.206  13.399 -0.3338  0.0280  0.5602
13422TIP3    H261682   4.002   6.337  13.421  2.6118 -1.0994 -1.9442
13423TIP3   OH261683   4.164   5.259   4.795 -0.6877 -0.1993  0.1362
13423TIP3    H161684   4.112   5.332   4.761  0.3268  0.0727 -0.8779
13423TIP3    H261685   4.219   5.232   4.721  2.5282  1.2082  1.8530
13424TIP3   OH261686   5.887   0.967   1.004  0.1057 -0.5265 -0.2774
13424TIP3    H161687   5.804   0.986   0.960  1.0864  0.7540 -1.6931
13424TIP3    H261688   5.931   0.906   0.946  0.4485 -0.6354  0.1005
13425TIP3   OH261689   4.189   2.245   5.097 -0.3473 -0.1507  0.2905
13425TIP3    H161690   4.210   2.155   5.122 -1.1431 -0.3302  0.3343
13425TIP3    H261691   4.221   2.252   5.007  0.6649 -0.1405  0.6322
13426TIP3   OH261692   1.526   3.000   0.707 -0.3466 -0.2114  0.1293
13426TIP3    H161693   1.607   2.956   0.731  0.5054  0.9937 -0.4629
13426TIP3    H261694   1.464   2.929   0.692  1.1587 -1.2675 -1.4755
13427TIP3   OH261695   3.971   0.642  12.418 -0.1561  0.2740 -0.2386
13427TIP3    H161696   3.983   0.685  12.333  0.2921  0.8817  0.1318
13427TIP3    H261697   3.934   0.556  12.395  0.0167  0.4038 -1.0535
13428TIP3   OH261698   2.026   0.595   2.651 -0.1228 -0.4714  0.3798
13428TIP3    H161699   2.011   0.592   2.556  1.3394  1.4410  0.0375
13428TIP3    H261700   1.965   0.661   2.683  2.1483  1.9532  0.0629
13429TIP3   OH261701   5.748   0.545  15.900  0.0799  0.3712  0.0108
13429TIP3    H161702   5.691   0.468  15.898  0.6726 -0.3625  3.7530
13429TIP3    H261703   5.722   0.593  15.978  1.6764  2.4034 -0.6122
13430TIP3   OH261704   5.922   4.427  11.593  0.6184  0.6968 -0.6907
13430TIP3    H161705   5.927   4.407  11.687  0.1816  1.3058 -0.5318
13430TIP3    H261706   5.849   4.489  11.586  0.3149  0.2563 -1.5019
13431TIP3   OH261707   5.253   2.332   6.194  0.3125  0.0863 -0.0306
13431TIP3    H161708   5.221   2.270   6.259  1.0254  1.1312  1.3746
13431TIP3    H261709   5.186   2.333   6.126 -0.4640 -1.0277  0.7000
13432TIP3   OH261710   4.406   1.722  16.510  0.8116 -0.4881  0.8363
13432TIP3    H161711   4.437   1.632  16.501 -0.9061 -1.0862  0.4372
13432TIP3    H261712   4.347   1.720  16.585 -0.1777 -0.0030  0.1055
13433TIP3   OH261713   6.486   2.713  11.746 -0.4532 -0.6291  0.1020
13433TIP3    H161714   6.555   2.663  11.703 -0.6552 -0.2121 -0.7392
13433TIP3    H261715   6.533   2.772  11.806 -0.0896 -0.5202 -0.2835
13434TIP3   OH261716   1.196   2.566  17.491  0.0565  0.3569 -0.5553
13434TIP3    H161717   1.133   2.526  17.551 -0.8855  0.9289 -1.1239
13434TIP3    H261718   1.272   2.508  17.492 -0.8173 -0.8057 -0.4876
13435TIP3   OH261719   3.102   5.554  14.094  0.3310  0.0437  0.0771
13435TIP3    H161720   3.170   5.555  14.162  0.3370  1.1675  0.0814
13435TIP3    H261721   3.031   5.606  14.132  0.8184  1.7398 -1.2418
13436TIP3   OH261722   6.597   2.360   6.153  0.4573  0.3437  0.1180
13436TIP3    H161723   6.663   2.396   6.094  0.6101 -0.2391 -0.0730
13436TIP3    H261724   6.514   2.397   6.122  0.9231  3.3381  2.0512
13437TIP3   OH261725   1.825   1.588  16.092  0.2460 -0.1206  0.6509
13437TIP3    H161726   1.901   1.646  16.083 -1.3371  1.9641 -0.0313
13437TIP3    H261727   1.749   1.647  16.087 -1.4399 -2.1671  0.8998
13438TIP3   OH261728   1.347   0.029  12.007 -0.1225  0.0970  0.1138
13438TIP3    H161729   1.353  -0.039  12.074 -0.7582  0.4623  0.5629
13438TIP3    H261730   1.318   0.107  12.055  1.1669  0.8530 -0.2858
13439TIP3   OH261731   3.094   2.006   2.584 -0.1871 -0.0414 -0.0092
13439TIP3    H161732   3.053   2.054   2.512  2.6200  0.6086 -1.2774
13439TIP3    H261733   3.102   1.916   2.552 -1.7924 -0.5202  0.8062
13440TIP3   OH261734   0.959   0.680   2.429 -0.0178 -0.6866  0.0447
13440TIP3    H161735   0.960   0.690   2.524  0.7034 -0.5400  0.0219
13440TIP3    H261736   1.007   0.755   2.396 -1.3304 -0.0502 -0.5082
13441TIP3   OH261737   2.194   2.582  15.299 -0.2146  0.3551  0.4265
13441TIP3    H161738   2.243   2.610  15.376  0.2421 -1.0028  0.6495
13441TIP3    H261739   2.253   2.524  15.252 -1.5864 -1.3572  0.7218
13442TIP3   OH261740   5.734   4.939   2.501 -0.4784 -0.1297  0.1575
13442TIP3    H161741   5.815   4.950   2.452 -0.5662  0.7286  0.1966
13442TIP3    H261742   5.668   4.985   2.449 -0.4303  1.4624  1.4345
13443TIP3   OH261743   6.661   1.410   1.313  0.3035  0.0864 -0.7856
13443TIP3    H161744   6.669   1.475   1.243 -2.0941 -0.5441 -1.6948
13443TIP3    H261745   6.568   1.410   1.336  0.4502 -2.2243  0.0000
13444TIP3   OH261746   1.564   1.476  16.358  0.2254 -0.3417  0.0338
13444TIP3    H161747   1.603   1.401  16.315  1.3865  0.7825 -0.9539
13444TIP3    H261748   1.628   1.546  16.348 -0.6309  0.6773  1.2988
13445TIP3   OH261749   4.662   6.211   6.285  0.0761 -0.1716 -0.2158
13445TIP3    H161750   4.682   6.293   6.331  1.1860 -0.1280 -0.7251
13445TIP3    H261751   4.574   6.189   6.313  0.4435  0.2249  1.3808
13446TIP3   OH261752   4.915   1.858   6.648 -0.2603 -0.2876  0.0400
13446TIP3    H161753   5.002   1.856   6.687  0.0269  0.3661 -0.5499
13446TIP3    H261754   4.856   1.874   6.722 -0.0268 -1.9886  0.6398
13447TIP3   OH261755   1.354   3.196   0.366 -0.0372 -0.3633 -0.2992
13447TIP3    H161756   1.446   3.210   0.388 -0.5659  3.6081  0.0892
13447TIP3    H261757   1.340   3.247   0.286 -1.6902 -1.7927 -0.9907
13448TIP3   OH261758   4.496   0.939   1.311 -0.2469  0.3859 -0.1741
13448TIP3    H161759   4.557   0.868   1.330 -0.5689  0.1479 -0.0201
13448TIP3    H261760   4.541   0.992   1.246  0.4270  0.6143  0.4617
13449TIP3   OH261761   5.486   2.764  13.784 -0.5666  0.0439 -0.9826
13449TIP3    H161762   5.575   2.772  13.816 -0.7853  0.0579 -0.3617
13449TIP3    H261763   5.490   2.694  13.718  0.0862  0.7360 -1.7045
13450TIP3   OH261764   3.791   2.269   2.921 -0.5333  0.1030  0.1304
13450TIP3    H161765   3.730   2.211   2.966 -0.5475  1.2092  1.5924
13450TIP3    H261766   3.737   2.343   2.893 -0.1182  0.4226  0.1753
13451TIP3   OH261767   0.637   2.686   5.590  0.2126  0.1907  0.3915
13451TIP3    H161768   0.573   2.687   5.661  1.4039 -1.3382  1.5698
13451TIP3    H261769   0.660   2.778   5.576 -1.0734  0.6255  1.0050
13452TIP3   OH261770   5.145   2.448   1.490 -0.4628  0.1317 -1.1093
13452TIP3    H161771   5.179   2.524   1.442  0.7940  0.3643  0.0872
13452TIP3    H261772   5.220   2.390   1.499 -0.7724 -0.0863  0.2101
13453TIP3   OH261773   3.967   0.210  12.122  0.4600  0.0018 -1.0646
13453TIP3    H161774   4.040   0.219  12.060 -0.4704  2.2144 -1.9406
13453TIP3    H261775   3.916   0.290  12.110 -0.2098  0.1344  2.0364
13454TIP3   OH261776   2.619   0.309  16.056 -0.1047  0.3556  0.1734
13454TIP3    H161777   2.597   0.262  16.136 -0.3056  0.6043  0.2651
13454TIP3    H261778   2.711   0.333  16.068  0.8526 -2.2789 -0.9899
13455TIP3   OH261779   0.087   3.693  14.547  0.1960 -0.1573 -0.2614
13455TIP3    H161780   0.125   3.684  14.634 -0.7554  1.1844  0.3434
13455TIP3    H261781   0.050   3.607  14.527 -0.4939 -0.2050  1.1292
13456TIP3   OH261782   0.341   2.631  17.336 -0.0143  0.1633  0.1899
13456TIP3    H161783   0.418   2.588  17.301  0.9138  1.4545  0.5674
13456TIP3    H261784   0.276   2.561  17.345  1.0636 -0.9244 -0.2269
13457TIP3   OH261785   0.243   1.851   1.968 -0.0472  0.0016 -0.6369
13457TIP3    H161786   0.169   1.816   1.918 -0.0003 -1.4583  0.2499
13457TIP3    H261787   0.203   1.915   2.027 -0.3295  0.5521 -1.4146
13458TIP3   OH261788   3.176   5.119   2.468  0.1306  0.1788 -0.6376
13458TIP3    H161789   3.244   5.139   2.403  1.9591 -1.4736  0.6605
13458TIP3    H261790   3.198   5.173   2.544  0.1996 -0.5941 -0.0952
13459TIP3   OH261791   5.173   3.577   3.008 -0.1591  0.1595 -0.4965
13459TIP3    H161792   5.114   3.641   3.048  0.2416  0.4408 -0.3460
13459TIP3    H261793   5.243   3.630   2.969  1.2604 -0.2327  1.3378
13460TIP3   OH261794   5.007   6.601   3.999  0.1138 -0.5580 -0.2335
13460TIP3    H161795   5.103   6.603   4.001  0.0853  1.1677  0.3877
13460TIP3    H261796   4.981   6.689   3.975 -1.3367 -1.0118 -0.4377
13461TIP3   OH261797   0.212   0.735  14.524 -0.3391  0.0043  0.2203
13461TIP3    H161798   0.190   0.826  14.546 -2.1060  0.7756 -3.8558
13461TIP3    H261799   0.131   0.687  14.541 -0.5635 -0.0583 -0.9327
13462TIP3   OH261800   4.302   3.892  15.406  0.0614  0.4741 -0.2093
13462TIP3    H161801   4.286   3.941  15.325 -0.6493  1.3907  0.4580
13462TIP3    H261802   4.216   3.886  15.448  0.2748 -0.6989  0.1025
13463TIP3   OH261803   3.446   3.992  11.461 -0.5389 -0.3194 -0.3661
13463TIP3    H161804   3.358   4.001  11.425 -0.1235  0.3230 -1.2764
13463TIP3    H261805   3.503   3.994  11.384  0.2845 -0.5421  0.2232
13464TIP3   OH261806   1.359   3.068  11.700 -0.6631  0.3943 -0.4995
13464TIP3    H161807   1.453   3.053  11.701 -0.7570 -0.3261 -1.4348
13464TIP3    H261808   1.330   3.039  11.613 -1.8716 -0.2214  0.0745
13465TIP3   OH261809   5.247   3.046   2.905  0.1297  0.4089  0.2001
13465TIP3    H161810   5.157   3.069   2.882 -0.3664 -0.3878  1.2740
13465TIP3    H261811   5.274   2.983   2.838 -0.0504  0.7572 -0.2074
13466TIP3   OH261812   3.132   5.723  15.826 -0.8321 -0.0956  0.3001
13466TIP3    H161813   3.089   5.781  15.888 -0.6848 -0.5926  0.8710
13466TIP3    H261814   3.152   5.644  15.876 -1.5323 -0.8709 -0.6051
13467TIP3   OH261815   0.090   2.707  13.028  0.4450  0.4916  0.0322
13467TIP3    H161816   0.159   2.685  12.965  1.8962  0.6182  1.5147
13467TIP3    H261817   0.103   2.646  13.101 -1.6310 -0.1108 -0.0375
13468TIP3   OH261818   6.105   2.226   0.905  0.2724  0.4637  0.6621
13468TIP3    H161819   6.062   2.157   0.956 -1.0970 -0.7117 -1.8886
13468TIP3    H261820   6.194   2.193   0.891 -0.8342 -1.8082 -1.9842
13469TIP3   OH261821   4.662   5.883   5.290 -0.9344  0.0414  0.0908
13469TIP3    H161822   4.598   5.821   5.323 -1.0072  0.1210  0.0981
13469TIP3    H261823   4.747   5.840   5.305 -1.0547 -0.9555 -1.7376
13470TIP3   OH261824   1.881   0.238  12.166  0.9716  0.4051  0.1528
13470TIP3    H161825   1.966   0.242  12.209  1.3321 -0.3917 -0.4620
13470TIP3    H261826   1.883   0.157  12.116  0.2587  0.9182 -0.7344
13471TIP3   OH261827   4.462   2.880   1.303  0.0375  0.3403 -0.4461
13471TIP3    H161828   4.547   2.857   1.339 -0.4484 -1.4929 -0.3949
13471TIP3    H261829   4.404   2.809   1.329 -1.1356  0.7246 -1.8455
13472TIP3   OH261830   1.382   6.638  17.433  0.2987  0.3043 -0.0526
13472TIP3    H161831   1.378   6.683  17.517  0.6847 -2.4262  1.5573
13472TIP3    H261832   1.291   6.630  17.404  0.1309  0.8323  0.3206
13473TIP3   OH261833   4.004   1.702   0.448  0.4308  0.0720 -0.0612
13473TIP3    H161834   4.053   1.783   0.433  1.0148 -0.1188  0.7289
13473TIP3    H261835   4.053   1.635   0.400  0.3034  0.0785 -0.2003
13474TIP3   OH261836   2.869   2.959   0.375  0.2726  0.1394  0.2414
13474TIP3    H161837   2.917   3.040   0.357  1.0549 -0.2320  0.6145
13474TIP3    H261838   2.847   2.925   0.289 -1.1705  1.3697  0.0670
13475TIP3   OH261839   1.719   4.979  14.815 -0.6448 -1.0675 -0.3516
13475TIP3    H161840   1.668   5.038  14.870 -0.5790  0.9172 -2.2990
13475TIP3    H261841   1.707   5.012  14.726  3.5491 -0.8098 -1.0130
13476TIP3   OH261842   0.536   5.907  13.479 -0.2639 -0.2111  0.3255
13476TIP3    H161843   0.464   5.944  13.427 -1.6505 -2.3686  0.5951
13476TIP3    H261844   0.513   5.928  13.570  0.1731  0.2680  0.3285
13477TIP3   OH261845   5.393   3.444  17.303  0.1518  0.1791 -0.2102
13477TIP3    H161846   5.408   3.472  17.393  0.2147  1.5529 -0.6268
13477TIP3    H261847   5.372   3.525  17.256  0.0781 -0.5229 -1.4184
13478TIP3   OH261848   5.862   2.290  14.773 -0.3875  0.2895  0.1790
13478TIP3    H161849   5.933   2.347  14.744 -0.6348  0.6997  0.3759
13478TIP3    H261850   5.825   2.334  14.850 -1.1214  0.2901 -0.1688
13479TIP3   OH261851   4.327   4.660  15.345 -0.0389  0.0203 -0.2786
13479TIP3    H161852   4.365   4.576  15.319  0.6358  0.5802 -1.1516
13479TIP3    H261853   4.401   4.720  15.347 -0.6817  0.8490 -0.7493
13480TIP3   OH261854   3.728   4.683  10.933  0.5889  0.4258 -0.0379
13480TIP3    H161855   3.779   4.700  11.011  0.5310  2.0174 -0.3106
13480TIP3    H261856   3.791   4.685  10.861  0.5546 -0.4343 -0.1027
13481TIP3   OH261857   2.099   1.539   4.573 -0.6095 -0.3311 -0.2092
13481TIP3    H161858   2.051   1.482   4.634  0.5091 -2.3084 -1.0678
13481TIP3    H261859   2.189   1.538   4.606 -0.0957 -1.0299 -1.5777
13482TIP3   OH261860   2.058   4.224  10.592  0.6493 -0.1295  0.6951
13482TIP3    H161861   2.035   4.142  10.547  0.0909 -0.3875  1.4313
13482TIP3    H261862   2.153   4.233  10.578  0.5013 -0.2248 -0.4762
13483TIP3   OH261863   2.090   0.812  12.144 -0.0339 -0.1482  0.3057
13483TIP3    H161864   2.048   0.856  12.070  1.4341 -0.5068 -0.7800
13483TIP3    H261865   2.157   0.873  12.174 -0.7488  0.0830  1.5138
13484TIP3   OH261866   4.895   3.793  14.259  0.0896 -0.1742  0.2729
13484TIP3    H161867   4.862   3.852  14.327 -2.3527  1.6902 -2.3169
13484TIP3    H261868   4.977   3.832  14.230 -0.0026  0.2817  0.6165
13485TIP3   OH261869   5.733   1.619   2.854  0.4482 -0.2549 -0.0130
13485TIP3    H161870   5.679   1.698   2.856  0.3513 -0.3291  0.7394
13485TIP3    H261871   5.704   1.568   2.930 -0.6934 -1.8302 -1.4281
13486TIP3   OH261872   1.481   1.814  13.425 -0.0762 -0.0484  0.1765
13486TIP3    H161873   1.466   1.746  13.491 -1.7731 -0.0968 -0.2069
13486TIP3    H261874   1.394   1.834  13.391  0.5994  1.0180 -1.0238
13487TIP3   OH261875   3.568   5.815   5.156 -0.4686  0.3782 -0.1331
13487TIP3    H161876   3.500   5.772   5.104 -0.4529  0.1376  0.0437
13487TIP3    H261877   3.523   5.888   5.199 -0.2535  1.2135 -1.2986
13488TIP3   OH261878   4.216   2.679  12.612 -0.1281 -0.1153 -0.3276
13488TIP3    H161879   4.123   2.659  12.622  0.0582 -2.6930 -2.5364
13488TIP3    H261880   4.232   2.751  12.673 -3.3580 -0.1393  0.7328
13489TIP3   OH261881   0.608   3.091   6.177  0.1013 -0.1908 -0.0456
13489TIP3    H161882   0.573   3.179   6.190  1.0536 -0.0737  2.1797
13489TIP3    H261883   0.541   3.033   6.213 -0.4452 -0.3971 -1.3478
13490TIP3   OH261884   2.238   2.063  11.790  0.5897 -0.2744  0.4481
13490TIP3    H161885   2.301   1.991  11.785 -0.0568 -0.8916  0.9240
13490TIP3    H261886   2.156   2.021  11.818  0.8562  1.0300  3.5008
13491TIP3   OH261887   0.669   1.607   2.621  0.1299  0.2894  0.1880
13491TIP3    H161888   0.665   1.512   2.609  2.2061 -0.1347  2.0609
13491TIP3    H261889   0.577   1.635   2.617 -0.4405 -1.5646 -1.7024
13492TIP3   OH261890   3.187   1.750   5.255 -0.1050 -0.7485  0.3704
13492TIP3    H161891   3.095   1.726   5.262 -0.5055  0.5786 -0.0272
13492TIP3    H261892   3.191   1.810   5.181  0.7155  0.8330  1.6188
13493TIP3   OH261893   4.538   3.712  12.822  0.0474  0.2759  0.0424
13493TIP3    H161894   4.622   3.743  12.854 -0.1376  2.5296 -1.4405
13493TIP3    H261895   4.547   3.711  12.727 -1.0817 -1.1205 -0.0952
13494TIP3   OH261896   4.632   4.942   2.313  0.3659 -0.1618 -0.2916
13494TIP3    H161897   4.675   4.944   2.398  0.5388  0.3075 -0.3880
13494TIP3    H261898   4.656   4.857   2.276  0.0610 -0.4842  0.2429
13495TIP3   OH261899   2.998   6.430   2.454  0.4087  0.3046 -0.8471
13495TIP3    H161900   3.049   6.358   2.492 -1.8554 -0.8675  0.2350
13495TIP3    H261901   3.055   6.468   2.387  1.9653 -2.0677 -0.9948
13496TIP3   OH261902   1.249   4.335   1.363  0.7094  0.0354  0.0211
13496TIP3    H161903   1.165   4.357   1.322  0.0183 -0.4871  1.0840
13496TIP3    H261904   1.241   4.243   1.386  1.6850 -0.0879 -0.0923
13497TIP3   OH261905   6.627   1.437  11.798  0.1013 -0.0492 -0.3456
13497TIP3    H161906   6.571   1.457  11.724 -1.5459  0.9945  1.1047
13497TIP3    H261907   6.584   1.362  11.841  0.7802 -0.3508 -0.1732
13498TIP3   OH261908   0.172   1.108   5.652 -0.2658  0.0821  0.4654
13498TIP3    H161909   0.155   1.034   5.711  0.5350 -0.2882  0.2545
13498TIP3    H261910   0.258   1.140   5.679  0.7784 -1.0021 -1.3929
13499TIP3   OH261911   6.260   2.019   5.410 -0.1978 -0.2614 -0.2983
13499TIP3    H161912   6.285   1.943   5.358 -0.3931  0.8115 -2.0164
13499TIP3    H261913   6.170   2.039   5.383 -0.0223  0.7919 -0.1633
13500TIP3   OH261914   3.927   4.477  12.202  0.0553  0.1148  0.1491
13500TIP3    H161915   3.850   4.532  12.217  0.4088  0.5464  0.3819
13500TIP3    H261916   3.975   4.521  12.132  0.2886  0.0460  0.2645
13501TIP3   OH261917   3.891   4.238   4.914 -0.3386 -0.7257  0.0616
13501TIP3    H161918   3.833   4.162   4.912  1.4327 -2.1780  1.1277
13501TIP3    H261919   3.971   4.208   4.870 -0.1134  1.0118 -0.8076
13502TIP3   OH261920   4.894   3.435  14.853  0.4044 -0.0218  0.1278
13502TIP3    H161921   4.832   3.502  14.823  0.2242 -0.1134  0.2936
13502TIP3    H261922   4.845   3.384  14.917  0.2785 -0.8211 -0.5802
13503TIP3   OH261923   6.058   0.376   4.699 -0.5305  0.4765  0.5306
13503TIP3    H161924   6.038   0.465   4.670  1.0588  0.4592 -0.7698
13503TIP3    H261925   6.001   0.320   4.646 -2.7972  0.7229  2.5518
13504TIP3   OH261926   5.409   3.122   4.067  0.0401  0.3126  0.0736
13504TIP3    H161927   5.330   3.068   4.063 -0.5819  1.1654  0.4932
13504TIP3    H261928   5.476   3.069   4.024 -1.6774  1.1860 -4.3131
13505TIP3   OH261929   5.488   6.266  14.116  0.2459 -0.1154  0.1647
13505TIP3    H161930   5.549   6.270  14.042  2.5319 -0.8374  1.9239
13505TIP3    H261931   5.402   6.259  14.074  1.3240  0.7027 -2.4261
13506TIP3   OH261932   3.355   1.541   4.804 -0.3083 -0.4646 -0.2124
13506TIP3    H161933   3.330   1.449   4.814 -2.2760 -0.2237 -2.0399
13506TIP3    H261934   3.331   1.582   4.887 -1.6921 -1.1754 -0.2345
13507TIP3   OH261935   1.869   3.655   1.860  0.0306  0.3682  0.5568
13507TIP3    H161936   1.887   3.580   1.803 -3.6267  1.0011 -1.7950
13507TIP3    H261937   1.898   3.731   1.809 -1.2570  0.8026  0.4253
13508TIP3   OH261938   5.517   1.037  17.216  0.6710  0.3105  0.1506
13508TIP3    H161939   5.462   1.063  17.290  0.8713  0.5396  0.2225
13508TIP3    H261940   5.512   1.111  17.155 -0.0636 -0.1731 -0.3915
13509TIP3   OH261941   6.659   3.017   4.706  0.4979  0.1600  0.4935
13509TIP3    H161942   6.690   2.970   4.783  0.7303  1.1402  1.0180
13509TIP3    H261943   6.629   3.102   4.740  0.2453  0.4573 -0.4400
13510TIP3   OH261944   3.269   0.490  11.615 -0.4889  0.4015 -0.8141
13510TIP3    H161945   3.277   0.434  11.537 -1.1776  1.8801 -2.0114
13510TIP3    H261946   3.241   0.430  11.684  0.1300 -0.9653 -1.6961
13511TIP3   OH261947   2.289   6.007   4.110  0.0029 -0.0003  0.0548
13511TIP3    H161948   2.270   6.031   4.201 -2.7665  2.3032 -0.9748
13511TIP3    H261949   2.370   6.054   4.090  0.2978 -0.0091  1.1309
13512TIP3   OH261950   5.821   5.600   1.228 -0.0706  0.4084 -0.1625
13512TIP3    H161951   5.808   5.678   1.174  0.4733 -0.5920 -1.7822
13512TIP3    H261952   5.745   5.600   1.287  0.5105  2.7783  0.7105
13513TIP3   OH261953   0.979   0.771   4.501 -0.1456 -0.2866  0.0208
13513TIP3    H161954   1.005   0.757   4.592 -0.7424  2.7052  0.7544
13513TIP3    H261955   1.059   0.799   4.457 -0.6437  2.6392  0.7734
13514TIP3   OH261956   0.655   3.131  16.337 -0.3041 -0.1256  0.4220
13514TIP3    H161957   0.611   3.137  16.252 -0.3271 -2.3930  0.2200
13514TIP3    H261958   0.588   3.094  16.395  0.0412  0.4099  1.1739
13515TIP3   OH261959   4.220   5.154   3.636 -0.3235  0.8882 -0.0033
13515TIP3    H161960   4.271   5.160   3.555  0.8463 -1.9557  0.3909
13515TIP3    H261961   4.132   5.130   3.608  0.5901 -2.4505 -0.5350
13516TIP3   OH261962   0.143   0.016  15.004  0.5844 -0.2228  0.2522
13516TIP3    H161963   0.213   0.047  15.061  2.6577 -2.1127 -1.0572
13516TIP3    H261964   0.114   0.094  14.957 -0.2646  1.1298  2.8273
13517TIP3   OH261965   4.230   1.469  12.054 -0.4401  0.0555 -0.1380
13517TIP3    H161966   4.225   1.412  12.131 -1.5097  0.2034 -0.0734
13517TIP3    H261967   4.239   1.557  12.090  2.1288 -0.0964 -0.2481
13518TIP3   OH261968   5.058   5.942  17.220  0.0646  0.0746 -0.2490
13518TIP3    H161969   5.026   5.998  17.148 -1.3847 -0.1241  0.2081
13518TIP3    H261970   4.980   5.893  17.248  0.6561 -0.0194  1.3038
13519TIP3   OH261971   4.710   6.651  11.751 -0.3568  0.1984 -0.2109
13519TIP3    H161972   4.633   6.670  11.804  0.2205  0.7058  0.4816
13519TIP3    H261973   4.784   6.670  11.810  0.2972  0.3541 -1.0631
13520TIP3   OH261974   6.196   0.938   5.262 -0.2013  0.0579 -0.1808
13520TIP3    H161975   6.187   0.849   5.296 -0.4624  0.5635  1.1664
13520TIP3    H261976   6.290   0.952   5.253 -0.1799 -1.0463 -2.4608
13521TIP3   OH261977   0.469   0.989  16.989 -0.0422  0.2680  0.7700
13521TIP3    H161978   0.537   0.937  17.031 -0.1152 -0.6913 -0.2415
13521TIP3    H261979   0.515   1.062  16.948  0.8171 -1.6725 -2.0174
13522TIP3   OH261980   5.069   4.956   1.942  0.2248  0.3327 -0.4335
13522TIP3    H161981   5.023   4.894   2.000  1.4809  0.3015  0.6004
13522TIP3    H261982   5.008   5.028   1.931 -0.4649 -0.1509  0.0742
13523TIP3   OH261983   4.487   0.731  12.127 -0.0910 -0.0696 -0.2936
13523TIP3    H161984   4.437   0.790  12.071 -1.0850  0.2116  0.8468
13523TIP3    H261985   4.422   0.670  12.163 -0.0695  1.4941  2.7504
13524TIP3   OH261986   4.478   1.027   1.595  0.0712 -0.1458  0.1414
13524TIP3    H161987   4.453   1.035   1.502  3.3575 -1.1390 -0.9469
13524TIP3    H261988   4.518   0.941   1.602 -0.3950 -0.2222  2.6277
13525TIP3   OH261989   2.185   0.102  13.976 -0.0157 -0.4434 -0.4506
13525TIP3    H161990   2.128   0.141  14.043 -0.7326 -2.9073  0.4667
13525TIP3    H261991   2.222   0.177  13.930 -1.4696  1.3002  1.0625
13526TIP3   OH261992   0.423   5.777  15.018 -0.5159  0.3484 -0.3308
13526TIP3    H161993   0.486   5.757  14.948  0.5488  0.1420  0.6663
13526TIP3    H261994   0.476   5.814  15.088 -1.3481 -0.8536  0.9693
13527TIP3   OH261995   3.093   3.966  17.330 -0.5403 -0.5692 -0.1125
13527TIP3    H161996   3.057   4.049  17.301 -1.5755 -0.8751  0.2619
13527TIP3    H261997   3.177   3.958  17.284 -0.9128  0.1937 -0.9255
13528TIP3   OH261998   2.504   1.219  17.567  0.1367  0.6782  0.5505
13528TIP3    H161999   2.420   1.173  17.562  1.6970 -2.2970 -0.1484
13528TIP3    H262000   2.537   1.199  17.654  1.2026 -0.2643 -0.0510
13529TIP3   OH262001   4.331   4.163  15.832  0.2818  0.1747 -0.3004
13529TIP3    H162002   4.269   4.112  15.779  0.0968  0.8125 -0.7116
13529TIP3    H262003   4.326   4.124  15.919  0.1547 -0.5188 -0.6093
13530TIP3   OH262004   4.287   0.276  15.441  0.6470 -0.5828  0.0182
13530TIP3    H162005   4.247   0.354  15.404  1.5137  0.0495  0.3653
13530TIP3    H262006   4.252   0.271  15.530 -1.9524 -2.4761 -1.0004
13531TIP3   OH262007   6.006   0.389  11.316 -0.1684  0.0739  0.0734
13531TIP3    H162008   5.973   0.475  11.287 -1.7403 -0.1508  1.0505
13531TIP3    H262009   6.055   0.356  11.241 -0.2061  1.4823 -0.6184
13532TIP3   OH262010   1.796   2.183  17.577 -0.3548 -0.3873  0.4401
13532TIP3    H162011   1.716   2.142  17.544 -0.8246  0.1904  0.8330
13532TIP3    H262012   1.779   2.195  17.671 -0.2274  0.6932  0.3351
13533TIP3   OH262013   4.855   4.415  16.500  0.4544  0.1013  0.1388
13533TIP3    H162014   4.898   4.337  16.468 -0.6038 -0.6465  0.4856
13533TIP3    H262015   4.922   4.483  16.497  1.3598 -0.7954 -0.2430
13534TIP3   OH262016   6.259   0.457   5.513  0.0880 -0.1440  0.3310
13534TIP3    H162017   6.265   0.404   5.433 -1.3688 -0.0844  0.1640
13534TIP3    H262018   6.227   0.396   5.579 -2.2422  0.6329 -0.0203
13535TIP3   OH262019   1.460   1.515   5.047 -0.2317  0.0097  0.0160
13535TIP3    H162020   1.375   1.472   5.042 -0.0291 -0.3075 -0.8012
13535TIP3    H262021   1.459   1.579   4.976 -0.4913  1.3169  1.1577
13536TIP3   OH262022   3.122   1.187   2.679  0.1466  0.0637 -0.2566
13536TIP3    H162023   3.152   1.201   2.769 -0.5360  1.8397 -0.2807
13536TIP3    H262024   3.032   1.156   2.687  0.1967 -0.1056 -0.3304
13537TIP3   OH262025   3.989   5.247   0.951  0.0843  0.0436 -0.1820
13537TIP3    H162026   3.942   5.179   0.903 -1.8241  0.4689  0.9550
13537TIP3    H262027   3.973   5.227   1.043 -0.6028  2.0004  0.1877
13538TIP3   OH262028   3.748   1.124  13.688  0.0140 -0.2925  0.5903
13538TIP3    H162029   3.747   1.202  13.744 -1.4846 -0.1887  0.4652
13538TIP3    H262030   3.811   1.145  13.619 -2.7602  2.3164 -1.4189
13539TIP3   OH262031   6.524   0.551  15.717 -0.3426 -0.3890 -0.1643
13539TIP3    H162032   6.531   0.646  15.715 -0.3348 -0.3798  0.2192
13539TIP3    H262033   6.481   0.528  15.634 -2.2489  0.1277  0.6178
13540TIP3   OH262034   4.623   3.428   0.593 -0.1509 -0.1844 -0.3413
13540TIP3    H162035   4.618   3.382   0.509  1.2402  0.9189 -1.0571
13540TIP3    H262036   4.697   3.388   0.638  0.6459  0.8624 -0.6875
13541TIP3   OH262037   0.011   0.189  13.484  0.8753  0.5052 -0.2358
13541TIP3    H162038   0.038   0.200  13.575  0.8524 -0.2507 -0.1300
13541TIP3    H262039  -0.077   0.152  13.489  0.8704  0.4666 -0.5646
13542TIP3   OH262040   1.845   0.063   2.306  0.1969  0.3152 -0.1699
13542TIP3    H162041   1.837   0.098   2.395 -0.9386  1.0516 -0.5328
13542TIP3    H262042   1.808   0.132   2.250 -1.3682 -1.1297 -0.9954
13543TIP3   OH262043   5.596   0.416   0.826 -0.1416  0.4524  0.1314
13543TIP3    H162044   5.642   0.351   0.879 -0.0334  1.1670  0.9449
13543TIP3    H262045   5.505   0.409   0.853  0.0587  1.5124  1.2167
13544TIP3   OH262046   3.680   0.833  13.399 -0.2612  0.4038 -0.3472
13544TIP3    H162047   3.728   0.850  13.319  1.5968  3.1248  1.1590
13544TIP3    H262048   3.747   0.830  13.467 -1.8677 -0.3966  1.2990
13545TIP3   OH262049   4.612   1.718   4.444 -0.1648 -0.4735  0.3964
13545TIP3    H162050   4.635   1.625   4.437 -1.5953 -0.9242  1.1389
13545TIP3    H262051   4.648   1.758   4.366 -0.7542 -1.9406 -0.6773
13546TIP3   OH262052   5.630   3.971  14.986  0.4189 -0.7349  0.2099
13546TIP3    H162053   5.626   4.066  14.983  1.0127 -0.7250 -0.8968
13546TIP3    H262054   5.668   3.951  15.071 -1.1956 -0.0614  1.1171
13547TIP3   OH262055   5.139   0.085   5.888 -0.3351  0.0533  0.3536
13547TIP3    H162056   5.232   0.069   5.873 -0.5143 -0.4610 -0.2664
13547TIP3    H262057   5.109   0.008   5.936 -0.4847  0.1213  0.3697
13548TIP3   OH262058   5.458   0.028   3.960 -1.2952 -0.4015  0.1430
13548TIP3    H162059   5.475   0.090   4.032 -0.7231 -0.8270  0.3846
13548TIP3    H262060   5.491   0.072   3.882  1.2298 -1.2915  0.6294
13549TIP3   OH262061   1.763   6.350   3.205  0.2163 -0.1999  0.5432
13549TIP3    H162062   1.739   6.278   3.147 -0.0751  1.2542 -1.2152
13549TIP3    H262063   1.766   6.310   3.292  0.9295 -2.5273 -0.4624
13550TIP3   OH262064   5.551   4.773  15.572  0.3903  0.1420  0.2990
13550TIP3    H162065   5.531   4.682  15.596  1.7298 -0.4262 -0.5746
13550TIP3    H262066   5.537   4.776  15.477 -1.5585  1.4207  0.5834
13551TIP3   OH262067   6.056   6.173  16.591  0.0848  0.2805 -0.2019
13551TIP3    H162068   6.117   6.116  16.638  0.9891  1.5818  0.2531
13551TIP3    H262069   5.981   6.116  16.570  1.6284 -1.5154 -1.2359
13552TIP3   OH262070   3.104   0.051  12.308  0.0240 -0.1724 -0.4563
13552TIP3    H162071   3.157  -0.023  12.339  0.4796  1.0273  1.8703
13552TIP3    H262072   3.168   0.117  12.282 -0.2552  0.9721  1.5768
13553TIP3   OH262073   3.784   1.068   0.417  0.2308  0.2139  0.0100
13553TIP3    H162074   3.777   0.984   0.372  0.1055  0.0792  0.2763
13553TIP3    H262075   3.864   1.107   0.383 -0.3533  0.5411 -1.0304
13554TIP3   OH262076   0.401   4.000   2.564 -0.1069  0.2919  0.1335
13554TIP3    H162077   0.475   3.971   2.617 -0.4531 -2.8337 -0.8972
13554TIP3    H262078   0.326   3.999   2.624 -0.1370 -1.2303  0.0898
13555TIP3   OH262079   3.647   1.326   3.850  0.2314  0.3154  0.2843
13555TIP3    H162080   3.702   1.401   3.828  2.0375 -0.6812  1.1530
13555TIP3    H262081   3.700   1.274   3.911 -2.0198 -0.2974  1.8461
13556TIP3   OH262082   2.347   6.369  15.039  0.4855  0.0361  0.0286
13556TIP3    H162083   2.427   6.334  15.000  1.5035  2.9843 -0.8482
13556TIP3    H262084   2.375   6.408  15.122 -0.0929  0.6969 -0.0687
13557TIP3   OH262085   3.717   0.032   0.601 -0.1699  0.4300  0.1419
13557TIP3    H162086   3.644   0.038   0.540 -0.6793 -2.1074  0.4049
13557TIP3    H262087   3.788   0.080   0.558 -0.6721 -0.7759 -2.1892
13558TIP3   OH262088   1.493   0.487   5.565  0.5193  0.0788 -0.6293
13558TIP3    H162089   1.528   0.431   5.495  0.8515 -0.0043 -0.3968
13558TIP3    H262090   1.569   0.514   5.615  0.3923  0.9813 -0.9019
13559TIP3   OH262091   2.628   3.878   5.095 -0.1073  0.0912  0.4973
13559TIP3    H162092   2.717   3.864   5.062 -0.0506 -0.8719  1.0157
13559TIP3    H262093   2.586   3.792   5.089 -1.5460  0.8502 -1.2362
13560TIP3   OH262094   2.700   2.594  11.848 -0.1574 -0.0979  0.3229
13560TIP3    H162095   2.702   2.519  11.908 -0.6418  0.0012  0.4665
13560TIP3    H262096   2.633   2.571  11.783  0.0440 -0.0037  0.0801
13561TIP3   OH262097   5.654   0.997  12.993 -0.4140  0.3042  0.1901
13561TIP3    H162098   5.565   1.028  12.975 -1.2475 -0.5587  2.4860
13561TIP3    H262099   5.704   1.077  13.008 -0.6542  0.8207 -1.5299
13562TIP3   OH262100   3.293   4.589  14.546 -0.0381 -0.0379 -0.1007
13562TIP3    H162101   3.227   4.555  14.485 -0.3463 -0.8000  0.6339
13562TIP3    H262102   3.324   4.511  14.593  1.1133  0.3593 -0.1580
13563TIP3   OH262103   2.809   3.440   2.617  0.2325  0.6743 -0.6811
13563TIP3    H162104   2.873   3.487   2.670 -1.4668  2.7648 -0.2901
13563TIP3    H262105   2.786   3.502   2.548 -0.7210 -0.3479 -1.3153
13564TIP3   OH262106   3.582   2.077   2.264  0.0079 -0.1308 -0.3234
13564TIP3    H162107   3.488   2.094   2.269 -0.0247 -0.4875  0.3803
13564TIP3    H262108   3.622   2.155   2.301 -0.0800 -0.7124  1.0609
13565TIP3   OH262109   4.327   5.052   2.015 -0.1038 -0.4967 -0.1822
13565TIP3    H162110   4.264   5.100   1.963 -0.4659 -2.0842 -1.2985
13565TIP3    H262111   4.410   5.060   1.967  1.0145  2.7338  1.9721
13566TIP3   OH262112   3.560   0.482   0.969  0.4514  0.2467 -0.1082
13566TIP3    H162113   3.545   0.417   0.900 -0.6783  0.3835 -0.0196
13566TIP3    H262114   3.472   0.512   0.993  0.7365 -0.4529  2.0311
13567TIP3   OH262115   2.466   1.677   1.208 -0.1669 -0.0629  0.3418
13567TIP3    H162116   2.557   1.697   1.188 -0.1441 -0.8126 -0.3559
13567TIP3    H262117   2.446   1.599   1.155 -1.2039  0.0823  0.4965
13568TIP3   OH262118   4.663   4.165   3.381 -0.2165 -0.6328  0.2297
13568TIP3    H162119   4.704   4.090   3.337  0.4183 -0.6522  0.8322
13568TIP3    H262120   4.706   4.168   3.466  0.5454  1.0827 -0.1895
13569TIP3   OH262121   0.675   1.271   4.637  0.1402  0.6301 -0.5459
13569TIP3    H162122   0.769   1.258   4.652  0.3073  0.6455 -1.5154
13569TIP3    H262123   0.648   1.333   4.706  0.6914  0.1128  0.1462
13570TIP3   OH262124   3.793   6.132   2.779 -0.6032  0.0272  0.3554
13570TIP3    H162125   3.804   6.084   2.696  1.6479 -0.5802  0.9228
13570TIP3    H262126   3.811   6.223   2.756  0.9227 -0.2605  0.2802
13571TIP3   OH262127   0.306   0.659  17.155 -0.0863 -0.4933  0.2331
13571TIP3    H162128   0.307   0.754  17.161 -1.1171 -0.5450  1.8299
13571TIP3    H262129   0.361   0.630  17.228  0.8221 -1.1342 -0.6787
13572TIP3   OH262130   3.847   4.943  15.592  0.1628 -0.6032 -0.6259
13572TIP3    H162131   3.884   4.941  15.504  0.9788  0.1763 -0.3193
13572TIP3    H262132   3.752   4.939  15.579  0.1936  1.0116 -1.6380
13573TIP3   OH262133   3.075   6.440   4.701 -0.7282 -0.1650  0.3026
13573TIP3    H162134   3.108   6.513   4.648 -3.4096  0.2777 -0.9172
13573TIP3    H262135   3.045   6.482   4.782 -0.8179 -0.1592  0.2661
13574TIP3   OH262136   6.516   0.897   5.509  0.3340  0.0437  0.0259
13574TIP3    H162137   6.612   0.889   5.507  0.4116  0.5212  1.2489
13574TIP3    H262138   6.499   0.976   5.458  0.6126  0.1587  0.1063
13575TIP3   OH262139   0.347   4.004   5.363  0.3523 -0.7266  0.1452
13575TIP3    H162140   0.430   4.043   5.391  0.8475 -0.8576 -1.0849
13575TIP3    H262141   0.300   3.985   5.444  1.1439  0.1823  0.8241
13576TIP3   OH262142   3.793   2.158   1.731 -0.3063  0.7204  0.6256
13576TIP3    H162143   3.729   2.185   1.666 -1.1692 -1.8573  0.2844
13576TIP3    H262144   3.803   2.063   1.717  0.8683  0.4140  3.0184
13577TIP3   OH262145   1.357   6.482   6.058 -0.0173  0.0779 -0.1003
13577TIP3    H162146   1.302   6.405   6.071  1.0488 -1.0214 -1.7095
13577TIP3    H262147   1.420   6.456   5.991  1.0928  1.9979  0.1034
13578TIP3   OH262148   3.780   0.990  12.967 -0.3180  0.8314  0.4433
13578TIP3    H162149   3.855   1.040  12.934 -0.5531  0.3287 -0.9323
13578TIP3    H262150   3.704   1.033  12.928 -0.6115  0.2153  0.3346
13579TIP3   OH262151   1.451   1.004  14.641  0.2207  0.6557 -0.1465
13579TIP3    H162152   1.433   1.025  14.733  0.0569  0.6362 -0.1737
13579TIP3    H262153   1.517   0.934  14.645 -2.1146 -1.6869  0.0462
13580TIP3   OH262154   6.285   1.387  11.752  0.5131 -0.1534 -0.0553
13580TIP3    H162155   6.301   1.388  11.658  2.4156 -1.3404  0.1896
13580TIP3    H262156   6.332   1.310  11.784 -0.9361 -0.3685  1.7505
13581TIP3   OH262157   4.788   5.059  14.225  0.1944 -0.0734  0.7036
13581TIP3    H162158   4.752   5.084  14.309 -1.4760  0.3949 -0.1081
13581TIP3    H262159   4.809   5.142  14.182  1.9406 -0.3256  0.9941
13582TIP3   OH262160   0.482   6.293   3.878  0.3093  0.1251 -0.2094
13582TIP3    H162161   0.546   6.252   3.820  0.1098  0.4789 -0.6854
13582TIP3    H262162   0.481   6.237   3.956  0.9059 -0.1024 -0.3591
13583TIP3   OH262163   1.011   0.013   3.343 -0.2424 -0.3083 -0.3505
13583TIP3    H162164   1.081  -0.011   3.282 -0.8562 -0.6735 -0.9221
13583TIP3    H262165   0.963  -0.068   3.358 -0.5361 -0.0638  0.0571
13584TIP3   OH262166   5.793   6.221   6.554 -0.0599  0.0189  0.4500
13584TIP3    H162167   5.881   6.183   6.558 -0.7300 -1.5707  1.2745
13584TIP3    H262168   5.801   6.296   6.495  1.4586 -1.1727 -0.9454
13585TIP3   OH262169   0.014   3.417   1.623 -0.0738 -0.4572 -0.2888
13585TIP3    H162170   0.068   3.472   1.566  1.3423 -1.9628 -0.5024
13585TIP3    H262171   0.053   3.428   1.710 -0.8186  0.1177 -0.0226
13586TIP3   OH262172   1.296   5.862   3.279 -0.2313 -0.2423  0.3334
13586TIP3    H162173   1.278   5.769   3.292  1.5278 -0.6401  0.2123
13586TIP3    H262174   1.337   5.890   3.361 -0.2511  0.2879  0.1635
13587TIP3   OH262175   5.835   1.526   0.093 -0.1983 -0.4043 -0.0487
13587TIP3    H162176   5.920   1.499   0.127  0.4643  0.8304 -0.6265
13587TIP3    H262177   5.798   1.447   0.055  1.1510 -0.7759 -0.6769
13588TIP3   OH262178   2.849   0.822  11.570 -0.3978  0.0035  0.2157
13588TIP3    H162179   2.756   0.843  11.569 -0.8062 -1.4773 -1.9776
13588TIP3    H262180   2.891   0.899  11.532 -0.8684  0.2836  0.2579
13589TIP3   OH262181   3.373   3.740   5.136  0.1692 -0.6154 -0.3179
13589TIP3    H162182   3.331   3.686   5.070  1.1357 -0.6214 -0.9491
13589TIP3    H262183   3.349   3.830   5.113 -1.0370 -0.7280  0.4457
13590TIP3   OH262184   3.293   2.645  13.104  0.0267  0.4944 -0.4478
13590TIP3    H162185   3.316   2.711  13.169  4.2082  1.8435 -2.8868
13590TIP3    H262186   3.229   2.687  13.047  0.1669  1.2170 -0.0764
13591TIP3   OH262187   1.359   3.499   4.990 -0.0204  0.0861  0.1457
13591TIP3    H162188   1.419   3.559   5.036 -0.6268  0.3584  0.5949
13591TIP3    H262189   1.284   3.553   4.967 -0.7016 -0.5468  0.7944
13592TIP3   OH262190   1.718   0.289   2.750 -0.3156  0.2480 -0.1296
13592TIP3    H162191   1.726   0.240   2.832  1.4323 -1.5553 -1.2788
13592TIP3    H262192   1.780   0.361   2.759 -0.4257  0.2920  0.2924
13593TIP3   OH262193   5.557   6.467   3.547  0.7732 -0.5301 -0.3425
13593TIP3    H162194   5.508   6.480   3.628  0.1263 -1.4488 -0.5875
13593TIP3    H262195   5.504   6.408   3.495  1.4135 -0.3244 -1.2495
13594TIP3   OH262196   2.322   1.766  13.107 -0.0809  0.2590 -0.4158
13594TIP3    H162197   2.260   1.766  13.180  0.2138 -0.4064 -0.1567
13594TIP3    H262198   2.348   1.675  13.098  0.8942  0.5326 -0.4913
13595TIP3   OH262199   5.312   5.703   4.248 -0.2784  0.1098 -0.0433
13595TIP3    H162200   5.232   5.754   4.231 -0.4865 -0.2224 -0.0651
13595TIP3    H262201   5.291   5.653   4.327 -0.1374 -0.0808 -0.1284
13596TIP3   OH262202   6.400   0.069  16.584  0.1208  0.1082  0.4211
13596TIP3    H162203   6.481   0.097  16.540 -1.6467  1.3945 -2.2863
13596TIP3    H262204   6.379  -0.015  16.545  0.7677 -0.8911  2.1087
13597TIP3   OH262205   1.870   4.198  13.326  0.1400 -0.2182  0.0768
13597TIP3    H162206   1.896   4.270  13.382 -1.0621  1.0280 -0.8874
13597TIP3    H262207   1.952   4.165  13.288  0.5500  3.2149 -2.4832
13598TIP3   OH262208   3.591   0.940   3.993  0.3318  0.1618 -0.5954
13598TIP3    H162209   3.517   0.950   4.053  1.2428 -0.0019  0.5976
13598TIP3    H262210   3.667   0.966   4.044  1.0435  0.9879 -2.0100
13599TIP3   OH262211   3.186   2.813  11.809  0.5005 -0.0965 -0.0083
13599TIP3    H162212   3.105   2.806  11.861  0.3283  1.2209 -0.0452
13599TIP3    H262213   3.255   2.785  11.869 -0.0180 -1.8180 -0.1615
13600TIP3   OH262214   5.267   5.038   0.782  0.1302 -0.3505  0.1835
13600TIP3    H162215   5.334   4.970   0.790 -0.7766 -1.5832 -2.0278
13600TIP3    H262216   5.302   5.097   0.715  0.9088  1.4928  2.0676
13601TIP3   OH262217   6.696   3.860   4.340  0.1533 -0.2644 -0.1774
13601TIP3    H162218   6.640   3.928   4.378  0.6060  0.4088 -0.6863
13601TIP3    H262219   6.703   3.884   4.247 -0.1830 -1.3615 -0.4984
13602TIP3   OH262220   5.151   2.013  11.485  0.3706  0.5166 -0.3524
13602TIP3    H162221   5.133   2.029  11.578  0.3204  1.0350 -0.4521
13602TIP3    H262222   5.070   2.039  11.440 -0.4579 -1.8180 -0.3587
13603TIP3   OH262223   5.540   3.844  12.035 -0.0017 -0.2329  0.1615
13603TIP3    H162224   5.620   3.894  12.022 -0.3246  0.3139  0.2159
13603TIP3    H262225   5.520   3.854  12.128 -0.9808  0.9824 -0.1407
13604TIP3   OH262226   6.404   0.955  13.344  0.2710  0.0022  0.3658
13604TIP3    H162227   6.354   1.028  13.382 -0.9903 -0.1329 -0.9225
13604TIP3    H262228   6.433   0.903  13.419 -3.1362 -0.9165  1.2226
13605TIP3   OH262229   6.561   4.277  11.051  0.1738  0.0058  0.1636
13605TIP3    H162230   6.609   4.198  11.029 -0.6965 -0.3956 -0.3535
13605TIP3    H262231   6.576   4.336  10.977  0.1983  0.0255  0.1845
13606TIP3   OH262232   3.482   2.353  15.211 -0.3279  0.1327 -0.3886
13606TIP3    H162233   3.508   2.442  15.233 -1.3433  0.3328  0.0404
13606TIP3    H262234   3.559   2.300  15.229 -0.4420  0.5834  1.6863
13607TIP3   OH262235   5.775   4.660   5.024  0.0602  0.0845 -0.3795
13607TIP3    H162236   5.699   4.657   5.082  0.1216 -0.4654 -0.3248
13607TIP3    H262237   5.837   4.719   5.068 -0.8462  1.6012 -1.0573
13608TIP3   OH262238   3.089   0.807  15.527  0.5428  0.4770 -0.0675
13608TIP3    H162239   3.003   0.766  15.520  1.0460 -0.4388 -0.9545
13608TIP3    H262240   3.087   0.850  15.613 -1.0458  1.0716 -0.3643
13609TIP3   OH262241   4.961   4.141  15.135  0.0841  0.8580  0.5166
13609TIP3    H162242   5.029   4.202  15.165  0.5601 -0.0866  1.4026
13609TIP3    H262243   4.970   4.141  15.039  0.6178  1.5444  0.5550
13610TIP3   OH262244   2.171   1.632  11.720 -0.0204  0.2899  0.2017
13610TIP3    H162245   2.219   1.687  11.781  1.1803 -0.4145 -0.0752
13610TIP3    H262246   2.208   1.654  11.634 -0.0029 -0.4521  0.0145
13611TIP3   OH262247   3.301   3.924  12.383  0.1294  0.0167 -0.5791
13611TIP3    H162248   3.317   4.012  12.348 -2.7623  1.3237  1.0854
13611TIP3    H262249   3.370   3.912  12.448  0.2348  1.3153 -0.4232
13612TIP3   OH262250   1.273   5.237  12.816 -0.0318  0.0164 -0.5811
13612TIP3    H162251   1.265   5.304  12.884  0.9964  0.5423 -0.9628
13612TIP3    H262252   1.224   5.272  12.742 -1.2495 -0.6083 -0.1027
13613TIP3   OH262253   3.578   4.565   5.396 -0.9747 -0.0974 -0.4157
13613TIP3    H162254   3.512   4.630   5.372 -1.1265 -0.1994 -0.2775
13613TIP3    H262255   3.536   4.513   5.465 -1.9313 -2.0706 -2.3571
13614TIP3   OH262256   1.105   0.705   1.002 -0.1474 -0.0333  0.1085
13614TIP3    H162257   1.065   0.627   0.964 -0.5414  0.4497 -0.4940
13614TIP3    H262258   1.163   0.737   0.933  0.2280  0.0459  0.4625
13615TIP3   OH262259   0.820   5.291   0.573 -0.3200 -0.0202 -0.3833
13615TIP3    H162260   0.831   5.250   0.659 -1.4006  2.8087  1.2460
13615TIP3    H262261   0.803   5.219   0.514  3.7812 -2.5035  1.0196
13616TIP3   OH262262   0.059   1.777  14.366  0.1688  0.1257 -0.1307
13616TIP3    H162263  -0.015   1.828  14.335 -0.5053  0.5559  2.0479
13616TIP3    H262264   0.096   1.737  14.286 -0.6993  2.0962 -1.5932
13617TIP3   OH262265   2.083   1.264  15.658 -0.0641 -0.2700 -0.1893
13617TIP3    H162266   2.111   1.257  15.567  1.7776 -2.1000  0.4524
13617TIP3    H262267   2.134   1.337  15.693 -0.2856  0.0084 -0.4396
13618TIP3   OH262268   4.273   6.556   4.152  0.1277 -0.0662  0.1990
13618TIP3    H162269   4.300   6.521   4.067  2.0413  0.3012  0.6160
13618TIP3    H262270   4.311   6.644   4.154 -0.2128  0.0652  1.2916
13619TIP3   OH262271   2.102   4.076  13.205  0.1931 -0.0960  0.0767
13619TIP3    H162272   2.092   3.997  13.153  1.5393 -1.2814  1.5226
13619TIP3    H262273   2.187   4.066  13.248  0.7832  2.5149 -0.2932
13620TIP3   OH262274   2.549   4.602   1.387  0.1820 -0.2209  0.4649
13620TIP3    H162275   2.623   4.653   1.419  0.3860 -1.0336  1.3492
13620TIP3    H262276   2.572   4.511   1.408 -1.0409 -0.4927  0.7171
13621TIP3   OH262277   6.136   2.908  11.756  0.1479  0.4686 -0.1826
13621TIP3    H162278   6.162   2.832  11.807  0.0957 -0.2879 -1.2561
13621TIP3    H262279   6.046   2.890  11.728  0.2738  0.7235 -0.7846
13622TIP3   OH262280   0.705   3.870  13.117 -0.1439  0.6100  0.7041
13622TIP3    H162281   0.784   3.921  13.101  0.3350 -0.5595 -0.8236
13622TIP3    H262282   0.731   3.779  13.105 -1.3292  0.0605  1.9165
13623TIP3   OH262283   1.580   6.342   2.162 -0.0149  1.3034  0.3797
13623TIP3    H162284   1.604   6.313   2.074 -0.6314  3.0165 -0.3907
13623TIP3    H262285   1.658   6.388   2.194 -0.2434  1.8419  0.1788
13624TIP3   OH262286   1.616   1.994  15.096  0.4294  0.4348 -0.5949
13624TIP3    H162287   1.589   1.996  15.004 -0.0324 -0.3457 -0.4849
13624TIP3    H262288   1.606   2.085  15.125 -1.1726  0.3734 -0.8372
13625TIP3   OH262289   1.999   3.304   4.346  0.1777 -0.3787 -0.6694
13625TIP3    H162290   1.975   3.315   4.254  0.1647  2.7856 -0.3771
13625TIP3    H262291   2.093   3.319   4.348  0.7373 -3.3302 -0.4775
13626TIP3   OH262292   0.147   0.887   3.031 -0.7232 -0.0184 -0.1893
13626TIP3    H162293   0.171   0.959   3.089  2.8959 -0.1239 -1.3287
13626TIP3    H262294   0.111   0.820   3.088  0.1644  0.9342  1.5491
13627TIP3   OH262295   4.945   6.534  11.953 -0.4190  0.1620 -0.0967
13627TIP3    H162296   4.922   6.467  12.017  0.1778 -0.3158 -0.3701
13627TIP3    H262297   5.015   6.494  11.901 -0.1656  0.9366 -0.3661
13628TIP3   OH262298   2.487   1.591   2.637  0.3816  0.5730  0.3548
13628TIP3    H162299   2.425   1.664   2.630 -1.2311 -0.6374  1.3398
13628TIP3    H262300   2.433   1.516   2.660  2.0898 -0.8130  0.0321
13629TIP3   OH262301   4.739   3.418   4.762  0.3991  0.0395 -0.2413
13629TIP3    H162302   4.745   3.487   4.827  2.1358 -0.0559 -0.2327
13629TIP3    H262303   4.734   3.337   4.813 -0.2361  0.0691 -0.2484
13630TIP3   OH262304   6.383   5.678   5.779 -0.2725 -0.0927  0.3111
13630TIP3    H162305   6.314   5.628   5.823 -0.7762 -0.4082 -0.8110
13630TIP3    H262306   6.464   5.634   5.804 -0.6229 -0.7805  0.2450
13631TIP3   OH262307   0.225   6.611   1.289 -0.1469 -0.1855  0.5616
13631TIP3    H162308   0.206   6.527   1.246  1.7051 -0.7296  0.7366
13631TIP3    H262309   0.138   6.650   1.304 -0.9819 -1.4321 -0.7526
13632TIP3   OH262310   3.638   5.747  17.452  0.2312 -0.2579  0.4652
13632TIP3    H162311   3.713   5.718  17.399 -0.9548 -0.5863 -1.1011
13632TIP3    H262312   3.621   5.673  17.511  0.4361 -0.6565  0.0334
13633TIP3   OH262313   4.627   4.066   1.758 -1.0848  0.2524 -0.8858
13633TIP3    H162314   4.606   3.990   1.704 -2.3032 -0.5825  0.6714
13633TIP3    H262315   4.556   4.071   1.822  0.7310  0.6211  1.2366
13634TIP3   OH262316   1.631   6.579   4.258 -0.1702  0.1985  0.0028
13634TIP3    H162317   1.637   6.495   4.212  1.2763  0.0107  0.5039
13634TIP3    H262318   1.666   6.642   4.195  0.7262  0.1073  0.3971
13635TIP3   OH262319   4.334   0.793  10.843 -0.1910  0.1315 -1.1363
13635TIP3    H162320   4.286   0.862  10.889 -0.3112  0.6889 -2.0785
13635TIP3    H262321   4.423   0.827  10.834  0.5242 -1.0320  0.8883
13636TIP3   OH262322   1.413   1.570   4.592 -0.0698  0.3042  0.1598
13636TIP3    H162323   1.409   1.663   4.569 -2.5075  0.3129  0.3996
13636TIP3    H262324   1.336   1.531   4.551  1.6500 -1.9589 -1.1638
13637TIP3   OH262325   1.174   6.143   5.648  0.7594 -0.5749 -0.2307
13637TIP3    H162326   1.156   6.211   5.714 -3.1802 -1.8460  0.3094
13637TIP3    H262327   1.153   6.186   5.564 -0.0764 -0.5992 -0.0463
13638TIP3   OH262328   3.478   0.888  16.996 -0.4276  0.0199  0.1096
13638TIP3    H162329   3.531   0.968  16.996 -1.6946  0.8969  0.6527
13638TIP3    H262330   3.459   0.872  17.089 -1.5481  0.0367 -0.1112
13639TIP3   OH262331   4.071   2.014  13.015 -0.0153 -0.6478 -0.0749
13639TIP3    H162332   4.104   2.032  12.927  0.1800  1.3278  0.3575
13639TIP3    H262333   4.136   1.955  13.054  0.7640 -0.2015 -0.6811
13640TIP3   OH262334   4.246   5.920   5.418  0.0230 -0.5213  0.4517
13640TIP3    H162335   4.309   5.985   5.449 -1.6189  1.0960  0.4999
13640TIP3    H262336   4.276   5.897   5.330 -1.4121  3.2423 -1.2081
13641TIP3   OH262337   4.572   6.237  13.327 -0.0608  0.3044  0.3027
13641TIP3    H162338   4.664   6.215  13.311  0.1463  0.8528  0.6766
13641TIP3    H262339   4.553   6.200  13.413  0.6320  2.4647  1.4641
13642TIP3   OH262340   2.938   3.443  14.582  0.2681 -0.3100 -0.4436
13642TIP3    H162341   2.893   3.482  14.657  0.2087 -1.6837  0.2574
13642TIP3    H262342   2.883   3.467  14.507 -0.3608  0.0102  0.1036
13643TIP3   OH262343   0.103   0.720  13.929  0.0520 -0.1450  0.5500
13643TIP3    H162344   0.163   0.739  14.002  1.0075 -2.4723  0.4562
13643TIP3    H262345   0.145   0.648  13.882 -1.2657  0.3352 -1.4699
13644TIP3   OH262346   0.114   0.524  11.026  0.2162  0.0820 -0.2769
13644TIP3    H162347   0.199   0.485  11.048  0.0665  0.2886  0.7476
13644TIP3    H262348   0.119   0.612  11.063  0.5960  1.1214 -2.6649
13645TIP3   OH262349   0.993   3.010   5.007 -0.4107 -0.1169 -0.1769
13645TIP3    H162350   1.021   3.100   4.989 -0.5376 -0.1291 -0.4416
13645TIP3    H262351   0.941   3.016   5.087 -2.6088  0.4712 -1.5391
13646TIP3   OH262352   3.486   6.189   4.481  0.3743  0.5963 -0.2279
13646TIP3    H162353   3.566   6.231   4.513  1.6532  0.2471 -2.6761
13646TIP3    H262354   3.436   6.259   4.440 -0.9452  0.9281  1.8332
13647TIP3   OH262355   6.270   2.694  16.599  0.6693  0.2303  0.3735
13647TIP3    H162356   6.237   2.782  16.583  0.8233  0.1949 -0.1397
13647TIP3    H262357   6.286   2.692  16.694 -1.0225  0.1628  0.6797
13648TIP3   OH262358   1.291   0.366   6.253  0.1421  0.2862  0.1330
13648TIP3    H162359   1.198   0.346   6.251 -0.2691  1.9756 -2.3588
13648TIP3    H262360   1.329   0.312   6.183  1.0694 -0.3663  1.1017
13649TIP3   OH262361   0.563   2.439  11.841 -0.9912 -0.3514 -0.4003
13649TIP3    H162362   0.518   2.430  11.925 -4.1642  1.4855 -1.7597
13649TIP3    H262363   0.557   2.352  11.802 -0.4076 -0.9484  0.7522
13650TIP3   OH262364   0.566   1.966  12.814  0.1791  0.2492  0.1276
13650TIP3    H162365   0.540   1.949  12.723 -0.4238 -0.3529  0.4022
13650TIP3    H262366   0.560   2.061  12.823  0.1291  0.3025 -0.4304
13651TIP3   OH262367   0.227   3.605  12.519  0.2938  0.4131  0.5444
13651TIP3    H162368   0.224   3.611  12.423  0.6270 -0.4262  0.4762
13651TIP3    H262369   0.141   3.572  12.544  1.3933 -3.1450  0.2035
13652TIP3   OH262370   4.072   1.860   0.874 -0.5144 -0.1831 -0.1596
13652TIP3    H162371   4.018   1.807   0.815 -0.8264 -0.4746  0.3757
13652TIP3    H262372   4.111   1.796   0.933  0.1268  0.0642 -0.3058
13653TIP3   OH262373   1.760   6.386   1.488  0.7322  0.0012  0.0104
13653TIP3    H162374   1.695   6.394   1.558  0.0108  2.9507 -0.8418
13653TIP3    H262375   1.840   6.423   1.524  0.9081 -0.2736 -0.0959
13654TIP3   OH262376   3.393   1.652   5.564 -0.0916 -0.5032  0.0922
13654TIP3    H162377   3.446   1.577   5.590 -0.9910 -1.9438 -1.9121
13654TIP3    H262378   3.455   1.716   5.531  0.6498 -0.6183  1.2332
13655TIP3   OH262379   2.720   2.269  13.536 -0.4981  0.1584 -0.3966
13655TIP3    H162380   2.733   2.364  13.533  0.2915  0.0504 -0.5961
13655TIP3    H262381   2.725   2.241  13.444  0.1337 -0.1735 -0.2716
13656TIP3   OH262382   3.167   3.290  10.727  0.1039  0.0066  0.5172
13656TIP3    H162383   3.133   3.229  10.792  0.5421 -0.8415 -0.0177
13656TIP3    H262384   3.246   3.326  10.766  1.2248 -1.6544 -0.1036
13657TIP3   OH262385   0.979   6.229  13.766 -0.1407 -0.5503  0.3188
13657TIP3    H162386   0.929   6.186  13.696 -2.6832  0.7799  1.1655
13657TIP3    H262387   1.014   6.157  13.818  1.4227 -1.5696 -1.9800
13658TIP3   OH262388   2.326   6.275   1.079 -0.7471 -0.0632 -0.0139
13658TIP3    H162389   2.263   6.346   1.065 -3.2178 -2.2398 -0.6086
13658TIP3    H262390   2.328   6.264   1.175  0.9030  1.7436  0.2364
13659TIP3   OH262391   0.940   6.616  17.151  0.0251 -0.0357  0.1050
13659TIP3    H162392   0.905   6.581  17.069 -1.0311  0.0707  0.5005
13659TIP3    H262393   0.954   6.709  17.133 -1.8699  0.3764  0.5485
13660TIP3   OH262394   6.008   2.495   6.285  0.0793 -0.3135  0.1528
13660TIP3    H162395   5.987   2.431   6.217  2.2619 -0.5009 -0.4017
13660TIP3    H262396   6.045   2.569   6.237 -0.6161  0.5755  0.9614
13661TIP3   OH262397   0.904   5.064  15.747 -0.3825 -0.1008  0.2206
13661TIP3    H162398   0.921   4.973  15.723 -1.5745 -0.3152  0.1172
13661TIP3    H262399   0.810   5.066  15.766 -0.3133  1.0519  0.4797
13662TIP3   OH262400   2.894   2.251  12.050 -0.2741 -0.4012 -0.4329
13662TIP3    H162401   2.818   2.294  12.089 -0.0076  0.7442 -1.1319
13662TIP3    H262402   2.920   2.309  11.978  1.7707 -0.3190  0.3157
13663TIP3   OH262403   4.207   0.820  17.416 -0.1437 -0.3925 -0.4088
13663TIP3    H162404   4.218   0.738  17.368 -1.7625 -0.0709 -1.4197
13663TIP3    H262405   4.116   0.817  17.446 -0.3369  1.1894 -0.7711
13664TIP3   OH262406   4.560   5.531   5.641  0.2975 -0.3746 -0.0825
13664TIP3    H162407   4.542   5.546   5.734 -1.7098 -2.4784 -0.0367
13664TIP3    H262408   4.548   5.617   5.601  0.6397  0.4597  1.5072
13665TIP3   OH262409   6.399   1.141   2.344 -0.2128 -0.4046  0.1581
13665TIP3    H162410   6.400   1.110   2.254 -0.5991 -0.8628  0.3046
13665TIP3    H262411   6.350   1.223   2.341 -1.2740 -1.0127  0.1224
13666TIP3   OH262412   2.582   6.185   4.759 -0.1365  0.4421  0.0992
13666TIP3    H162413   2.509   6.139   4.717  0.0478 -0.1564  0.4190
13666TIP3    H262414   2.636   6.115   4.796 -0.7149  0.9448  2.0458
13667TIP3   OH262415   0.337   4.514   2.920 -0.1297  0.7190 -0.1600
13667TIP3    H162416   0.413   4.560   2.955 -0.1728  0.1344  0.7230
13667TIP3    H262417   0.368   4.475   2.838  0.7631 -0.1454  0.5602
13668TIP3   OH262418   6.490   0.603   4.123 -0.2847 -0.2205  0.3641
13668TIP3    H162419   6.502   0.509   4.114  0.8001  0.0085 -0.9190
13668TIP3    H262420   6.439   0.614   4.203 -2.6450 -2.0363 -0.7845
13669TIP3   OH262421   5.373   4.336  13.577  0.3209 -0.1076  0.2107
13669TIP3    H162422   5.449   4.345  13.636  1.0714  0.0280 -0.7451
13669TIP3    H262423   5.374   4.244  13.551  1.0204  0.1923 -0.8977
13670TIP3   OH262424   4.749   2.935  17.045 -0.0675 -0.1448  0.3933
13670TIP3    H162425   4.737   2.964  17.136 -0.1432  2.1821 -0.3037
13670TIP3    H262426   4.825   2.984  17.014 -1.1044  0.4550 -1.3239
13671TIP3   OH262427   3.963   3.304   6.242 -0.3971 -0.0529  0.0274
13671TIP3    H162428   3.892   3.312   6.178  0.9187  0.6669 -1.3901
13671TIP3    H262429   3.920   3.316   6.327 -2.0385 -0.1331 -0.7564
13672TIP3   OH262430   0.057   2.231  14.689 -0.3529  0.2727 -0.3175
13672TIP3    H162431  -0.028   2.239  14.733 -0.3646  0.1614 -0.3189
13672TIP3    H262432   0.035   2.210  14.598 -0.3918  2.5865 -0.9001
13673TIP3   OH262433   0.644   3.435  14.061 -0.0089 -0.0561  0.6260
13673TIP3    H162434   0.700   3.464  13.988  0.8494  0.7793  1.5917
13673TIP3    H262435   0.695   3.366  14.104  0.2725  0.6748  1.4801
13674TIP3   OH262436   6.222   1.496  17.029  0.1415 -0.0508 -0.3165
13674TIP3    H162437   6.184   1.539  16.952  1.6215 -1.1050 -1.6868
13674TIP3    H262438   6.217   1.403  17.010  0.3553 -0.3456  0.9738
13675TIP3   OH262439   2.644   0.830  14.804 -0.7906 -0.5535  0.2972
13675TIP3    H162440   2.727   0.872  14.827 -1.1298 -0.8695  2.2802
13675TIP3    H262441   2.591   0.901  14.767  0.8020 -0.6405 -2.4377
13676TIP3   OH262442   6.459   5.176  11.801  0.1710  0.0138 -0.0825
13676TIP3    H162443   6.547   5.214  11.804  0.2792 -0.2468  0.1194
13676TIP3    H262444   6.470   5.087  11.836 -0.2458  0.1271  0.3566
13677TIP3   OH262445   3.019   0.134   1.673 -0.1082 -0.3161 -0.7997
13677TIP3    H162446   3.065   0.072   1.616 -0.1499 -0.8630 -0.2536
13677TIP3    H262447   2.974   0.078   1.737 -0.5066  0.2660 -0.5695
13678TIP3   OH262448   5.870   0.253  15.452 -0.1068  0.0797  0.0436
13678TIP3    H162449   5.904   0.212  15.373  0.0604  2.7362 -1.4006
13678TIP3    H262450   5.775   0.240  15.448 -0.0638 -0.0939 -0.4408
13679TIP3   OH262451   5.269   4.982  15.741  0.1380 -0.5702 -0.0550
13679TIP3    H162452   5.273   4.922  15.666  0.3409 -0.4819 -0.1142
13679TIP3    H262453   5.214   5.055  15.710  0.3365 -0.4669 -0.1651
13680TIP3   OH262454   4.193   5.065  16.918 -0.1479 -0.3978  0.5387
13680TIP3    H162455   4.273   5.057  16.866 -1.1368  1.3136 -1.4224
13680TIP3    H262456   4.203   5.148  16.965 -1.4226  0.7455 -1.0991
13681TIP3   OH262457   3.485   4.737  17.348 -0.1809  0.5266  0.2563
13681TIP3    H162458   3.410   4.715  17.292  1.0463  0.9549 -1.6723
13681TIP3    H262459   3.514   4.653  17.383 -0.0933  0.0212 -0.9733
13682TIP3   OH262460   1.068   1.936   2.935  0.0930  0.2549 -0.3603
13682TIP3    H162461   1.078   1.849   2.896 -1.3504 -0.7681  1.4013
13682TIP3    H262462   1.130   1.937   3.008  0.3187  0.8296 -0.5542
13683TIP3   OH262463   6.489   2.206   6.469 -0.2508  0.7137  0.4240
13683TIP3    H162464   6.458   2.132   6.521  0.2756  0.4313  0.3505
13683TIP3    H262465   6.563   2.241   6.519  0.9748 -0.2459 -0.6256
13684TIP3   OH262466   0.340   3.176   2.562  0.0489 -0.2690  0.2801
13684TIP3    H162467   0.395   3.099   2.547  0.0228 -0.2915  0.3022
13684TIP3    H262468   0.360   3.203   2.651 -0.8579 -0.9778  0.7175
13685TIP3   OH262469   2.725   5.954  14.604 -0.3852 -0.2117  0.0367
13685TIP3    H162470   2.805   6.005  14.616  0.1090 -1.1455  0.8593
13685TIP3    H262471   2.676   6.002  14.537  0.0522  1.3407  0.7811
13686TIP3   OH262472   5.837   4.240   3.965  0.4728  0.5264  0.0741
13686TIP3    H162473   5.876   4.156   3.989 -1.1535 -0.2834  0.0194
13686TIP3    H262474   5.809   4.229   3.874  0.8875  1.3994 -0.1783
13687TIP3   OH262475   1.560   5.211  13.014  0.2218 -0.0400 -0.1204
13687TIP3    H162476   1.502   5.288  13.009 -0.4126 -0.5070 -0.0981
13687TIP3    H262477   1.621   5.223  12.941 -0.5822 -0.0801 -0.8150
13688TIP3   OH262478   4.545   0.825  15.766 -0.0031  0.4293  0.9013
13688TIP3    H162479   4.475   0.810  15.830 -1.8671 -1.7458 -1.4422
13688TIP3    H262480   4.602   0.749  15.774 -0.3781  0.0223 -0.0938
13689TIP3   OH262481   6.267   4.120  15.380 -0.0441  0.8121  0.2114
13689TIP3    H162482   6.231   4.205  15.357  0.1890  0.7829 -0.2839
13689TIP3    H262483   6.197   4.058  15.360  0.0257  0.8242 -0.0859
13690TIP3   OH262484   1.138   6.111  16.887  0.3169 -0.2543 -0.2102
13690TIP3    H162485   1.118   6.204  16.876 -0.2001 -0.2207  0.8653
13690TIP3    H262486   1.231   6.109  16.908 -0.3566  0.4142  3.4984
13691TIP3   OH262487   0.800   0.643   6.402  0.0858  0.0838  0.2148
13691TIP3    H162488   0.816   0.701   6.328 -0.8271 -1.5657 -1.3973
13691TIP3    H262489   0.886   0.631   6.443  0.4538  1.7270 -0.0060
13692TIP3   OH262490   6.386   3.576  16.220 -0.2688 -0.4585 -0.3452
13692TIP3    H162491   6.359   3.514  16.152 -0.5919 -0.5659 -0.1182
13692TIP3    H262492   6.312   3.579  16.280  0.2972 -0.8931  0.3829
13693TIP3   OH262493   5.085   0.644   5.951  0.0217  0.0240  0.1654
13693TIP3    H162494   5.039   0.649   5.867 -1.1230  3.2935  0.8315
13693TIP3    H262495   5.175   0.669   5.930  0.3180 -1.4305 -0.3855
13694TIP3   OH262496   5.663   5.970  14.150 -0.3058 -0.0612  0.2034
13694TIP3    H162497   5.748   5.935  14.175 -0.5435 -0.5920  0.2785
13694TIP3    H262498   5.675   6.004  14.061 -0.2713 -1.0462 -0.1797
13695TIP3   OH262499   6.625   1.105   0.631 -0.8876 -0.2313  0.1468
13695TIP3    H162500   6.535   1.093   0.600 -1.0755  0.6532  0.3225
13695TIP3    H262501   6.676   1.118   0.552 -0.8548 -1.0597  0.0248
13696TIP3   OH262502   0.829   1.268  17.114 -0.5865  0.1935 -0.0933
13696TIP3    H162503   0.869   1.205  17.053 -1.3449 -0.3252 -0.0701
13696TIP3    H262504   0.896   1.336  17.125  0.7525 -1.2231  0.8593
13697TIP3   OH262505   4.494   1.678   5.816 -0.2002 -0.1884 -0.1530
13697TIP3    H162506   4.482   1.725   5.898 -0.5839  2.1042 -1.4459
13697TIP3    H262507   4.425   1.612   5.815 -0.9386  0.5588  0.8163
13698TIP3   OH262508   2.443   1.742   3.921 -0.1009  0.4433 -0.1048
13698TIP3    H162509   2.372   1.719   3.981 -1.1527 -0.5524 -1.6491
13698TIP3    H262510   2.497   1.803   3.970 -1.4153  0.3756  1.5169
13699TIP3   OH262511   4.424   6.238   1.340  0.7698 -0.2835  0.3638
13699TIP3    H162512   4.438   6.227   1.434 -1.9767 -0.4213  0.8332
13699TIP3    H262513   4.360   6.309   1.333  0.8171 -0.3751 -1.3941
13700TIP3   OH262514   3.091   0.325   3.485  0.0945 -0.2428  0.1280
13700TIP3    H162515   3.048   0.377   3.553  0.4539 -0.1079  0.2564
13700TIP3    H262516   3.184   0.333   3.505  0.2681  0.5853 -0.9241
13701TIP3   OH262517   2.274   3.545  13.855  0.6989 -0.0014 -0.2261
13701TIP3    H162518   2.282   3.476  13.920  2.1235  0.7250  0.4091
13701TIP3    H262519   2.215   3.609  13.895 -1.6529 -1.3471 -1.3244
13702TIP3   OH262520   4.994   5.583  17.385  0.4224  0.0436  0.2050
13702TIP3    H162521   4.916   5.632  17.361  0.3684 -0.1873 -0.0831
13702TIP3    H262522   4.964   5.493  17.399  0.6706 -0.0924 -0.1226
13703TIP3   OH262523   0.536   6.699   4.515 -0.1840  0.1285 -0.0419
13703TIP3    H162524   0.448   6.662   4.525  0.9452 -2.6450  0.3233
13703TIP3    H262525   0.528   6.756   4.438 -2.1833 -0.3955 -0.2931
13704TIP3   OH262526   2.436   5.856   2.745  0.0728 -0.4585 -0.5729
13704TIP3    H162527   2.498   5.809   2.801 -0.7587  1.5758  2.3417
13704TIP3    H262528   2.354   5.857   2.796 -0.3800  2.6438 -1.1414
13705TIP3   OH262529   2.344   1.031   5.813 -0.1486  0.2473  0.5249
13705TIP3    H162530   2.297   0.958   5.772  0.1766 -0.9631  2.2086
13705TIP3    H262531   2.420   1.045   5.756 -1.3685  0.8388 -1.0633
13706TIP3   OH262532   1.681   0.789   1.520 -0.0298  0.1812  0.1145
13706TIP3    H162533   1.642   0.789   1.433  3.9745  2.7225 -1.9627
13706TIP3    H262534   1.637   0.860   1.566 -0.4338  0.5082 -0.7549
13707TIP3   OH262535   3.316   0.297  17.443 -0.2316 -0.3523  0.6372
13707TIP3    H162536   3.316   0.387  17.475 -1.5051 -0.4189  0.8711
13707TIP3    H262537   3.407   0.267  17.453 -0.0979  0.4263  1.8873
13708TIP3   OH262538   3.869   5.592   0.590 -0.4011 -0.1649 -0.1788
13708TIP3    H162539   3.964   5.605   0.583 -0.4109 -0.2099 -0.3748
13708TIP3    H262540   3.833   5.631   0.511 -0.4515 -1.1599 -0.6664
13709TIP3   OH262541   6.217   5.576  13.291 -0.1086  0.2060  0.0963
13709TIP3    H162542   6.269   5.522  13.351  0.0404  0.7837  0.5000
13709TIP3    H262543   6.178   5.643  13.347 -1.9677 -0.6790 -0.0483
13710TIP3   OH262544   4.573   0.904  14.707  0.1189 -0.8542  0.7908
13710TIP3    H162545   4.590   0.997  14.688 -1.7286 -1.0344 -2.5858
13710TIP3    H262546   4.658   0.869  14.733  1.0267  1.5973  1.4270
13711TIP3   OH262547   6.343   1.810   4.321 -0.3868 -0.4475  0.2876
13711TIP3    H162548   6.288   1.754   4.265  2.0650 -2.5643 -0.1884
13711TIP3    H262549   6.432   1.790   4.295  0.7477  1.1176  2.6113
13712TIP3   OH262550   3.304   4.397  13.192 -0.1360  0.2588  0.4637
13712TIP3    H162551   3.376   4.447  13.154 -0.5771 -0.7225 -1.8359
13712TIP3    H262552   3.305   4.419  13.285  2.6485  0.8404  0.3593
13713TIP3   OH262553   2.559   5.434   2.090  0.1362  0.0356 -0.6276
13713TIP3    H162554   2.526   5.423   2.179  0.3177  0.5011 -0.5029
13713TIP3    H262555   2.654   5.426   2.099  0.2487  1.2640 -0.5955
13714TIP3   OH262556   2.650   6.409   3.745 -0.2778  0.3077  1.1073
13714TIP3    H162557   2.648   6.370   3.832  2.4229 -3.2090 -0.1497
13714TIP3    H262558   2.742   6.434   3.732  0.0394 -1.7793 -1.5721
13715TIP3   OH262559   4.065   3.735   2.213 -0.4967 -0.1901 -0.2551
13715TIP3    H162560   4.100   3.733   2.124 -0.0502  2.3943 -0.2316
13715TIP3    H262561   4.143   3.735   2.269 -0.7425 -0.8680  0.0903
13716TIP3   OH262562   1.259   0.629  13.524  0.0237 -0.4943 -0.1814
13716TIP3    H162563   1.240   0.721  13.503  2.4370  0.6483  1.9864
13716TIP3    H262564   1.204   0.611  13.601  0.5178 -0.3696  0.2122
13717TIP3   OH262565   3.815   3.036   2.135  0.1723 -0.4498  0.3233
13717TIP3    H162566   3.876   2.961   2.131  0.5185 -0.1934  0.6781
13717TIP3    H262567   3.789   3.050   2.044 -0.1848 -1.2379  0.3006
13718TIP3   OH262568   5.860   2.250  12.464  0.4406  0.2878  0.1589
13718TIP3    H162569   5.902   2.327  12.425  1.7551 -2.2252 -4.0060
13718TIP3    H262570   5.774   2.246  12.422  0.5360 -0.6591  0.0287
13719TIP3   OH262571   1.778   3.319  13.179  0.0376  0.4870 -0.0020
13719TIP3    H162572   1.787   3.409  13.146 -1.0553  0.8886  0.7155
13719TIP3    H262573   1.860   3.276  13.155  0.5615  1.6640 -0.4095
13720TIP3   OH262574   1.229   0.269   0.440 -0.0030 -0.1451  0.2332
13720TIP3    H162575   1.279   0.216   0.503 -0.2244 -0.5676  0.0564
13720TIP3    H262576   1.279   0.264   0.359 -0.7597 -1.3062 -0.2011
13721TIP3   OH262577   5.974   2.503   0.865  0.0934  0.4122 -1.0308
13721TIP3    H162578   5.965   2.502   0.770  1.0039 -0.3329 -1.1317
13721TIP3    H262579   6.002   2.414   0.887 -1.7569  0.0698  0.1363
13722TIP3   OH262580   6.695   6.492   4.852 -0.2953  0.8142 -0.7288
13722TIP3    H162581   6.669   6.406   4.886  1.1668  0.6560  0.0281
13722TIP3    H262582   6.627   6.512   4.787 -3.2945  1.1720  2.2249
13723TIP3   OH262583   5.212   3.634  14.497  0.3692 -0.0343 -0.6742
13723TIP3    H162584   5.237   3.574  14.567  1.0885  0.0052 -0.8881
13723TIP3    H262585   5.294   3.677  14.471 -0.0532  0.7038 -0.8378
13724TIP3   OH262586   0.602   3.439   3.135  0.3461 -0.2029  0.4767
13724TIP3    H162587   0.525   3.440   3.193  1.7376  1.8086  2.4288
13724TIP3    H262588   0.569   3.402   3.053 -2.1188 -1.6610  1.9867
13725TIP3   OH262589   6.195   6.489   6.425 -0.0779 -0.3123 -0.4297
13725TIP3    H162590   6.265   6.429   6.398  0.6871 -0.0045  0.7971
13725TIP3    H262591   6.152   6.445   6.498 -0.5506 -0.0726 -0.5614
13726TIP3   OH262592   4.669   3.680  12.100  0.2535  0.0062  0.5322
13726TIP3    H162593   4.646   3.725  12.181  1.8035  1.3209  0.2948
13726TIP3    H262594   4.649   3.744  12.031  0.1173 -0.6241 -0.0210
13727TIP3   OH262595   6.051   5.810  17.098 -0.3912  0.2153  0.1175
13727TIP3    H162596   6.110   5.881  17.123  0.9259 -0.9445  0.4766
13727TIP3    H262597   5.990   5.849  17.036  1.9863  1.0634 -1.8368
13728TIP3   OH262598   3.178   0.720  13.791 -0.0959 -0.0745  0.7480
13728TIP3    H162599   3.263   0.731  13.750 -0.9509 -0.8762 -1.3978
13728TIP3    H262600   3.192   0.653  13.859  0.6736 -1.5169 -0.7609
13729TIP3   OH262601   1.703   1.149   5.549  0.7791 -0.3674  0.3754
13729TIP3    H162602   1.644   1.135   5.475  0.3162 -0.6893  0.7959
13729TIP3    H262603   1.791   1.142   5.511  0.5525  0.1474 -0.2593
13730TIP3   OH262604   1.346   4.748   3.991 -0.7316 -0.4107 -0.5749
13730TIP3    H162605   1.386   4.830   4.020 -2.0406 -0.1936  0.7401
13730TIP3    H262606   1.387   4.730   3.907 -1.6883  2.5766 -1.8340
13731TIP3   OH262607   6.465   2.811  15.746 -0.7704  0.2697  0.0887
13731TIP3    H162608   6.410   2.733  15.744  1.2763 -1.3072  0.8440
13731TIP3    H262609   6.529   2.797  15.676 -0.6612  1.5093 -0.0809
13732TIP3   OH262610   3.279   6.269  13.169 -0.0731  0.3572 -0.2699
13732TIP3    H162611   3.194   6.258  13.127 -1.4028 -0.4839  2.3785
13732TIP3    H262612   3.287   6.193  13.227  2.3105  0.6530 -0.1142
13733TIP3   OH262613   4.979   2.911   6.205 -0.4539  0.1416  0.2986
13733TIP3    H162614   4.918   2.906   6.279 -0.0826 -0.0450  0.5967
13733TIP3    H262615   5.056   2.862   6.235 -0.4775 -0.3180 -0.3865
13734TIP3   OH262616   1.839   3.347  17.226 -0.0832  0.4355 -0.0204
13734TIP3    H162617   1.779   3.276  17.206  0.0618 -0.1636  1.5227
13734TIP3    H262618   1.869   3.378  17.141 -2.3377  0.5709 -0.8341
13735TIP3   OH262619   1.930   5.408   3.086  0.5024  0.0671  0.2216
13735TIP3    H162620   1.893   5.496   3.099  1.3643  0.2064  2.0360
13735TIP3    H262621   1.895   5.356   3.159  1.8895 -0.4367  0.5556
13736TIP3   OH262622   1.314   5.650  13.941 -0.0433 -0.1930 -0.2056
13736TIP3    H162623   1.371   5.670  14.016 -0.4288  0.5883 -0.1157
13736TIP3    H262624   1.370   5.601  13.881  0.7128  0.4912 -0.0778
13737TIP3   OH262625   3.695   1.512   2.254 -0.0126  0.4613  0.4711
13737TIP3    H162626   3.637   1.555   2.316 -2.8823 -3.2071  0.6390
13737TIP3    H262627   3.645   1.508   2.172  1.5895  0.5810 -0.5659
13738TIP3   OH262628   1.723   3.139  14.941  0.5269  0.3108  0.3650
13738TIP3    H162629   1.770   3.063  14.975 -1.4421 -1.1534  0.0404
13738TIP3    H262630   1.683   3.108  14.860 -1.4764  1.2386  0.9278
13739TIP3   OH262631   4.703   2.376   2.813  0.0299 -0.1608 -0.0881
13739TIP3    H162632   4.655   2.301   2.849 -0.9722  1.2205  1.5798
13739TIP3    H262633   4.701   2.361   2.718 -0.3801 -2.0903  0.1743
13740TIP3   OH262634   2.420   4.610   2.541 -0.1074  0.3498  0.1053
13740TIP3    H162635   2.360   4.581   2.473 -2.1811  0.7523  1.6492
13740TIP3    H262636   2.380   4.580   2.623  2.0841  0.1997  1.1932
13741TIP3   OH262637   0.295   2.906  17.324 -0.1722  0.7761  0.0538
13741TIP3    H162638   0.323   2.815  17.321 -1.4214  0.3403  0.5140
13741TIP3    H262639   0.219   2.905  17.384  0.7209  2.3697  1.2958
13742TIP3   OH262640   6.426   3.644  12.056  0.2757  0.2413 -0.2841
13742TIP3    H162641   6.509   3.661  12.012  1.2539  0.7645  1.6565
13742TIP3    H262642   6.449   3.632  12.148 -1.8716  1.0369  0.4233
13743TIP3   OH262643   1.740   1.558  16.690 -0.1284  0.0810 -0.2837
13743TIP3    H162644   1.666   1.616  16.669  0.2652  0.4519 -0.6723
13743TIP3    H262645   1.705   1.469  16.679 -0.3535  0.2605 -1.0390
13744TIP3   OH262646   3.661   3.065   1.911  0.1638  0.3947  0.2851
13744TIP3    H162647   3.688   3.117   1.836  1.3783  1.0515  1.1352
13744TIP3    H262648   3.567   3.081   1.919  0.4580  2.3190  0.3793
13745TIP3   OH262649   0.382   4.214   4.111  0.6522  0.1834 -0.4148
13745TIP3    H162650   0.409   4.304   4.094 -0.5332  0.8014  0.8060
13745TIP3    H262651   0.317   4.221   4.180 -2.0353 -1.2918 -2.6060
13746TIP3   OH262652   3.635   4.552  14.549 -0.2635  0.4315  0.2312
13746TIP3    H162653   3.614   4.645  14.540 -3.1842 -0.0655  0.9499
13746TIP3    H262654   3.589   4.509  14.477  0.7599 -0.5313  0.1172
13747TIP3   OH262655   3.283   1.135   2.873 -0.9062 -0.3930 -0.5746
13747TIP3    H162656   3.341   1.157   2.800 -1.7206  0.3883 -1.0039
13747TIP3    H262657   3.252   1.046   2.853 -1.8761  0.1788 -1.7018
13748TIP3   OH262658   4.579   3.709  17.243  0.0056  0.3561 -0.1689
13748TIP3    H162659   4.563   3.647  17.172  0.7845 -0.2430  0.1558
13748TIP3    H262660   4.549   3.793  17.209 -1.9814 -0.3377 -0.2681
13749TIP3   OH262661   3.726   3.496  13.622  0.0545  0.5820 -0.0258
13749TIP3    H162662   3.639   3.526  13.595 -0.0686  1.3004  1.1034
13749TIP3    H262663   3.709   3.432  13.691  0.4096  1.0039  0.4689
13750TIP3   OH262664   0.273   4.843  14.158 -0.3291 -0.0679 -0.6345
13750TIP3    H162665   0.352   4.793  14.180 -0.0434  0.7880  0.3574
13750TIP3    H262666   0.305   4.930  14.135 -1.0770  1.5653  3.4843
13751TIP3   OH262667   4.546   6.452  12.308 -0.2990  0.3107  0.0777
13751TIP3    H162668   4.471   6.506  12.332 -0.4592  0.1945 -0.1553
13751TIP3    H262669   4.613   6.514  12.280 -1.1260  0.3439 -2.0512
13752TIP3   OH262670   3.230   3.107   4.953 -0.0784 -0.3499  0.0859
13752TIP3    H162671   3.299   3.163   4.918  1.8006 -2.4331  0.2660
13752TIP3    H262672   3.205   3.051   4.880 -1.5834  0.3155  0.0468
13753TIP3   OH262673   3.811   2.243   5.081 -0.6227  0.4560 -0.0283
13753TIP3    H162674   3.827   2.329   5.042 -1.4288  0.4204 -0.4647
13753TIP3    H262675   3.733   2.256   5.136 -0.9987 -0.0885 -0.4237
13754TIP3   OH262676   2.019   2.447  16.727  0.2207  0.2058 -0.1665
13754TIP3    H162677   1.981   2.512  16.785  0.2911  0.5064 -0.4534
13754TIP3    H262678   2.026   2.368  16.780  0.9696  0.6806  0.4502
13755TIP3   OH262679   2.962   1.322   5.915 -0.3202  0.4728  0.1520
13755TIP3    H162680   3.002   1.375   5.984  0.3048 -1.4568  1.3565
13755TIP3    H262681   3.036   1.283   5.868 -0.6976 -1.4481  1.0453
13756TIP3   OH262682   1.481   0.624   1.785  0.0888 -0.2404  0.0653
13756TIP3    H162683   1.401   0.640   1.736 -0.7268 -0.9314  1.1312
13756TIP3    H262684   1.480   0.689   1.855 -0.0794 -0.9337  0.7093
13757TIP3   OH262685   0.480   4.391   0.116 -0.4444  0.0986  0.6105
13757TIP3    H162686   0.465   4.469   0.170 -0.4144  0.8403 -0.4114
13757TIP3    H262687   0.574   4.395   0.094 -0.8590  0.9689 -1.1773
13758TIP3   OH262688   1.560   4.825  12.957 -0.3903  0.0345  0.1016
13758TIP3    H162689   1.467   4.847  12.947 -0.3951 -0.1983 -0.3834
13758TIP3    H262690   1.603   4.874  12.887 -0.3986 -1.4911 -1.0108
13759TIP3   OH262691   5.198   0.294   2.085  0.9290  0.0860 -0.4512
13759TIP3    H162692   5.144   0.216   2.076 -0.3082  0.9026 -0.2638
13759TIP3    H262693   5.171   0.333   2.168  0.2015  1.6902 -1.3906
13760TIP3   OH262694   6.126   3.254  11.547  0.1459  0.1667 -0.2804
13760TIP3    H162695   6.192   3.322  11.530  0.4959 -0.3615 -1.1689
13760TIP3    H262696   6.110   3.259  11.641  0.6856  1.0045 -0.2156
13761TIP3   OH262697   2.667   3.610   0.790 -0.0239 -0.7104  0.2257
13761TIP3    H162698   2.577   3.629   0.816 -0.6600 -1.9208 -0.9502
13761TIP3    H262699   2.682   3.521   0.821  1.5744  0.2072  2.3409
13762TIP3   OH262700   0.933   4.206   4.016 -0.5329 -0.1393  0.5963
13762TIP3    H162701   0.947   4.111   4.018 -0.3417 -0.1048  2.1797
13762TIP3    H262702   1.003   4.239   3.960 -0.3917 -0.9003  0.3103
13763TIP3   OH262703   6.565   6.181   0.894  0.6184 -0.4636 -0.3496
13763TIP3    H162704   6.481   6.214   0.925  1.2545  1.0884 -0.1844
13763TIP3    H262705   6.575   6.096   0.936  0.0766  0.2494  1.2915
13764TIP3   OH262706   0.048   3.727   1.810  0.4155  0.5214  0.5788
13764TIP3    H162707   0.122   3.682   1.852 -0.3375 -1.2860  0.0726
13764TIP3    H262708   0.066   3.718   1.716 -0.3167  0.2798  0.4609
13765TIP3   OH262709   5.781   4.458  12.573  0.3610 -0.3362  0.0184
13765TIP3    H162710   5.763   4.443  12.480 -1.4620  1.2422  0.0438
13765TIP3    H262711   5.831   4.540  12.574 -1.6217  0.9229  0.4930
13766TIP3   OH262712   5.934   1.224   6.040  0.2051  0.1348 -0.1469
13766TIP3    H162713   5.913   1.267   6.123  1.2298  1.6015 -0.6099
13766TIP3    H262714   5.980   1.144   6.066 -1.6773 -0.7324  0.7299
13767TIP3   OH262715   6.109   4.571  15.877  0.4465  0.2252 -0.6902
13767TIP3    H162716   6.184   4.516  15.900  0.7439  0.8231 -0.1926
13767TIP3    H262717   6.089   4.547  15.786  0.2992 -0.9924 -0.3559
13768TIP3   OH262718   5.748   3.369   1.490 -0.1032 -0.0203 -0.4874
13768TIP3    H162719   5.792   3.416   1.560  1.0254  0.5770 -1.5453
13768TIP3    H262720   5.694   3.304   1.534 -1.2374  1.8335  1.0145
13769TIP3   OH262721   5.766   4.684   0.039 -0.4790 -0.0495 -0.1071
13769TIP3    H162722   5.854   4.654   0.016 -0.7856  0.4817 -2.1221
13769TIP3    H262723   5.780   4.744   0.112  1.1168  1.7268 -1.7732
13770TIP3   OH262724   4.259   0.766   0.839  0.2378 -0.1257 -0.8881
13770TIP3    H162725   4.206   0.837   0.803 -0.9023 -0.0801  0.7673
13770TIP3    H262726   4.197   0.713   0.890  1.6053 -0.6394  0.3194
13771TIP3   OH262727   5.618   2.219  12.330 -0.1972 -0.2937 -0.5007
13771TIP3    H162728   5.568   2.299  12.344  0.0119 -0.4285  1.2350
13771TIP3    H262729   5.554   2.149  12.336  0.2065 -0.5612  2.9238
13772TIP3   OH262730   0.282   1.258  12.839  0.3201 -0.3058  0.2653
13772TIP3    H162731   0.366   1.214  12.826  0.5273  0.1460  0.0691
13772TIP3    H262732   0.251   1.277  12.751 -0.3156 -1.0752  0.3133
13773TIP3   OH262733   6.610   5.849  13.345 -0.3590 -0.3522 -0.8105
13773TIP3    H162734   6.665   5.795  13.289 -0.5348 -0.4907 -0.8516
13773TIP3    H262735   6.634   5.939  13.324  0.6454 -0.4238 -0.0292
13774TIP3   OH262736   3.763   2.648  16.660 -0.0803 -0.0101 -0.1562
13774TIP3    H162737   3.848   2.690  16.670 -1.1176  2.8059 -2.0478
13774TIP3    H262738   3.710   2.682  16.732 -0.4799  0.7234 -0.7890
13775TIP3   OH262739   5.158   2.599  14.070 -0.0413 -0.1176 -0.6616
13775TIP3    H162740   5.150   2.504  14.062  0.9320 -0.1396 -1.4817
13775TIP3    H262741   5.152   2.632  13.981  1.0677  0.4594 -0.5461
13776TIP3   OH262742   1.828   3.650   5.370  0.2035 -0.2520  0.3686
13776TIP3    H162743   1.904   3.594   5.387 -1.5199 -2.5119  1.1355
13776TIP3    H262744   1.865   3.732   5.337  3.0893 -0.4125  2.7902
13777TIP3   OH262745   3.737   3.780   6.483  0.1803 -0.4692  0.0323
13777TIP3    H162746   3.794   3.824   6.547  0.0506  0.4834 -0.4801
13777TIP3    H262747   3.786   3.784   6.401 -0.8118  0.8399 -0.5353
13778TIP3   OH262748   2.365   3.225   5.117  0.2733 -0.1940  0.4134
13778TIP3    H162749   2.379   3.299   5.176  1.0330  0.9554 -1.1222
13778TIP3    H262750   2.287   3.181   5.151 -1.2421  2.3285  0.4496
13779TIP3   OH262751   2.764   0.149   4.619 -0.0857  0.1049  0.0788
13779TIP3    H162752   2.718   0.111   4.694 -1.1656 -1.3056 -1.2179
13779TIP3    H262753   2.832   0.084   4.598 -1.1580 -0.6075 -1.4123
13780TIP3   OH262754   3.926   0.023   3.251 -0.5690  0.2712  0.4061
13780TIP3    H162755   3.872   0.083   3.301  1.0389  1.9070  0.2823
13780TIP3    H262756   3.985   0.079   3.200  1.1059 -1.3693  0.3953
13781TIP3   OH262757   6.598   5.941  13.686 -0.3518  0.2671 -0.3205
13781TIP3    H162758   6.525   5.972  13.740  1.8327  2.0190  1.8731
13781TIP3    H262759   6.619   6.015  13.630  2.9016  2.0243  2.7658
13782TIP3   OH262760   3.670   4.477   5.917  0.3553 -0.2210  0.1603
13782TIP3    H162761   3.659   4.412   5.847 -0.3809  0.0186  0.0555
13782TIP3    H262762   3.706   4.554   5.874 -0.1621 -0.0501  0.0300
13783TIP3   OH262763   2.446   2.389  11.424 -0.4817 -0.2619 -0.6499
13783TIP3    H162764   2.376   2.351  11.371 -0.5219 -0.7079 -0.2794
13783TIP3    H262765   2.477   2.463  11.372 -0.3789 -0.8142 -1.3908
13784TIP3   OH262766   4.924   5.620   1.394  0.0771  0.2958 -0.8434
13784TIP3    H162767   4.833   5.623   1.423  0.1125 -3.1532  0.0038
13784TIP3    H262768   4.967   5.689   1.444 -1.4965 -0.0508  1.0896
13785TIP3   OH262769   5.523   2.817   3.005  0.6754  0.0561  0.2812
13785TIP3    H162770   5.476   2.891   2.967 -0.4456 -0.0688  1.3548
13785TIP3    H262771   5.457   2.748   3.011  0.6831  0.1798  2.7172
13786TIP3   OH262772   5.535   4.319  17.141 -0.0490  0.2675  0.0907
13786TIP3    H162773   5.567   4.316  17.230 -0.2174 -0.7383  0.1353
13786TIP3    H262774   5.484   4.400  17.136  0.8953  0.9016  0.5631
13787TIP3   OH262775   4.841   2.049  17.491  0.5612 -0.7887  0.1753
13787TIP3    H162776   4.840   1.964  17.447  2.0503 -0.8205  0.1583
13787TIP3    H262777   4.761   2.093  17.462  0.1142 -1.9176 -0.3326
13788TIP3   OH262778   6.593   3.398  17.054  0.4079  0.1213  0.2023
13788TIP3    H162779   6.606   3.313  17.098  3.4522  1.1486  1.5401
13788TIP3    H262780   6.590   3.376  16.961  0.4785 -1.5197  0.5440
13789TIP3   OH262781   2.622   5.046  11.134 -0.1764  0.4244 -0.3008
13789TIP3    H162782   2.681   5.056  11.059  0.0042 -1.0953 -0.3848
13789TIP3    H262783   2.611   4.952  11.144 -2.1542  0.6441  0.0678
13790TIP3   OH262784   2.714   1.920   5.870 -0.2174 -0.4610 -0.3714
13790TIP3    H162785   2.777   1.864   5.824 -1.6844 -2.3991 -0.1658
13790TIP3    H262786   2.662   1.960   5.800 -1.5975 -2.3831 -0.5215
13791TIP3   OH262787   4.895   3.261   1.840 -0.0675 -0.2071 -0.2662
13791TIP3    H162788   4.942   3.256   1.757 -1.1471  0.6692 -0.9562
13791TIP3    H262789   4.806   3.283   1.816 -0.2795  0.6211  1.1632
13792TIP3   OH262790   3.111   5.708   0.748  0.0735 -0.4523 -0.4141
13792TIP3    H162791   3.072   5.732   0.664  2.3454 -1.4529 -1.8601
13792TIP3    H262792   3.190   5.762   0.754  0.3489 -0.9504  0.7463
13793TIP3   OH262793   4.266   5.285   5.941 -0.2633  0.1168 -0.6092
13793TIP3    H162794   4.246   5.197   5.908  0.1867  0.1628 -1.0097
13793TIP3    H262795   4.361   5.293   5.932  0.0836 -0.3597  1.9016
13794TIP3   OH262796   2.265   6.505   3.372  0.1381 -0.5173  0.5021
13794TIP3    H162797   2.331   6.548   3.427  0.4137  1.7763 -1.4848
13794TIP3    H262798   2.194   6.569   3.366  0.5989 -0.1605 -2.6499
13795TIP3   OH262799   6.476   0.642  12.823 -0.3311 -0.2052 -0.5939
13795TIP3    H162800   6.465   0.682  12.737  1.3287  1.4163 -0.1273
13795TIP3    H262801   6.387   0.632  12.856 -0.9629  3.9034 -0.4646
13796TIP3   OH262802   1.020   3.717  11.471  0.1436 -0.1379 -0.0955
13796TIP3    H162803   1.040   3.707  11.378 -0.8611 -0.8072 -0.2492
13796TIP3    H262804   1.054   3.638  11.512 -1.8148 -1.1574 -0.3197
13797TIP3   OH262805   3.419   1.856   2.780 -0.0659  0.1095 -0.2373
13797TIP3    H162806   3.485   1.818   2.839 -1.6189 -0.8645  0.9476
13797TIP3    H262807   3.381   1.781   2.735 -1.1537  0.5222 -0.0436
13798TIP3   OH262808   5.666   0.556  14.954  0.2010 -0.1663 -0.5184
13798TIP3    H162809   5.594   0.528  14.897 -0.0714 -0.0114 -0.2531
13798TIP3    H262810   5.631   0.549  15.043  1.0189 -1.5437 -0.2829
13799TIP3   OH262811   1.379   4.998   2.251 -0.7330 -0.1542 -0.2784
13799TIP3    H162812   1.308   4.995   2.315 -0.0470 -1.7362  0.4548
13799TIP3    H262813   1.410   4.908   2.245  1.4444  0.5354 -0.3099
13800TIP3   OH262814   1.369   4.421  17.063 -0.2041  0.3246  0.4572
13800TIP3    H162815   1.379   4.423  17.158  0.5852  1.3259  0.3612
13800TIP3    H262816   1.328   4.336  17.046  2.0960 -1.0877  1.4667
13801TIP3   OH262817   6.600   1.403  12.456 -0.0564 -0.3801  0.4191
13801TIP3    H162818   6.547   1.383  12.379 -0.7683  0.7874  0.5754
13801TIP3    H262819   6.543   1.382  12.530  0.2098 -0.4394  0.6078
13802TIP3   OH262820   4.179   6.385  16.152  0.3732 -0.0603 -0.4243
13802TIP3    H162821   4.158   6.296  16.181  0.7589 -0.3698 -1.0591
13802TIP3    H262822   4.162   6.440  16.228 -1.4325 -0.4598 -0.4856
13803TIP3   OH262823   1.369   4.200  12.891  0.5336  0.0362 -0.0905
13803TIP3    H162824   1.369   4.156  12.807 -0.0379 -0.3045  0.0812
13803TIP3    H262825   1.297   4.263  12.885 -1.3038 -1.8214  1.0527
13804TIP3   OH262826   4.060   3.551  12.385  0.2773  0.4850  0.0494
13804TIP3    H162827   4.147   3.550  12.425 -0.4477 -3.2317  2.0110
13804TIP3    H262828   4.075   3.527  12.294  1.3807  0.5990  0.1857
13805TIP3   OH262829   2.077   3.219   5.084 -0.3051 -0.2501  0.8803
13805TIP3    H162830   2.021   3.142   5.097  1.0933 -1.4112  0.3496
13805TIP3    H262831   2.031   3.290   5.128 -2.4488 -1.0189  0.0299
13806TIP3   OH262832   3.387   2.987  14.395  0.0551 -1.0614  0.6109
13806TIP3    H162833   3.338   2.953  14.320  0.6303  0.7764 -0.6523
13806TIP3    H262834   3.477   2.990  14.365  0.3539 -0.6323  1.5235
13807TIP3   OH262835   6.408   3.682  16.799 -0.0165 -0.7379 -0.2359
13807TIP3    H162836   6.376   3.706  16.712 -1.6119 -0.9136  0.2778
13807TIP3    H262837   6.439   3.764  16.837 -0.1075 -0.5108 -0.6471
13808TIP3   OH262838   0.491   3.636  14.654 -0.1688  0.1816 -0.2390
13808TIP3    H162839   0.570   3.676  14.689 -0.1822  0.4752 -0.5400
13808TIP3    H262840   0.518   3.597  14.571 -0.0421 -0.8729  0.2674
13809TIP3   OH262841   1.555   4.912  12.612 -0.6112 -0.1125  0.4536
13809TIP3    H162842   1.503   4.918  12.692 -1.0702 -0.0394  0.1521
13809TIP3    H262843   1.640   4.877  12.641 -0.9241 -0.5145  0.9054
13810TIP3   OH262844   1.757   5.252  11.372  0.8283  0.7900 -0.2520
13810TIP3    H162845   1.831   5.250  11.432  0.4123  2.2076  0.3453
13810TIP3    H262846   1.761   5.168  11.326  3.2966  1.1607 -0.8416
13811TIP3   OH262847   1.999   2.648   0.681 -0.0977  0.2036 -0.5566
13811TIP3    H162848   2.089   2.617   0.668 -0.0200  1.2797 -3.2022
13811TIP3    H262849   2.008   2.742   0.700 -0.6263  0.0252  0.6724
13812TIP3   OH262850   4.993   6.040  16.379  0.2153  0.2577 -0.2739
13812TIP3    H162851   4.974   5.972  16.314  1.3304  1.1411 -1.5989
13812TIP3    H262852   5.084   6.023  16.405  0.7634  1.6010 -1.1648
13813TIP3   OH262853   0.067   0.569  12.405  0.5884 -0.2778  0.0241
13813TIP3    H162854   0.145   0.576  12.350  1.3731  0.7185  1.2174
13813TIP3    H262855   0.092   0.610  12.488 -1.2355  0.1317  0.4092
13814TIP3   OH262856   3.766   2.514  13.927 -0.4150  0.0195 -0.5601
13814TIP3    H162857   3.698   2.559  13.977 -2.1109  0.0464 -2.7267
13814TIP3    H262858   3.848   2.543  13.967 -1.5020  2.9203 -0.1435
13815TIP3   OH262859   1.748   0.715   5.339  0.1016 -0.2951 -0.2676
13815TIP3    H162860   1.704   0.734   5.421 -1.0351  2.8794 -1.5001
13815TIP3    H262861   1.840   0.704   5.364 -0.2652  0.2097  1.4547
13816TIP3   OH262862   2.139   2.397   6.281 -0.1040 -0.3972  0.2335
13816TIP3    H162863   2.159   2.305   6.261  0.3145 -0.6090  1.5062
13816TIP3    H262864   2.043   2.401   6.281 -0.1215 -0.7394 -0.2260
13817TIP3   OH262865   2.185   2.481   5.882 -0.4422 -0.2762  0.3309
13817TIP3    H162866   2.167   2.464   5.789 -2.0004  4.3535 -0.4801
13817TIP3    H262867   2.099   2.474   5.924 -0.6788  2.1861  0.3951
13818TIP3   OH262868   0.715   6.095   4.390 -0.0612  0.6045 -0.4618
13818TIP3    H162869   0.715   6.172   4.447 -1.1790  0.5272 -0.3267
13818TIP3    H262870   0.739   6.128   4.304  0.9684  0.8374 -0.1014
13819TIP3   OH262871   0.469   0.983  17.328  0.3453  0.0321  0.3801
13819TIP3    H162872   0.508   0.928  17.260 -0.3385 -0.4906  0.3925
13819TIP3    H262873   0.427   1.055  17.280 -0.3484 -0.4691  0.2116
13820TIP3   OH262874   2.569   0.170  16.294 -0.2282 -0.6540 -0.1938
13820TIP3    H162875   2.613   0.115  16.359 -0.8989 -0.3863  0.5080
13820TIP3    H262876   2.533   0.243  16.345 -1.0734 -0.6230 -0.8083
13821TIP3   OH262877   1.100   1.268  14.012  0.1706 -0.1718  0.3586
13821TIP3    H162878   1.176   1.218  14.040  0.6158 -0.5164 -1.3642
13821TIP3    H262879   1.029   1.239  14.070  1.4815  0.7806  2.5616
13822TIP3   OH262880   4.425   1.612   3.460 -0.2349 -0.0011 -0.4406
13822TIP3    H162881   4.350   1.672   3.462  1.0714  1.6811  0.0784
13822TIP3    H262882   4.482   1.646   3.391  0.3573 -0.8677 -0.3908
13823TIP3   OH262883   6.467   4.038   4.098  0.3975  0.7487  1.1084
13823TIP3    H162884   6.391   4.009   4.148  0.4473  0.2142  0.8717
13823TIP3    H262885   6.522   3.961   4.088 -0.6468  0.2248 -1.6624
13824TIP3   OH262886   2.178   1.016  12.743 -0.0347  0.5936 -0.2805
13824TIP3    H162887   2.268   1.047  12.733 -0.2437  1.4019  0.1537
13824TIP3    H262888   2.135   1.040  12.661 -0.6142  3.0773  0.6422
13825TIP3   OH262889   5.211   2.934   0.504  0.5504 -0.5066 -0.1201
13825TIP3    H162890   5.241   2.845   0.522  3.0449  0.2673 -0.1020
13825TIP3    H262891   5.288   2.989   0.517 -1.2252  1.8813  1.2456
13826TIP3   OH262892   6.509   1.451  11.551 -0.8687 -0.2281  0.0887
13826TIP3    H162893   6.470   1.533  11.521 -1.6425 -0.7140 -0.2487
13826TIP3    H262894   6.592   1.446  11.504 -1.3220 -0.1792 -0.7379
13827TIP3   OH262895   0.086   6.018   2.137  0.1725 -0.5782  0.5316
13827TIP3    H162896   0.041   6.082   2.193 -0.6885 -0.8154  0.1283
13827TIP3    H262897   0.080   5.936   2.185  1.3227 -0.3656  1.0721
13828TIP3   OH262898   5.389   2.128   2.065 -0.3767  0.3378 -0.1293
13828TIP3    H162899   5.363   2.194   2.130  0.9419 -2.2963  3.3458
13828TIP3    H262900   5.484   2.138   2.058 -0.3629 -0.2085 -0.7443
13829TIP3   OH262901   1.526   5.359   5.708 -0.2981  0.0738 -0.0064
13829TIP3    H162902   1.464   5.347   5.780  1.0660 -0.8616  1.0594
13829TIP3    H262903   1.589   5.288   5.718  1.2710  1.3061 -0.7170
13830TIP3   OH262904   1.330   3.767   1.023 -0.1314 -0.1899  0.3354
13830TIP3    H162905   1.391   3.708   0.978  0.5368 -0.2081  1.2426
13830TIP3    H262906   1.287   3.816   0.952  0.0990 -0.9916 -0.3677
13831TIP3   OH262907   0.559   0.505  15.973 -0.3722  0.4109  0.4065
13831TIP3    H162908   0.465   0.524  15.970 -0.1767  1.4578  0.6247
13831TIP3    H262909   0.593   0.532  15.888  0.0567  1.9506  1.0272
13832TIP3   OH262910   2.091   6.045   2.552 -0.3018  0.0185  0.2672
13832TIP3    H162911   2.115   6.100   2.478 -0.5395  1.9187  1.5476
13832TIP3    H262912   1.996   6.052   2.557 -0.4606 -1.4397 -0.2113
13833TIP3   OH262913   1.103   4.144   0.736  0.3400  0.5531  0.0230
13833TIP3    H162914   1.071   4.232   0.716 -2.1703 -0.4495 -0.7318
13833TIP3    H262915   1.196   4.147   0.716  0.0655  2.7052 -1.1465
13834TIP3   OH262916   3.199   5.514  16.943 -0.4222  0.5393  0.0805
13834TIP3    H162917   3.131   5.519  17.010 -0.6062  2.2278 -0.1939
13834TIP3    H262918   3.279   5.494  16.992 -1.0216 -1.2008  0.4308
13835TIP3   OH262919   5.897   0.834   1.232  0.1776 -0.0530  0.2676
13835TIP3    H162920   5.894   0.740   1.212 -1.3340  0.2509 -1.1571
13835TIP3    H262921   5.912   0.876   1.148  1.0084  1.0132  0.9210
13836TIP3   OH262922   4.801   4.375  11.860  0.4190  0.4085 -0.6839
13836TIP3    H162923   4.755   4.424  11.928  1.4568 -1.4888  1.5433
13836TIP3    H262924   4.738   4.366  11.789 -1.5023  0.6689  0.9119
13837TIP3   OH262925   4.415   4.745  16.357 -0.2102 -0.4190  0.3841
13837TIP3    H162926   4.365   4.682  16.408  2.3160 -2.1549  0.9219
13837TIP3    H262927   4.349   4.804  16.319 -2.4101 -1.1306  2.8350
13838TIP3   OH262928   0.265   4.941  14.850  0.5524  0.0188 -0.0889
13838TIP3    H162929   0.356   4.911  14.853  0.7789  0.7140  0.1651
13838TIP3    H262930   0.262   5.012  14.913 -0.9435 -2.0388  2.3555
13839TIP3   OH262931   1.491   6.117  10.764 -0.2995 -0.0081  0.0816
13839TIP3    H162932   1.491   6.140  10.857  0.1561  0.4828 -0.0364
13839TIP3    H262933   1.407   6.150  10.732  0.8620  2.8040 -0.3766
13840TIP3   OH262934   3.748   0.545   4.954 -0.5345 -0.2562 -0.1009
13840TIP3    H162935   3.765   0.638   4.968  1.9254 -0.8246  1.2387
13840TIP3    H262936   3.681   0.523   5.018 -0.9994  0.5396 -0.3012
13841TIP3   OH262937   5.130   1.260  12.115  0.6654 -0.7357 -0.1524
13841TIP3    H162938   5.125   1.233  12.206  0.0504 -0.4047 -0.0820
13841TIP3    H262939   5.203   1.322  12.113  2.2480 -2.5010 -0.3646
13842TIP3   OH262940   2.135   2.722   4.435 -0.2572 -0.1292 -0.3806
13842TIP3    H162941   2.185   2.743   4.514  1.6656 -0.9959 -1.2931
13842TIP3    H262942   2.104   2.807   4.403 -0.6959  0.2775  1.0288
13843TIP3   OH262943   2.183   1.876   5.379 -0.2623  1.0447  0.1538
13843TIP3    H162944   2.102   1.828   5.399  0.3864 -0.6017 -0.8993
13843TIP3    H262945   2.173   1.960   5.423 -1.6410  0.0844  1.8022
13844TIP3   OH262946   5.677   1.970   2.288  0.4662 -0.8319 -0.2396
13844TIP3    H162947   5.665   1.877   2.269 -0.8313 -1.3782  2.7243
13844TIP3    H262948   5.597   1.996   2.334  1.5977  1.2677  0.7063
13845TIP3   OH262949   3.462   0.802  14.578  0.0186  0.0297 -0.4264
13845TIP3    H162950   3.444   0.881  14.629  0.3223 -0.4152  0.3898
13845TIP3    H262951   3.448   0.730  14.639  1.0697 -0.4920 -0.7677
13846TIP3   OH262952   1.666   5.304   6.697 -0.2463 -0.4907  0.1160
13846TIP3    H162953   1.678   5.396   6.677 -0.6504 -0.7088 -1.1919
13846TIP3    H262954   1.641   5.263   6.614 -0.1066 -1.7735  0.6683
13847TIP3   OH262955   3.481   0.469  12.462 -0.0102  0.1981  0.0210
13847TIP3    H162956   3.529   0.537  12.414 -1.0808 -0.3982 -2.0230
13847TIP3    H262957   3.408   0.516  12.503  0.4113  0.5801  0.3448
13848TIP3   OH262958   5.583   2.867   2.376  0.2836  0.0133  0.1502
13848TIP3    H162959   5.561   2.844   2.467  0.0557 -1.4436 -0.2381
13848TIP3    H262960   5.500   2.894   2.338  0.3848  0.6554  0.3719
13849TIP3   OH262961   0.049   6.656  11.398 -0.2595 -0.4533 -0.2301
13849TIP3    H162962  -0.046   6.646  11.397 -0.1814 -1.2702 -0.0110
13849TIP3    H262963   0.066   6.731  11.341 -1.1770  1.1462  1.5173
13850TIP3   OH262964   4.933   2.527   2.278  0.0466 -0.3806 -0.5154
13850TIP3    H162965   4.985   2.493   2.351 -1.2380 -0.4929  0.3880
13850TIP3    H262966   4.876   2.454   2.253 -0.8528  0.2466 -0.3500
13851TIP3   OH262967   3.728   6.464   5.597 -0.6211 -0.1723  0.2081
13851TIP3    H162968   3.821   6.466   5.619  0.0547  0.6307 -2.4271
13851TIP3    H262969   3.723   6.492   5.506 -3.3483 -1.4688 -0.1655
13852TIP3   OH262970   6.583   0.337  15.879  0.0532  0.0275 -0.4775
13852TIP3    H162971   6.654   0.353  15.941 -1.5448 -2.1248  2.1633
13852TIP3    H262972   6.574   0.419  15.831  0.5069  2.4847  3.1868
13853TIP3   OH262973   2.216   0.373   3.001 -0.2741 -0.0396  0.1255
13853TIP3    H162974   2.127   0.383   2.967  0.2061  0.9629 -0.8851
13853TIP3    H262975   2.240   0.283   2.978 -0.8191 -0.1430 -0.0602
13854TIP3   OH262976   4.429   1.280  14.264  0.1361 -0.6676 -0.5334
13854TIP3    H162977   4.488   1.354  14.255  0.4316 -0.8332 -0.0591
13854TIP3    H262978   4.342   1.315  14.244  0.4437 -0.5315 -1.7096
13855TIP3   OH262979   6.417   6.106   1.172 -0.5635  0.0431  0.4447
13855TIP3    H162980   6.366   6.036   1.131 -1.6407  0.3644  1.1789
13855TIP3    H262981   6.394   6.184   1.121  0.1276 -0.0074  0.0407
13856TIP3   OH262982   2.095   2.680  14.508  0.1330  0.3567 -0.0939
13856TIP3    H162983   2.068   2.682  14.416 -0.8822  2.3787  0.1757
13856TIP3    H262984   2.038   2.615  14.549 -1.1692  1.2517 -0.4414
13857TIP3   OH262985   1.267   5.772  17.563  0.2863 -0.3099  0.2767
13857TIP3    H162986   1.251   5.778  17.468 -0.0973 -0.6804  0.3179
13857TIP3    H262987   1.362   5.773  17.571  0.3499  1.8297  0.0163
13858TIP3   OH262988   4.237   6.238  11.864  0.9365  0.2912  0.0454
13858TIP3    H162989   4.245   6.193  11.780 -1.1317  1.1136 -0.6692
13858TIP3    H262990   4.248   6.170  11.930  1.8083 -0.5037 -0.8969
13859TIP3   OH262991   2.613   1.455   3.079  0.1925  0.6860 -0.2702
13859TIP3    H162992   2.602   1.500   2.995 -0.4474  1.1787  0.0659
13859TIP3    H262993   2.707   1.447   3.090  0.2866 -0.7839 -1.7715
13860TIP3   OH262994   0.944   5.174  14.357  0.3832  0.2917  0.2074
13860TIP3    H162995   1.032   5.203  14.333  0.7439 -0.6903  0.3119
13860TIP3    H262996   0.891   5.253  14.351  1.2229  0.8503 -0.0884
13861TIP3   OH262997   6.383   2.737  14.102 -0.0499 -0.2091  0.2800
13861TIP3    H162998   6.431   2.697  14.175 -1.7414 -0.8127  1.1132
13861TIP3    H262999   6.404   2.830  14.107  2.4959 -0.6448 -0.5599
13862TIP3   OH263000   3.382   4.548   2.422  0.5919  0.3201 -0.1173
13862TIP3    H163001   3.385   4.644   2.423 -0.1614  0.3539 -0.7222
13862TIP3    H263002   3.374   4.525   2.330  1.0067 -0.3363  0.0104
13863TIP3   OH263003   0.344   6.256  13.758  0.3880 -0.3524  0.1320
13863TIP3    H163004   0.309   6.190  13.816  2.0520 -1.1362  0.3020
13863TIP3    H263005   0.279   6.264  13.688  0.2194 -2.2717  0.0321
13864TIP3   OH263006   3.395   1.337  11.002  0.8718 -0.3546  0.4921
13864TIP3    H163007   3.353   1.284  10.934  2.8598 -1.1973 -0.1419
13864TIP3    H263008   3.391   1.426  10.967  0.2261 -0.5135  0.1359
13865TIP3   OH263009   3.063   4.011   4.459 -0.1280  0.0124  0.0783
13865TIP3    H163010   3.031   3.938   4.512 -1.1883 -1.3423 -2.2767
13865TIP3    H263011   3.110   3.970   4.387  0.0738  1.6914 -0.8152
13866TIP3   OH263012   5.566   5.887   1.230 -0.1638  0.6505 -0.5613
13866TIP3    H163013   5.568   5.982   1.221  0.0826  0.6958 -0.0990
13866TIP3    H263014   5.639   5.856   1.175  0.3578  0.8033  0.0311
13867TIP3   OH263015   0.444   1.395  15.872  0.5727 -0.0586  0.7495
13867TIP3    H163016   0.415   1.464  15.813 -1.2420 -0.8489  0.6493
13867TIP3    H263017   0.393   1.409  15.952  2.5049  0.5902  1.9401
13868TIP3   OH263018   0.399   4.541  13.987 -0.6323  0.1637 -0.4632
13868TIP3    H163019   0.331   4.537  13.921 -0.2994  0.8877 -0.8576
13868TIP3    H263020   0.355   4.571  14.066 -0.8327  0.3312 -0.6383
13869TIP3   OH263021   6.221   0.326  13.405 -0.1155  0.0870  0.5969
13869TIP3    H163022   6.173   0.409  13.410 -0.6465 -0.2568  1.3388
13869TIP3    H263023   6.232   0.299  13.496  2.0230  0.4431  0.4883
13870TIP3   OH263024   0.119   0.736   0.203 -0.0026  0.2681 -0.1490
13870TIP3    H163025   0.203   0.754   0.162  0.1336 -1.3137 -0.6172
13870TIP3    H263026   0.076   0.675   0.144 -0.2997 -1.1378  1.4515
13871TIP3   OH263027   4.790   3.681  16.237  0.0667 -0.0801  0.2050
13871TIP3    H163028   4.731   3.673  16.161  0.0678 -1.8203  0.3516
13871TIP3    H263029   4.793   3.593  16.274  0.6834  0.5803  1.7810
13872TIP3   OH263030   2.459   4.003   0.690  0.1108 -0.3313  0.1390
13872TIP3    H163031   2.461   3.929   0.630  0.0892  0.2487 -0.5852
13872TIP3    H263032   2.540   3.997   0.740  0.3096 -0.6017 -0.2172
13873TIP3   OH263033   1.989   2.903   2.781 -0.2411  0.0858  0.0251
13873TIP3    H163034   2.080   2.910   2.751 -0.3021  2.2825  0.1649
13873TIP3    H263035   1.988   2.949   2.865 -1.2457 -1.0385  0.6542
13874TIP3   OH263036   2.082   1.098  13.315 -0.2707  0.1920 -0.4598
13874TIP3    H163037   2.170   1.126  13.294 -0.1073 -0.7268 -1.0597
13874TIP3    H263038   2.025   1.166  13.280  0.1543  0.2548 -1.0406
13875TIP3   OH263039   1.300   6.279  14.632  0.8005  0.7494 -0.0398
13875TIP3    H163040   1.270   6.361  14.671  0.9377 -0.2440  2.3346
13875TIP3    H263041   1.219   6.230  14.615  0.7717  0.9219 -0.4092
13876TIP3   OH263042   3.325   6.045   3.201 -0.6050 -0.0637  0.1694
13876TIP3    H163043   3.271   5.987   3.254 -0.5943  0.5995  0.9337
13876TIP3    H263044   3.269   6.071   3.128 -0.5827 -1.0842 -0.2271
13877TIP3   OH263045   1.036   4.264  16.797  0.5949  0.3190 -0.2577
13877TIP3    H163046   1.007   4.262  16.888 -0.3567 -1.9097 -0.5476
13877TIP3    H263047   1.044   4.172  16.772  2.3000  0.8707 -2.0038
13878TIP3   OH263048   1.300   0.524  16.122  0.6254  1.2713 -0.0871
13878TIP3    H163049   1.246   0.446  16.121 -2.1650  2.8625 -4.8512
13878TIP3    H263050   1.248   0.588  16.172 -0.5317  1.8852 -1.9743
13879TIP3   OH263051   2.121   0.647  16.678 -0.4987  0.4615  0.0560
13879TIP3    H163052   2.092   0.565  16.719  2.6621 -1.4907 -1.2470
13879TIP3    H263053   2.104   0.634  16.585 -2.5530  2.5627  0.0681
13880TIP3   OH263054   2.479   4.162   2.034 -0.1197 -0.1714  0.0911
13880TIP3    H163055   2.542   4.194   1.970  0.0983  1.7514  1.2029
13880TIP3    H263056   2.512   4.075   2.057  3.6278  1.5917  2.3726
13881TIP3   OH263057   0.888   5.860   4.990 -0.7958  0.7881  0.3191
13881TIP3    H163058   0.813   5.802   5.004  0.2063 -0.2611  1.5862
13881TIP3    H263059   0.940   5.818   4.922  0.9910 -1.0015  2.6326
13882TIP3   OH263060   5.767   4.555  11.257  0.1251  0.2222 -0.5673
13882TIP3    H163061   5.720   4.576  11.176 -1.9138  0.9294  0.7134
13882TIP3    H263062   5.812   4.473  11.237 -2.7707 -1.2991 -1.5739
13883TIP3   OH263063   3.983   5.443  12.233 -0.6053  0.2943 -0.2362
13883TIP3    H163064   3.979   5.538  12.224 -0.3625  0.3491  0.2198
13883TIP3    H263065   3.934   5.424  12.313  1.1135  0.2330  0.8527
13884TIP3   OH263066   6.434   1.784  12.750 -0.3106 -0.1716 -0.3840
13884TIP3    H163067   6.369   1.795  12.820 -0.0443  0.6792 -0.2653
13884TIP3    H263068   6.508   1.837  12.778 -0.0987 -0.0421 -1.1837
13885TIP3   OH263069   1.843   5.812  12.163  0.0899  0.0201  0.2001
13885TIP3    H163070   1.782   5.869  12.211  0.1557 -0.0665  0.3882
13885TIP3    H263071   1.875   5.750  12.229 -0.9785 -1.0770 -0.2892
13886TIP3   OH263072   2.596   0.167   2.469  0.7354 -0.0726  0.1641
13886TIP3    H163073   2.615   0.080   2.435  0.8323 -0.2677  0.7107
13886TIP3    H263074   2.615   0.226   2.395  0.5140 -0.5224 -0.2541
13887TIP3   OH263075   5.137   6.494  13.742  1.0506 -1.0969  0.3772
13887TIP3    H163076   5.062   6.541  13.706  1.0214  0.8119  2.6290
13887TIP3    H263077   5.175   6.447  13.668  0.5789  1.8790 -1.9197
13888TIP3   OH263078   3.481   3.786   2.276 -0.1681 -0.1471 -0.2263
13888TIP3    H163079   3.497   3.863   2.222 -0.8455  0.4966  0.4562
13888TIP3    H263080   3.530   3.804   2.357 -0.1859 -0.5118 -0.1340
13889TIP3   OH263081   3.948   3.026  13.138 -0.3737  0.0317  0.2439
13889TIP3    H163082   4.004   3.048  13.213  1.0788 -0.9587 -0.5130
13889TIP3    H263083   3.981   3.081  13.067  0.3988 -1.3296 -0.4946
13890TIP3   OH263084   2.916   4.624  13.997  0.5370  0.0052 -0.5628
13890TIP3    H163085   2.998   4.611  14.045  1.0614  0.2770 -1.3737
13890TIP3    H263086   2.941   4.672  13.918 -0.3347 -0.3001 -1.0420
13891TIP3   OH263087   0.600   0.829   6.161 -0.0168 -0.0992  0.4539
13891TIP3    H163088   0.556   0.878   6.230  0.8597 -0.1127  1.0416
13891TIP3    H263089   0.646   0.895   6.109 -0.5743 -0.1004 -0.0482
13892TIP3   OH263090   6.514   0.450  12.545 -0.2998 -0.0479 -0.5154
13892TIP3    H163091   6.514   0.538  12.582 -1.4328 -0.0910 -0.3927
13892TIP3    H263092   6.601   0.441  12.505 -0.4292  1.3985 -1.1909
13893TIP3   OH263093   3.727   2.029   5.330 -0.5500  0.4401  0.6305
13893TIP3    H163094   3.665   2.043   5.258 -0.3538  0.0060  0.3714
13893TIP3    H263095   3.804   1.991   5.287  0.5751  2.5215  0.6684
13894TIP3   OH263096   4.288   6.068  15.428 -0.3986  0.2336 -0.2281
13894TIP3    H163097   4.279   6.009  15.503  1.6435 -0.1132 -0.2117
13894TIP3    H263098   4.318   6.011  15.357 -1.8254  0.6541 -1.2138
13895TIP3   OH263099   4.404   6.059   0.221 -0.0560 -0.0700 -0.1049
13895TIP3    H163100   4.347   6.095   0.289 -0.3725  0.0656 -0.4323
13895TIP3    H263101   4.346   6.007   0.166  0.2819 -0.5420 -0.0151
13896TIP3   OH263102   1.514   6.009   3.175 -0.4709 -0.0365 -0.6426
13896TIP3    H163103   1.443   5.949   3.196 -0.1917 -1.0120 -2.3274
13896TIP3    H263104   1.476   6.096   3.188 -0.5216 -0.4522  3.0166
13897TIP3   OH263105   4.017   4.850   2.488  0.1769 -0.6883 -0.4739
13897TIP3    H163106   4.093   4.906   2.473  0.6114 -0.7101  1.3088
13897TIP3    H263107   4.052   4.775   2.536 -1.1102 -0.0964  1.5259
13898TIP3   OH263108   4.177   6.223   5.761 -0.7753  0.2298  0.7664
13898TIP3    H163109   4.223   6.263   5.687 -0.2685  1.7467  1.8605
13898TIP3    H263110   4.246   6.201   5.824 -1.4056  1.7207  2.0480
13899TIP3   OH263111   5.329   6.481  12.667  0.2832  0.2520  0.1273
13899TIP3    H163112   5.244   6.457  12.705 -0.4153 -0.2626 -1.6396
13899TIP3    H263113   5.307   6.523  12.584  1.7510 -1.4159 -1.1876
13900TIP3   OH263114   4.496   4.159  15.215  0.4531  0.4057 -0.5108
13900TIP3    H163115   4.530   4.248  15.206 -0.4998  0.9766  1.0651
13900TIP3    H263116   4.567   4.111  15.259  1.0082  0.3444 -1.4569
13901TIP3   OH263117   3.363   4.562  12.851  0.2046  0.1122 -0.8240
13901TIP3    H163118   3.427   4.610  12.904  0.8475 -1.2018 -0.3827
13901TIP3    H263119   3.281   4.572  12.899  0.7569 -0.9886  0.4061
13902TIP3   OH263120   5.813   1.361  12.682  0.3127  0.3222 -0.4366
13902TIP3    H163121   5.775   1.402  12.605 -1.3549  0.2051  0.2819
13902TIP3    H263122   5.755   1.287  12.701  2.8819 -2.1013 -1.3415
13903TIP3   OH263123   0.845   6.307  17.056 -0.2974  0.0621  0.2894
13903TIP3    H163124   0.840   6.221  17.014  0.0283  0.2490 -0.1427
13903TIP3    H263125   0.907   6.356  17.003 -1.9031  1.2123 -0.6319
13904TIP3   OH263126   3.904   1.956  15.186 -0.0014  0.3030 -0.1609
13904TIP3    H163127   3.936   1.866  15.189  1.9171  0.9164 -0.6492
13904TIP3    H263128   3.979   2.007  15.154 -0.4636  2.3173  1.7117
13905TIP3   OH263129   6.350   2.570   2.351  0.2016 -0.4726 -0.1009
13905TIP3    H163130   6.433   2.526   2.370  0.4654  0.7783  1.9036
13905TIP3    H263131   6.359   2.656   2.392 -2.5602 -0.7599  1.3186
13906TIP3   OH263132   2.290   4.525   3.654  0.3353  0.7268  0.3364
13906TIP3    H163133   2.352   4.518   3.726  1.1594 -0.8466 -0.4762
13906TIP3    H263134   2.235   4.448   3.662  0.8391  0.1933 -1.0356
13907TIP3   OH263135   6.024   2.093   3.322 -0.2214 -0.1512  0.1334
13907TIP3    H163136   6.091   2.043   3.275  0.3937 -0.4729  1.3261
13907TIP3    H263137   5.942   2.046   3.305  0.4009 -1.8544  1.5675
13908TIP3   OH263138   5.385   0.783  16.611  0.2637 -0.4257 -0.0164
13908TIP3    H163139   5.380   0.756  16.702 -2.1186 -2.5933 -0.6720
13908TIP3    H263140   5.302   0.828  16.595  1.0020  0.6627 -0.9356
13909TIP3   OH263141   2.943   3.969  11.187  0.1399 -0.1517 -0.0369
13909TIP3    H163142   2.901   3.919  11.117 -0.1390 -1.1452  0.8110
13909TIP3    H263143   2.901   3.938  11.267  0.4111  1.0067  0.5798
13910TIP3   OH263144   5.866   5.528   0.160 -0.5107 -0.2803 -0.1886
13910TIP3    H163145   5.897   5.616   0.181 -2.8021  0.5432  0.0381
13910TIP3    H263146   5.891   5.514   0.069 -0.0159  0.5559 -0.1859
13911TIP3   OH263147   2.053   0.765   3.154  0.0376  0.2621 -0.1221
13911TIP3    H163148   2.028   0.834   3.093 -0.1006 -1.1136 -1.7067
13911TIP3    H263149   2.133   0.728   3.118 -0.7792 -1.4808 -0.2782
13912TIP3   OH263150   5.602   1.956  10.741 -0.2666 -0.1312 -0.2001
13912TIP3    H163151   5.651   1.917  10.813  3.6077  0.0639 -2.4560
13912TIP3    H263152   5.542   1.887  10.713  0.9872 -1.6633  0.7254
13913TIP3   OH263153   1.088   4.970   6.567 -0.3161  0.1764 -0.1335
13913TIP3    H163154   1.043   4.887   6.551  0.4744 -0.1453 -0.7086
13913TIP3    H263155   1.054   4.999   6.652 -0.7348 -0.6402 -0.0140
13914TIP3   OH263156   2.269   4.877  15.255 -0.1457  0.2105  0.2539
13914TIP3    H163157   2.275   4.872  15.159 -0.4384  1.1509  0.1752
13914TIP3    H263158   2.284   4.788  15.285 -0.8005 -0.2410 -0.7164
13915TIP3   OH263159   5.854   0.421   2.413  0.2443 -0.0288 -0.2357
13915TIP3    H163160   5.930   0.475   2.434 -0.1745  1.0596 -1.4008
13915TIP3    H263161   5.837   0.438   2.321 -0.8725 -0.9448 -0.2161
13916TIP3   OH263162   1.639   2.639   3.961 -0.0925 -0.1828 -0.4593
13916TIP3    H163163   1.731   2.639   3.987 -0.0529  1.2649 -0.5109
13916TIP3    H263164   1.609   2.549   3.976  0.5455 -0.0076  2.3728
13917TIP3   OH263165   3.988   3.930  12.922 -0.0022  0.0384  0.0700
13917TIP3    H163166   4.011   3.928  13.015 -1.6213 -0.8790  0.4852
13917TIP3    H263167   4.058   3.881  12.879 -0.0038 -0.8005  0.9965
13918TIP3   OH263168   3.642   0.246  12.267  0.0451  0.0360  0.2182
13918TIP3    H163169   3.681   0.158  12.271  1.2082  0.5733  1.6065
13918TIP3    H263170   3.598   0.256  12.351 -0.4952  0.6204 -0.1260
13919TIP3   OH263171   0.533   4.250  11.886 -0.1716 -0.2515  0.6983
13919TIP3    H163172   0.619   4.291  11.889 -0.5804  0.6168  1.2466
13919TIP3    H263173   0.497   4.263  11.974 -0.1383 -2.2573  1.0606
13920TIP3   OH263174   0.459   1.792  14.860  0.3641  0.6055  0.2826
13920TIP3    H163175   0.486   1.882  14.876  2.2973  0.4457 -1.6503
13920TIP3    H263176   0.535   1.751  14.820 -0.2799 -2.0660  1.5856
13921TIP3   OH263177   3.171   0.085   6.618  0.5042  0.2790  0.8290
13921TIP3    H163178   3.121   0.003   6.624  0.0874  0.4930  0.3220
13921TIP3    H263179   3.252   0.060   6.573 -0.2403  0.4104 -0.6295
13922TIP3   OH263180   4.884   6.676   3.323 -0.4078 -0.1942  0.2519
13922TIP3    H163181   4.804   6.691   3.374 -0.7821  1.8823 -0.8343
13922TIP3    H263182   4.955   6.703   3.381 -0.7380  0.9604  0.1308
13923TIP3   OH263183   2.331   2.865   1.854 -0.4823 -0.0094 -0.3430
13923TIP3    H163184   2.347   2.917   1.933 -0.9758 -1.8050  1.0412
13923TIP3    H263185   2.407   2.881   1.798 -1.5124  3.6818 -0.9579
13924TIP3   OH263186   4.272   2.534   4.681 -0.2561 -0.4475 -0.1813
13924TIP3    H163187   4.329   2.597   4.636  1.5624 -1.1296  1.0510
13924TIP3    H263188   4.191   2.583   4.697  1.4141  2.0391  1.6143
13925TIP3   OH263189   6.151   2.108  16.238 -0.0628 -0.1648 -0.3938
13925TIP3    H163190   6.077   2.156  16.203  0.7003  1.4701  0.1145
13925TIP3    H263191   6.160   2.031  16.182 -1.6449  0.0149 -0.9186
13926TIP3   OH263192   1.903   0.371  16.523 -0.5731  0.6908  0.5360
13926TIP3    H163193   1.966   0.395  16.455 -0.2593  1.2843  1.0269
13926TIP3    H263194   1.950   0.307  16.577  0.4169  2.6435  2.1266
13927TIP3   OH263195   1.497   4.535   5.400  0.5578 -0.4258 -0.2607
13927TIP3    H163196   1.482   4.455   5.450  2.6012  0.1480  1.4266
13927TIP3    H263197   1.452   4.520   5.317 -3.4055 -1.2721  1.7894
13928TIP3   OH263198   2.805   3.877  13.315  0.5287 -0.5705  0.5595
13928TIP3    H163199   2.875   3.820  13.283  1.4864  0.5952  0.5098
13928TIP3    H263200   2.849   3.959  13.338 -0.4991 -0.4781  2.4526
13929TIP3   OH263201   0.997   4.593   1.752  0.3685 -0.6082  0.2762
13929TIP3    H163202   1.056   4.641   1.811  1.8338 -1.0476 -0.7609
13929TIP3    H263203   0.966   4.660   1.691  0.5570 -0.5448  0.2485
13930TIP3   OH263204   2.442   1.067  14.924  0.2062  0.0505  0.1271
13930TIP3    H163205   2.425   1.045  15.016  1.0792  1.6069  0.6871
13930TIP3    H263206   2.406   0.993  14.876  0.9054 -1.4456  1.7714
13931TIP3   OH263207   4.479   2.640  14.444  0.6286 -0.3366 -0.0554
13931TIP3    H163208   4.452   2.633  14.536  0.8621 -0.6380 -0.0081
13931TIP3    H263209   4.397   2.643  14.395  0.4872  0.7594  0.2237
13932TIP3   OH263210   1.839   5.609  13.670  0.1525 -0.1086  0.5943
13932TIP3    H163211   1.872   5.533  13.717 -1.0371  0.5427  2.6384
13932TIP3    H263212   1.744   5.594  13.665  0.2662 -0.2993 -1.9737
13933TIP3   OH263213   1.956   4.354   3.198  0.8069  0.0753 -0.3626
13933TIP3    H163214   1.910   4.331   3.280  1.2013  2.6846  0.7045
13933TIP3    H263215   1.907   4.308   3.130 -2.0271  0.8625  0.9547
13934TIP3   OH263216   2.816   0.456   2.844 -0.3055 -0.0500  0.1665
13934TIP3    H163217   2.761   0.422   2.914 -0.6095  0.6781  0.2867
13934TIP3    H263218   2.769   0.432   2.764  0.4116 -1.5431  0.1542
13935TIP3   OH263219   3.992   1.296  14.445  0.7233 -0.2592 -0.1639
13935TIP3    H163220   3.925   1.337  14.499  1.9815  0.6696  0.7427
13935TIP3    H263221   3.970   1.322  14.355 -0.4718 -0.4962  0.0440
13936TIP3   OH263222   0.828   3.623   6.270  0.0513 -0.4039  0.3276
13936TIP3    H163223   0.838   3.677   6.192 -1.1587  1.1238  1.1509
13936TIP3    H263224   0.901   3.649   6.327 -0.5534  0.4692  0.7411
13937TIP3   OH263225   0.326   3.037   6.962  0.1675  0.0020 -0.1339
13937TIP3    H163226   0.284   2.961   7.003  0.2750  0.8434  1.6450
13937TIP3    H263227   0.347   3.008   6.873  3.2911 -3.2428  1.3941
13938TIP3   OH263228   6.300   2.116  15.384 -0.6917 -0.1799  0.6620
13938TIP3    H163229   6.317   2.210  15.375  1.5406 -0.3923  1.9443
13938TIP3    H263230   6.245   2.109  15.462 -2.1521  0.1422 -0.3165
13939TIP3   OH263231   0.128   0.246   0.983  0.4756  0.3856  0.2024
13939TIP3    H163232   0.198   0.180   0.981 -0.8083 -1.0317  0.1487
13939TIP3    H263233   0.076   0.228   0.905 -1.9943 -0.9875  2.0192
13940TIP3   OH263234   3.347   1.416   6.390  0.1406  0.1965  0.4335
13940TIP3    H163235   3.274   1.466   6.426  0.2225  0.4461  0.2516
13940TIP3    H263236   3.416   1.423   6.457 -0.1800 -0.4868  0.8533
13941TIP3   OH263237   1.307   5.475   3.647  0.0143 -0.1902 -0.5204
13941TIP3    H163238   1.237   5.520   3.600 -0.8565 -0.0273  0.8752
13941TIP3    H263239   1.262   5.407   3.698  0.8314  0.0469  0.5658
13942TIP3   OH263240   6.096   6.593  15.542  0.7512 -0.0236 -0.3839
13942TIP3    H163241   6.163   6.526  15.556  0.4918  0.0637  1.5879
13942TIP3    H263242   6.101   6.649  15.620 -1.0814  0.4447 -0.5490
13943TIP3   OH263243   0.950   5.909  12.793  0.1679 -0.2758 -0.0846
13943TIP3    H163244   0.917   5.844  12.855 -1.3929 -0.0223 -0.6093
13943TIP3    H263245   0.948   5.865  12.708  1.8384 -0.4644 -0.0502
13944TIP3   OH263246   4.154   0.061  11.749  0.3359 -0.2228 -0.3202
13944TIP3    H163247   4.062   0.045  11.725 -0.2316  0.0884  1.4671
13944TIP3    H263248   4.150   0.082  11.843  2.0305  1.6043 -0.6055
13945TIP3   OH263249   2.185   0.057   1.640 -0.1354 -0.3973 -0.0150
13945TIP3    H163250   2.265   0.110   1.631 -0.3499  0.6351  3.0122
13945TIP3    H263251   2.198   0.007   1.720 -1.3069 -2.6166 -1.1156
13946TIP3   OH263252   5.099   6.325  16.154 -0.7317  0.8077 -0.4255
13946TIP3    H163253   5.177   6.275  16.177 -0.1758  1.5431 -0.7079
13946TIP3    H263254   5.127   6.416  16.153 -1.6363  1.1011 -0.3473
13947TIP3   OH263255   1.853   3.419  16.398 -0.0708  0.3294  0.1251
13947TIP3    H163256   1.767   3.443  16.432 -0.6654 -0.9690 -0.4093
13947TIP3    H263257   1.844   3.426  16.303  0.4880  0.4086  0.0753
13948TIP3   OH263258   3.129   3.399  13.304  0.2611  0.0200  0.1439
13948TIP3    H163259   3.129   3.398  13.399  0.9520  0.3002  0.1519
13948TIP3    H263260   3.065   3.466  13.280 -0.0707 -0.2016  0.4014
13949TIP3   OH263261   5.240   3.519  10.627 -0.6756 -0.4634  0.1433
13949TIP3    H163262   5.330   3.511  10.656 -0.6199  0.8003  0.3557
13949TIP3    H263263   5.193   3.450  10.675  0.0658 -0.7469  0.4703
13950TIP3   OH263264   4.428   6.495  11.886 -0.5204 -0.4677  0.0861
13950TIP3    H163265   4.382   6.413  11.873 -3.2460  1.2535 -2.3484
13950TIP3    H263266   4.399   6.526  11.972 -2.5499 -0.3290 -0.5995
13951TIP3   OH263267   5.029   1.228   1.680  0.0852  0.1795 -0.2944
13951TIP3    H163268   5.053   1.208   1.590 -2.5781 -1.0788 -0.8369
13951TIP3    H263269   4.998   1.145   1.716  1.3153  0.5954  1.9161
13952TIP3   OH263270   4.511   6.104  11.664 -0.6181  0.3626  0.2822
13952TIP3    H163271   4.416   6.107  11.665 -0.8460 -2.9029  0.1539
13952TIP3    H263272   4.533   6.063  11.581  0.8927  0.6244  0.5201
13953TIP3   OH263273   6.167   3.565  14.755  0.0447  0.1993  0.2920
13953TIP3    H163274   6.259   3.589  14.744  0.1185 -0.1481  0.1548
13953TIP3    H263275   6.137   3.621  14.827  1.0009 -1.3585  1.9863
13954TIP3   OH263276   4.661   5.044  17.164 -0.4332 -0.1737  0.1580
13954TIP3    H163277   4.739   4.991  17.149  1.2105  2.2046 -0.3059
13954TIP3    H263278   4.645   5.038  17.258  0.9651  0.0993  0.4288
13955TIP3   OH263279   3.815   0.328  16.548  0.2370 -0.0464 -0.0064
13955TIP3    H163280   3.836   0.310  16.456  1.6978 -0.6677  0.4186
13955TIP3    H263281   3.720   0.339  16.549  0.1996  0.0345 -1.6000
13956TIP3   OH263282   6.591   2.617  16.356 -0.4836 -0.2932 -0.4429
13956TIP3    H163283   6.583   2.524  16.376 -0.6281  0.0876  1.4210
13956TIP3    H263284   6.595   2.620  16.260 -0.1039 -2.2267 -0.5328
13957TIP3   OH263285   4.711   0.244  17.344 -0.1291 -0.3453 -0.2579
13957TIP3    H163286   4.742   0.279  17.260  1.2881 -1.5102 -0.2684
13957TIP3    H263287   4.759   0.295  17.409  1.0332 -1.3842 -0.2531
13958TIP3   OH263288   5.304   3.329   2.955  0.6160  0.0713 -0.5170
13958TIP3    H163289   5.226   3.385   2.958  1.0626  0.7016 -0.3990
13958TIP3    H263290   5.270   3.243   2.932 -0.0752  0.4192 -0.8600
13959TIP3   OH263291   6.436   2.911   1.434 -0.6974 -0.3731 -0.3012
13959TIP3    H163292   6.386   2.862   1.369 -0.6913  0.5581 -1.0183
13959TIP3    H263293   6.383   2.989   1.452  0.6959  0.8917 -1.4585
13960TIP3   OH263294   4.757   3.489  16.463 -0.1205  0.0865 -0.6179
13960TIP3    H163295   4.714   3.471  16.547 -1.1209  1.2091 -0.8742
13960TIP3    H263296   4.811   3.411  16.447 -0.5002 -0.4728  0.6917
13961TIP3   OH263297   3.602   4.836  16.900 -0.4338  0.0314 -0.1144
13961TIP3    H163298   3.513   4.868  16.919 -0.4685 -0.4313  0.5271
13961TIP3    H263299   3.642   4.823  16.986  0.6598  1.3141 -0.4009
13962TIP3   OH263300   6.495   5.457  11.982 -0.1977  0.2749 -0.2810
13962TIP3    H163301   6.590   5.458  11.972 -0.1476 -2.8185 -1.1763
13962TIP3    H263302   6.481   5.421  12.070 -0.6614  3.3197  1.0321
13963TIP3   OH263303   6.374   0.879   4.172 -0.2376 -0.0232  0.0834
13963TIP3    H163304   6.430   0.953   4.146 -1.9504  1.2403 -0.1917
13963TIP3    H263305   6.399   0.861   4.262  0.0385  1.0554  0.2389
13964TIP3   OH263306   1.288   3.910   2.069 -0.6018 -0.3782  0.6380
13964TIP3    H163307   1.251   3.828   2.102 -0.6592 -0.3709  0.5922
13964TIP3    H263308   1.381   3.892   2.059 -0.9151 -1.0823 -1.2951
13965TIP3   OH263309   5.121   3.912  14.462 -0.0535  0.3073 -0.5655
13965TIP3    H163310   5.164   3.997  14.471  1.1594 -0.2483 -0.8097
13965TIP3    H263311   5.169   3.855  14.522 -1.0735 -0.1357 -0.1510
13966TIP3   OH263312   5.635   4.646  16.566  0.1212 -0.6175 -0.4567
13966TIP3    H163313   5.601   4.558  16.553 -1.0622 -0.3726  0.7355
13966TIP3    H263314   5.648   4.680  16.478 -1.0674 -1.3818 -0.9585
13967TIP3   OH263315   6.569   2.702  15.186 -0.1023  0.0543 -0.5369
13967TIP3    H163316   6.644   2.646  15.202  1.2019  1.9573  0.4562
13967TIP3    H263317   6.596   2.761  15.116 -0.5728  0.8667 -0.0636
13968TIP3   OH263318   5.385   6.373  13.323 -0.2613 -0.3096 -0.1862
13968TIP3    H163319   5.394   6.292  13.273 -1.2719 -0.7046  0.2400
13968TIP3    H263320   5.334   6.430  13.266 -1.5302 -0.8087  0.4270
13969TIP3   OH263321   2.117   0.991  15.282  0.0282 -0.0125  0.1579
13969TIP3    H163322   2.130   0.965  15.374 -2.1872  0.5851  0.6995
13969TIP3    H263323   2.101   0.908  15.236 -2.7909 -0.0940  1.1025
13970TIP3   OH263324   6.330   1.400  13.836 -0.1767 -0.1247 -0.4099
13970TIP3    H163325   6.348   1.353  13.917  2.2265 -3.2684 -2.5191
13970TIP3    H263326   6.417   1.427  13.804 -1.1583  2.1759 -1.3895
13971TIP3   OH263327   6.537   3.054   5.015 -0.0909  0.2898  0.2449
13971TIP3    H163328   6.598   3.123   4.988 -0.4897  0.8811  0.8266
13971TIP3    H263329   6.585   2.972   5.000  0.6699  0.7241  0.2611
13972TIP3   OH263330   3.380   0.283   3.519  0.0886 -0.0185  0.4481
13972TIP3    H163331   3.461   0.328   3.542  1.6762 -2.7347  0.7176
13972TIP3    H263332   3.367   0.219   3.590 -1.1974 -0.9650 -0.5794
13973TIP3   OH263333   4.725   0.627   0.210 -0.3879  0.2146  0.0159
13973TIP3    H163334   4.696   0.718   0.210 -1.0277  0.0239  0.4015
13973TIP3    H263335   4.768   0.615   0.126  1.0753  1.2881  0.5741
13974TIP3   OH263336   3.490   5.830  14.975 -0.1928  0.8036  0.0189
13974TIP3    H163337   3.545   5.866  14.906 -1.3849  1.2188 -0.7538
13974TIP3    H263338   3.514   5.878  15.053  0.2761  1.2396 -0.3911
13975TIP3   OH263339   4.258   4.362   3.037 -0.2939 -0.1119  0.1923
13975TIP3    H163340   4.219   4.445   3.011 -1.3023 -0.7004 -0.2575
13975TIP3    H263341   4.219   4.298   2.978  0.1955 -0.9510  0.7575
13976TIP3   OH263342   1.540   0.517   2.532 -0.2069  0.0448  0.3037
13976TIP3    H163343   1.524   0.463   2.610  1.3067  0.3442  0.8470
13976TIP3    H263344   1.452   0.536   2.499 -0.8185 -2.6732  0.1091
13977TIP3   OH263345   0.978   4.007  16.754  0.1349  0.1816  0.1443
13977TIP3    H163346   1.020   3.955  16.822  1.3290  0.5945 -0.2542
13977TIP3    H263347   0.890   3.971  16.748  0.5838 -1.0637  0.6467
13978TIP3   OH263348   2.453   2.168  16.949 -0.6196  0.3981 -0.4303
13978TIP3    H163349   2.420   2.242  16.898 -1.8554  1.0420  1.2290
13978TIP3    H263350   2.446   2.196  17.040  0.7121 -1.0428  0.1620
13979TIP3   OH263351   4.748   0.441  15.144 -0.4768  0.3355 -0.3076
13979TIP3    H163352   4.716   0.491  15.218 -0.2365 -1.6668  1.2412
13979TIP3    H263353   4.744   0.350  15.173  0.8726 -0.4275 -2.2752
13980TIP3   OH263354   6.001   5.500  14.586 -0.1938  0.8574  0.4125
13980TIP3    H163355   6.006   5.480  14.680 -0.3318 -0.5987  0.1277
13980TIP3    H263356   5.929   5.446  14.554 -0.2258  1.4368 -0.5209
13981TIP3   OH263357   0.163   4.116   3.306  0.7740  0.1730  0.4349
13981TIP3    H163358   0.166   4.161   3.222  1.9576 -0.4133  0.1426
13981TIP3    H263359   0.070   4.107   3.326  0.4620 -0.5652 -1.2769
13982TIP3   OH263360   0.935   1.585   6.080 -0.9512 -0.2981 -0.4184
13982TIP3    H163361   0.932   1.519   6.149 -1.0357  0.4433  0.3050
13982TIP3    H263362   1.021   1.627   6.091 -1.4640  0.6606  0.0554
13983TIP3   OH263363   0.478   3.423   2.413 -0.1599 -0.0820  0.0621
13983TIP3    H163364   0.430   3.396   2.492 -1.6183  1.5726 -0.2179
13983TIP3    H263365   0.445   3.365   2.345  0.2497 -0.7445  0.4151
13984TIP3   OH263366   2.031   0.090   4.116 -0.1056  0.3742 -0.3161
13984TIP3    H163367   1.996   0.088   4.205  1.6802  0.6753  0.4428
13984TIP3    H263368   2.037   0.183   4.095  1.4333  0.4110  0.1212
13985TIP3   OH263369   1.221   6.015  11.817 -0.1731 -0.1070  0.4243
13985TIP3    H163370   1.158   6.065  11.765 -0.2746  2.3333  2.6453
13985TIP3    H263371   1.166   5.963  11.877 -0.2446  2.0136  2.3541
13986TIP3   OH263372   1.791   5.505   1.334  0.1535 -0.1788  0.6074
13986TIP3    H163373   1.777   5.462   1.419  1.6163  0.1298  1.0448
13986TIP3    H263374   1.883   5.533   1.337  0.9270 -2.0315 -1.8903
13987TIP3   OH263375   2.324   1.570  15.098 -0.1852  0.6880  0.2254
13987TIP3    H163376   2.267   1.639  15.132  0.0545  1.0374 -0.0691
13987TIP3    H263377   2.413   1.599  15.120  0.0284  1.2787 -1.2784
13988TIP3   OH263378   5.546   0.867  11.875  0.0941 -0.0094  0.2589
13988TIP3    H163379   5.487   0.939  11.854 -0.9278 -0.6080  0.9817
13988TIP3    H263380   5.627   0.888  11.829 -1.1641  0.0681 -2.0680
13989TIP3   OH263381   6.110   2.130   0.235 -0.4153  0.0440 -0.5761
13989TIP3    H163382   6.050   2.160   0.304 -1.5499 -2.8386 -0.1539
13989TIP3    H263383   6.197   2.150   0.269 -0.8964 -1.9860  2.1815
13990TIP3   OH263384   4.831   5.926  14.263  0.0412  0.3746  0.0846
13990TIP3    H163385   4.869   6.014  14.260  0.7489  0.1252  1.0476
13990TIP3    H263386   4.862   5.884  14.183 -0.3011  0.9955 -0.3802
13991TIP3   OH263387   2.621   3.275   2.120 -0.3616  0.8070 -0.1198
13991TIP3    H163388   2.577   3.358   2.139 -3.8497 -0.9491  0.2947
13991TIP3    H263389   2.594   3.254   2.031  1.6543  0.7089 -0.7534
13992TIP3   OH263390   1.181   3.083  12.978 -0.3519  0.4553 -0.2093
13992TIP3    H163391   1.148   3.025  13.047  1.8992  1.0924  1.5071
13992TIP3    H263392   1.116   3.153  12.973 -0.7395  0.2171  1.0265
13993TIP3   OH263393   1.545   6.143   1.310  0.5382  0.0766 -0.5741
13993TIP3    H163394   1.631   6.174   1.281  0.5334 -0.6659 -1.3847
13993TIP3    H263395   1.482   6.192   1.257  0.4961 -0.3768 -0.9421
13994TIP3   OH263396   4.198   2.812  16.225 -0.2648 -0.3391 -0.0661
13994TIP3    H163397   4.250   2.761  16.287  0.2027  0.8159  0.5247
13994TIP3    H263398   4.136   2.749  16.188  1.8360 -1.8971 -1.1765
13995TIP3   OH263399   1.514   2.837   5.172  0.9131 -0.1636  0.3446
13995TIP3    H163400   1.483   2.893   5.101  1.5244 -0.3942 -0.1106
13995TIP3    H263401   1.548   2.898   5.238  0.9872  0.0251  0.1312
13996TIP3   OH263402   0.058   1.267  12.661 -0.2068 -0.5703 -0.2122
13996TIP3    H163403   0.029   1.293  12.574 -0.9887 -1.6840 -0.3071
13996TIP3    H263404   0.054   1.171  12.661  1.9130 -0.7251  0.3313
13997TIP3   OH263405   4.975   4.834  10.858  0.0520 -1.2131 -0.2320
13997TIP3    H163406   4.889   4.854  10.823 -0.8671 -0.7202  2.1529
13997TIP3    H263407   4.973   4.739  10.873 -0.4878 -1.0560  0.7752
13998TIP3   OH263408   6.645   6.367  16.954 -0.3009  0.0967  0.3924
13998TIP3    H163409   6.670   6.413  17.034  0.2533 -0.5754  0.6176
13998TIP3    H263410   6.556   6.337  16.970  0.1868 -0.9829  1.2113
13999TIP3   OH263411   6.400   2.768   5.882 -0.7749 -0.0397 -0.1586
13999TIP3    H163412   6.373   2.794   5.794  1.2096  2.0416 -0.2596
13999TIP3    H263413   6.342   2.817   5.941  0.7307  2.1689 -0.3789
14000TIP3   OH263414   3.776   2.019   3.956  0.5019 -1.3932 -0.3446
14000TIP3    H163415   3.800   2.057   4.041 -1.6489  1.9652 -1.0618
14000TIP3    H263416   3.691   1.977   3.972 -0.1736 -0.2731 -0.9120
14001TIP3   OH263417   1.119   0.028   0.975 -0.1734 -0.7423 -0.3163
14001TIP3    H163418   1.204  -0.010   0.996 -1.0645 -1.8284  1.6296
14001TIP3    H263419   1.100  -0.003   0.886  1.2902 -0.7626 -0.6442
14002TIP3   OH263420   4.277   4.565  15.920  0.0190 -0.4186 -0.2327
14002TIP3    H163421   4.182   4.572  15.931 -0.0574 -0.7275 -0.6802
14002TIP3    H263422   4.312   4.574  16.009 -0.4226 -0.2397 -0.0731
14003TIP3   OH263423   5.230   2.136  16.699  0.3789 -0.1300 -0.6685
14003TIP3    H163424   5.234   2.045  16.726  0.8420  0.2802  0.7489
14003TIP3    H263425   5.321   2.167  16.705  0.1360  0.5847 -0.4899
14004TIP3   OH263426   2.887   6.618   1.826  0.6308 -0.3571  0.1625
14004TIP3    H163427   2.940   6.545   1.793 -0.0495 -2.3432  3.0142
14004TIP3    H263428   2.797   6.586   1.820  0.0315  1.4581 -1.1483
14005TIP3   OH263429   4.961   1.940  14.977  0.3186  0.3524 -0.6797
14005TIP3    H163430   4.967   1.894  14.893 -0.3698 -1.6590  0.3059
14005TIP3    H263431   5.046   1.928  15.018  0.7933  1.6801 -1.2019
14006TIP3   OH263432   3.106   6.168  14.818  0.0930  0.0606 -0.2883
14006TIP3    H163433   3.062   6.123  14.746 -1.5805  0.9562  0.1237
14006TIP3    H263434   3.185   6.205  14.779  0.9765 -2.2596 -0.8749
14007TIP3   OH263435   1.205   1.253  13.748  0.5607 -0.4420  0.2382
14007TIP3    H163436   1.145   1.258  13.822 -0.2082 -0.1636 -0.3915
14007TIP3    H263437   1.264   1.327  13.759  0.7975 -0.7067  0.8480
14008TIP3   OH263438   3.946   0.928   6.309 -0.0751 -0.1125  0.0234
14008TIP3    H163439   3.885   0.886   6.370  1.8966 -2.9070  0.3245
14008TIP3    H263440   3.903   0.924   6.224 -0.3664 -2.0346  0.2190
14009TIP3   OH263441   4.557   0.962  10.853  0.7173 -0.8849 -0.2534
14009TIP3    H163442   4.575   0.887  10.798 -2.1499 -0.8616 -1.4366
14009TIP3    H263443   4.609   1.033  10.815  1.5355 -1.6870 -0.6648
14010TIP3   OH263444   5.247   1.889  16.103  0.2553 -0.1771 -0.3670
14010TIP3    H163445   5.239   1.823  16.034  1.6351 -0.6467 -0.1136
14010TIP3    H263446   5.226   1.972  16.060  1.6774 -0.3841 -1.5392
14011TIP3   OH263447   3.690   3.644   3.850 -0.0411  0.7010 -0.0063
14011TIP3    H163448   3.724   3.709   3.788  0.0500  0.7607  0.1058
14011TIP3    H263449   3.702   3.560   3.806 -2.7164  0.9175 -1.3804
14012TIP3   OH263450   3.891   6.212  13.143  0.6235  0.8188 -0.7755
14012TIP3    H163451   3.971   6.245  13.103 -0.3902  2.2265 -1.7690
14012TIP3    H263452   3.820   6.252  13.092 -0.7218 -0.4451  0.0028
14013TIP3   OH263453   6.172   1.609  14.538  0.0021 -0.5596  0.0881
14013TIP3    H163454   6.179   1.693  14.491 -1.1231 -0.1722  0.5579
14013TIP3    H263455   6.242   1.611  14.602  1.4639 -1.0219 -1.4307
14014TIP3   OH263456   5.725   2.954  11.247  0.3736 -0.2661 -0.2188
14014TIP3    H163457   5.783   2.982  11.318 -0.2442 -0.4810  0.3918
14014TIP3    H263458   5.752   2.864  11.229 -1.2061 -1.2058  1.6577
14015TIP3   OH263459   2.798   1.245  16.201  0.2527  0.6660 -0.0415
14015TIP3    H163460   2.774   1.157  16.229  2.0675 -0.0781 -0.6248
14015TIP3    H263461   2.737   1.265  16.130  0.9966 -0.9355 -1.1882
14016TIP3   OH263462   2.650   0.578   4.370  0.7983  0.4773 -0.2691
14016TIP3    H163463   2.672   0.554   4.280  1.8197  0.1352  0.0634
14016TIP3    H263464   2.555   0.566   4.375  0.4773  1.9522 -1.7267
14017TIP3   OH263465   4.618   2.703  11.383  0.3347  0.2488 -0.6811
14017TIP3    H163466   4.560   2.736  11.313 -2.0403 -1.4763  0.3476
14017TIP3    H263467   4.643   2.781  11.432  0.8453  1.3158 -2.5378
14018TIP3   OH263468   1.694   4.140  14.584 -0.0372 -0.0262  0.0366
14018TIP3    H163469   1.679   4.197  14.660 -0.8508  0.2144 -0.2926
14018TIP3    H263470   1.735   4.062  14.621  1.8082  1.0391  0.4131
14019TIP3   OH263471   1.284   1.540  15.110  0.6170  0.1107 -0.1231
14019TIP3    H163472   1.353   1.553  15.045 -0.4321 -0.5671 -1.4590
14019TIP3    H263473   1.286   1.446  15.129  0.6332  0.2343  0.4890
14020TIP3   OH263474   4.673   3.341  10.846  0.3068  0.4280 -0.8540
14020TIP3    H163475   4.703   3.406  10.910  1.2259 -0.3956 -0.4141
14020TIP3    H263476   4.625   3.277  10.898  1.6970 -0.6455 -0.8340
14021TIP3   OH263477   1.535   4.841   3.361 -0.1614 -0.0329 -0.1273
14021TIP3    H163478   1.547   4.854   3.455  1.2519  1.9625 -0.5128
14021TIP3    H263479   1.601   4.897   3.321  1.1504 -2.9144 -2.3284
14022TIP3   OH263480   3.772   5.525  13.817 -0.3478  0.0928  0.1364
14022TIP3    H163481   3.698   5.546  13.760 -0.8248  2.7284  1.5576
14022TIP3    H263482   3.732   5.510  13.903  0.5396 -1.7098  0.2766
14023TIP3   OH263483   0.709   1.603   5.906 -0.3952 -0.3100  0.5354
14023TIP3    H163484   0.760   1.603   5.987  1.7408  1.0418 -0.7062
14023TIP3    H263485   0.737   1.522   5.862  0.0002 -0.0299  0.2652
14024TIP3   OH263486   0.600   3.946   4.904  0.2168  0.3489  0.0861
14024TIP3    H163487   0.581   3.902   4.821 -2.0371  1.9657 -0.3534
14024TIP3    H263488   0.612   4.038   4.880 -0.6905  0.8838  1.5758
14025TIP3   OH263489   2.017   2.928  14.287 -0.4698 -0.0649  0.5642
14025TIP3    H163490   2.044   2.984  14.360  0.0646 -0.3683  0.6127
14025TIP3    H263491   2.097   2.880  14.264 -0.1225  1.3756 -1.4730
14026TIP3   OH263492   1.856   5.060   0.771  0.1675 -1.0934 -0.5872
14026TIP3    H163493   1.801   5.001   0.719 -0.2307 -1.6476  0.4463
14026TIP3    H263494   1.823   5.052   0.860 -0.6142  1.5518 -0.5642
14027TIP3   OH263495   3.683   5.013   2.011  0.2694 -0.6289  0.2580
14027TIP3    H163496   3.636   4.933   2.034 -0.6136 -0.0287  0.5914
14027TIP3    H263497   3.730   4.991   1.931  0.5073 -1.6524  0.6679
14028TIP3   OH263498   6.703   5.114  15.341 -0.4781 -0.0191 -0.0268
14028TIP3    H163499   6.638   5.048  15.316 -0.0505 -0.3301 -0.3296
14028TIP3    H263500   6.776   5.100  15.281  0.0509  0.0515  0.5915
14029TIP3   OH263501   0.558   2.603  12.663 -0.0710 -0.1497  0.2511
14029TIP3    H163502   0.510   2.648  12.594  0.0506 -0.6069 -0.1351
14029TIP3    H263503   0.538   2.653  12.743  0.5542  0.9469 -0.2633
14030TIP3   OH263504   1.088   5.113   3.365  0.3481  0.0446  0.0015
14030TIP3    H163505   1.137   5.131   3.445 -3.7311  1.1058  2.5785
14030TIP3    H263506   1.071   5.200   3.327  1.8311 -0.4146 -1.9140
14031TIP3   OH263507   5.777   5.856   3.083 -0.5156 -0.0196 -0.3092
14031TIP3    H163508   5.703   5.800   3.107 -1.8110  0.3403 -3.0518
14031TIP3    H263509   5.854   5.802   3.097 -1.4675 -1.2557  0.3619
14032TIP3   OH263510   1.038   4.782  13.613 -0.5032 -0.3406  0.1404
14032TIP3    H163511   0.952   4.746  13.632 -0.9134  0.5084 -0.0715
14032TIP3    H263512   1.034   4.872  13.644 -0.1196  0.0875 -1.0113
14033TIP3   OH263513   2.828   5.310   2.104 -0.2462  0.3844 -0.4691
14033TIP3    H163514   2.893   5.365   2.148 -0.1166 -1.7540  2.2211
14033TIP3    H263515   2.867   5.290   2.019  1.1143  1.7671 -0.2074
14034TIP3   OH263516   5.642   1.459   3.080  0.1565 -0.2864  0.6689
14034TIP3    H163517   5.673   1.379   3.123 -1.0004 -0.1372  1.8267
14034TIP3    H263518   5.617   1.517   3.152  0.8915  1.1160 -0.1534
14035TIP3   OH263519   0.532   1.481   1.139  0.0526 -0.4525  0.1997
14035TIP3    H163520   0.455   1.434   1.110 -0.8495  0.6703  0.6628
14035TIP3    H263521   0.547   1.450   1.229  0.3632 -0.9233 -0.0102
14036TIP3   OH263522   0.657   5.111   0.392  0.7944  0.2212 -0.0984
14036TIP3    H163523   0.673   5.120   0.298  3.3076  0.7976  0.3293
14036TIP3    H263524   0.655   5.016   0.407 -1.3057  0.0729 -0.9172
14037TIP3   OH263525   4.870   1.791  14.665  0.7444  0.1106 -0.1845
14037TIP3    H163526   4.949   1.797  14.611  1.0265  0.6571  0.2833
14037TIP3    H263527   4.897   1.741  14.742  1.0526  1.5615  0.6886
14038TIP3   OH263528   3.736   3.170   1.682 -0.0018  0.1569  0.1200
14038TIP3    H163529   3.663   3.231   1.682 -0.9923 -0.9967  0.1556
14038TIP3    H263530   3.722   3.115   1.604  1.3680  0.5391 -0.4212
14039TIP3   OH263531   5.867   2.813  13.691 -0.2384 -0.5285 -0.2087
14039TIP3    H163532   5.894   2.781  13.777 -1.1243  0.9817  0.6984
14039TIP3    H263533   5.855   2.735  13.638 -0.8287 -1.5836  1.4140
14040TIP3   OH263534   4.841   4.301  14.223 -0.5555 -0.2958  0.2344
14040TIP3    H163535   4.779   4.346  14.166  0.5529  0.0503 -0.7528
14040TIP3    H263536   4.790   4.233  14.266 -1.5018 -0.3690 -0.9564
14041TIP3   OH263537   5.127   3.352   1.985 -0.7371  0.1231  0.1238
14041TIP3    H163538   5.041   3.315   1.967 -1.0768  1.2599 -0.6847
14041TIP3    H263539   5.126   3.438   1.942  0.7663  0.1890  0.1659
14042TIP3   OH263540   4.179   2.839  10.921 -0.4858 -0.0392 -0.0377
14042TIP3    H163541   4.231   2.901  10.972 -1.3349  1.2815 -0.7026
14042TIP3    H263542   4.235   2.762  10.911  1.4194  1.3707 -0.8801
14043TIP3   OH263543   6.421   6.139  14.122  0.2350  0.4951 -0.3153
14043TIP3    H163544   6.409   6.233  14.132  1.7326  0.7523 -0.7902
14043TIP3    H263545   6.468   6.112  14.201  1.2901  0.4443 -0.9502
14044TIP3   OH263546   0.460   2.375  11.350 -0.3666  0.6918  0.0747
14044TIP3    H163547   0.516   2.331  11.414  0.8135  2.0189  0.0034
14044TIP3    H263548   0.521   2.409  11.285 -1.1788  2.6391  0.2721
14045TIP3   OH263549   0.231   3.018   3.935 -0.2559  1.0219 -0.2381
14045TIP3    H163550   0.151   2.981   3.973 -0.1565  0.5344 -0.4998
14045TIP3    H263551   0.293   3.021   4.007  0.1521 -0.5352 -0.5047
14046TIP3   OH263552   4.070   6.450   3.883  0.2541  0.1246 -0.2920
14046TIP3    H163553   4.076   6.357   3.906  1.1349  0.6007  1.5378
14046TIP3    H263554   3.986   6.458   3.838  0.6073 -1.7206 -1.3739
14047TIP3   OH263555   5.069   3.099  13.255  0.7663 -0.4317 -0.4652
14047TIP3    H163556   5.024   3.097  13.340  1.3931 -2.2479 -0.1433
14047TIP3    H263557   5.002   3.130  13.194 -0.0732 -0.3150  0.4819
14048TIP3   OH263558   2.774   3.543   5.144 -0.0646  0.5740  0.3655
14048TIP3    H163559   2.683   3.565   5.126 -0.3547 -1.0935 -0.4485
14048TIP3    H263560   2.769   3.478   5.215  0.4724  0.4095  0.2538
14049TIP3   OH263561   6.708   5.491   2.232 -0.2105 -0.4787  0.2406
14049TIP3    H163562   6.644   5.511   2.300  0.0179 -1.2919  0.7058
14049TIP3    H263563   6.726   5.575   2.190 -2.2173 -0.3512 -0.4687
14050TIP3   OH263564   1.237   4.140  12.028 -0.2205  0.0651 -0.0201
14050TIP3    H163565   1.205   4.093  12.106  3.3321 -0.0248  1.5658
14050TIP3    H263566   1.232   4.232  12.053 -0.2877  0.1229 -0.2443
14051TIP3   OH263567   1.841   5.254  17.331 -0.2549  0.1719 -0.0334
14051TIP3    H163568   1.755   5.292  17.347 -0.0449  0.2928  0.8840
14051TIP3    H263569   1.864   5.283  17.243 -1.3881 -0.3355 -0.5164
14052TIP3   OH263570   0.810   0.043   0.367  0.0451 -0.1135  0.2325
14052TIP3    H163571   0.775   0.115   0.419  1.3897  1.0178 -0.3618
14052TIP3    H263572   0.827  -0.026   0.430  1.8618  1.3070  1.3903
14053TIP3   OH263573   3.021   4.181  14.115 -0.2618  0.0020 -0.9837
14053TIP3    H163574   3.074   4.181  14.195 -0.2080  1.5499 -1.0026
14053TIP3    H263575   2.950   4.119  14.133 -0.7490  0.9815  0.5983
14054TIP3   OH263576   4.870   5.016  13.730 -0.5720  0.1260 -0.0658
14054TIP3    H163577   4.949   5.007  13.676 -1.1871 -0.3588 -0.9209
14054TIP3    H263578   4.852   5.110  13.731  0.0426  0.2471  0.1880
14055TIP3   OH263579   1.689   0.059  16.562  0.2765  0.4357  0.7234
14055TIP3    H163580   1.752  -0.010  16.583 -0.2395  0.1393  1.3515
14055TIP3    H263581   1.638   0.024  16.490  1.0540  0.8230 -0.0275
14056TIP3   OH263582   2.731   4.949  16.032 -0.0277 -0.0024  0.3942
14056TIP3    H163583   2.698   4.859  16.040 -1.6548  0.4021 -1.0326
14056TIP3    H263584   2.680   4.999  16.097 -1.2851  0.3589 -0.8067
14057TIP3   OH263585   0.546   2.437   1.489  0.3898  0.1944 -0.3084
14057TIP3    H163586   0.506   2.427   1.575  0.5288 -1.1608 -0.3753
14057TIP3    H263587   0.616   2.501   1.502 -0.2974  0.8405  0.3248
14058TIP3   OH263588   1.293   3.220  15.044 -0.2474  0.0375 -0.4577
14058TIP3    H163589   1.255   3.266  14.969  0.0144  0.2584 -0.4573
14058TIP3    H263590   1.359   3.280  15.077  0.5930 -0.6400 -0.8851
14059TIP3   OH263591   3.830   2.769  12.955 -0.4123  0.5537  0.4160
14059TIP3    H163592   3.770   2.705  12.917 -0.6435  0.8589  0.2620
14059TIP3    H263593   3.868   2.725  13.031  0.0191 -0.0556 -0.1340
14060TIP3   OH263594   3.234   1.447  13.534 -0.6065  0.1958 -0.6402
14060TIP3    H163595   3.224   1.356  13.507 -0.3564 -0.4238  1.1721
14060TIP3    H263596   3.145   1.480  13.543 -0.7296 -0.2309 -0.2432
14061TIP3   OH263597   1.095   5.406  15.134 -0.4415  0.4205 -0.2007
14061TIP3    H163598   1.000   5.416  15.130 -0.4458  0.0632 -1.4763
14061TIP3    H263599   1.116   5.410  15.228 -1.6456  1.0215  0.0562
14062TIP3   OH263600   5.329   1.272  15.697 -0.5152 -0.1243  0.5782
14062TIP3    H163601   5.360   1.183  15.710  4.2099  1.0533 -0.8613
14062TIP3    H263602   5.336   1.312  15.784 -0.6090 -0.5910  0.8068
14063TIP3   OH263603   3.813   2.215  12.861 -0.4050 -0.0481  0.1750
14063TIP3    H163604   3.907   2.212  12.842 -0.5303 -0.2290 -0.4303
14063TIP3    H263605   3.803   2.163  12.941  0.0404  0.1600  0.3677
14064TIP3   OH263606   4.690   5.446   0.479  0.3431  0.4434 -0.3722
14064TIP3    H163607   4.698   5.540   0.462  0.8583  0.3237 -0.8431
14064TIP3    H263608   4.760   5.427   0.542 -1.6674  0.9173  2.1196
14065TIP3   OH263609   0.608   4.612  13.314  0.2091  0.6966 -0.0824
14065TIP3    H163610   0.628   4.534  13.262 -0.5834 -0.1697  0.8665
14065TIP3    H263611   0.543   4.582  13.377  0.4508  1.9492  0.7919
14066TIP3   OH263612   4.758   5.301  11.821 -0.2144 -0.2383  0.6738
14066TIP3    H163613   4.835   5.269  11.773  0.1017  0.9857  0.3152
14066TIP3    H263614   4.783   5.390  11.848 -1.7782  0.4649 -0.1113
14067TIP3   OH263615   3.942   2.954   4.448  0.3605 -0.2756  0.3065
14067TIP3    H163616   3.890   2.874   4.436 -1.3462  0.8141 -0.0086
14067TIP3    H263617   4.029   2.931   4.417 -0.5390 -1.4936 -1.4887
14068TIP3   OH263618   6.448   0.901   6.018  0.1386  0.5306 -0.1182
14068TIP3    H163619   6.380   0.968   6.020  0.0802  0.7846  5.5995
14068TIP3    H263620   6.524   0.942   6.058  1.3444 -1.7422  0.0992
14069TIP3   OH263621   5.901   3.808   0.097  0.4444  0.3117 -0.2696
14069TIP3    H163622   5.963   3.735   0.097  0.6294  0.4323  1.2585
14069TIP3    H263623   5.952   3.883   0.126  0.1964  1.0188 -1.5975
14070TIP3   OH263624   4.760   2.482  11.757 -0.4167  0.1954  0.0835
14070TIP3    H163625   4.803   2.452  11.836  2.1907  0.8522 -0.9824
14070TIP3    H263626   4.675   2.515  11.787  0.4062  0.2606  2.5623
14071TIP3   OH263627   4.152   2.205  13.211 -0.1705  0.3902 -0.3245
14071TIP3    H163628   4.247   2.197  13.215 -0.2233  0.0102  0.2460
14071TIP3    H263629   4.125   2.138  13.149 -0.2329 -0.9158  1.0713
14072TIP3   OH263630   3.883   1.170   3.598  0.3347 -0.0528 -0.2469
14072TIP3    H163631   3.791   1.145   3.609 -0.3506  1.6427 -1.6271
14072TIP3    H263632   3.880   1.261   3.568  2.5814  1.1504  2.6698
14073TIP3   OH263633   3.694   2.772   3.923 -0.1088  0.6698 -0.4346
14073TIP3    H163634   3.764   2.809   3.978  0.7301 -0.9136 -0.3783
14073TIP3    H263635   3.712   2.806   3.836  1.4914 -0.6329 -0.6655
14074TIP3   OH263636   5.393   4.191   0.083 -0.3221  0.3430  0.4253
14074TIP3    H163637   5.350   4.158   0.005 -3.0032  2.2881  0.9517
14074TIP3    H263638   5.371   4.128   0.151  0.7243 -0.5318 -0.0143
14075TIP3   OH263639   1.220   0.885   6.725  0.2238  0.5190  0.0979
14075TIP3    H163640   1.223   0.792   6.702  2.0121  1.1943 -2.9343
14075TIP3    H263641   1.311   0.912   6.730 -0.2662  2.3327 -0.0932
14076TIP3   OH263642   2.220   1.196  12.017 -0.0391  0.2933 -0.0154
14076TIP3    H163643   2.283   1.137  12.057 -0.9581 -0.1795  0.7599
14076TIP3    H263644   2.274   1.262  11.973  0.9902 -0.5283 -0.0255
14077TIP3   OH263645   3.553   0.395  16.467 -0.1644  0.0572  0.4719
14077TIP3    H163646   3.534   0.488  16.473 -0.8800 -0.0427 -0.1978
14077TIP3    H263647   3.521   0.369  16.381 -1.4443 -1.1423  1.2627
14078TIP3   OH263648   5.515   2.134  15.403 -0.4722 -0.1138 -0.2907
14078TIP3    H163649   5.498   2.048  15.366  2.5121 -0.9815  0.0808
14078TIP3    H263650   5.609   2.134  15.423 -0.4036  3.1364 -0.0070
14079TIP3   OH263651   5.902   1.475   5.644  0.6859 -0.0802  0.3685
14079TIP3    H163652   5.900   1.570   5.636  2.5461 -0.0722 -0.5970
14079TIP3    H263653   5.918   1.443   5.555 -1.7289 -1.4497  0.3294
14080TIP3   OH263654   0.283   5.210  14.915 -0.0320  0.0099  0.2021
14080TIP3    H163655   0.291   5.165  14.831 -1.5335 -2.6179  1.3617
14080TIP3    H263656   0.374   5.228  14.941  0.5381 -0.6849 -1.1833
14081TIP3   OH263657   2.328   0.278   3.252 -0.0296 -0.8141  0.3931
14081TIP3    H163658   2.358   0.190   3.233 -0.4300 -0.8070 -0.3213
14081TIP3    H263659   2.281   0.305   3.173  1.9255  0.8713 -0.2692
14082TIP3   OH263660   2.074   4.421  16.568  0.3812  0.5804 -0.0841
14082TIP3    H163661   2.141   4.444  16.633 -0.2778  1.5341  0.2835
14082TIP3    H263662   2.123   4.384  16.495  1.1053 -1.0733  1.1766
14083TIP3   OH263663   1.708   6.057  14.916  1.4867  0.1436 -0.1570
14083TIP3    H163664   1.699   6.126  14.983  3.8330  0.3580  0.0229
14083TIP3    H263665   1.644   6.080  14.849  0.0088  0.6871  1.3712
14084TIP3   OH263666   1.404   0.371   2.111 -0.3354  0.3525 -0.6325
14084TIP3    H163667   1.334   0.408   2.164 -1.6944 -1.4616 -1.0694
14084TIP3    H263668   1.484   0.413   2.144 -1.6183  2.9326 -0.5232
14085TIP3   OH263669   4.498   1.911   3.622  0.2689  0.2057 -0.1560
14085TIP3    H163670   4.423   1.941   3.673  0.3104 -0.8792  0.5747
14085TIP3    H263671   4.508   1.977   3.553 -0.3110  1.2558  0.7292
14086TIP3   OH263672   0.842   3.558   2.787  0.0847 -0.4916 -0.1720
14086TIP3    H163673   0.816   3.588   2.874  2.0320  0.4632  0.1254
14086TIP3    H263674   0.901   3.485   2.803  2.3735  1.1944 -0.5384
14087TIP3   OH263675   2.770   6.524  12.269 -0.1637 -0.0349 -0.0704
14087TIP3    H163676   2.777   6.439  12.312 -0.8579  0.3081  0.7591
14087TIP3    H263677   2.789   6.507  12.177  2.5079 -0.6074  0.5043
14088TIP3   OH263678   1.845   5.077   6.699  0.0365  0.8368 -0.3333
14088TIP3    H163679   1.769   5.134   6.711 -0.8700 -0.1429 -1.2699
14088TIP3    H263680   1.808   4.989   6.689  1.0935  0.6308 -3.2836
14089TIP3   OH263681   0.636   4.247  17.030  0.0351 -0.3809  0.1329
14089TIP3    H163682   0.578   4.174  17.051 -0.2944  0.1375  1.0775
14089TIP3    H263683   0.577   4.320  17.010  0.3249 -0.8329 -2.7060
14090TIP3   OH263684   0.117   0.175   5.643 -0.1585  0.4666  0.9410
14090TIP3    H163685   0.166   0.098   5.615 -0.3860  0.1858  1.3113
14090TIP3    H263686   0.184   0.243   5.654  0.0365  0.3382  0.5714
14091TIP3   OH263687   1.429   1.707   4.836 -0.2182 -0.1896 -0.0303
14091TIP3    H163688   1.423   1.652   4.758 -2.1117 -1.0572  0.6622
14091TIP3    H263689   1.354   1.766   4.830 -0.3613 -0.2288  1.0850
14092TIP3   OH263690   6.682   0.595   1.023  0.3032  0.1493  0.3428
14092TIP3    H163691   6.763   0.547   1.036 -0.1546 -0.2850  1.6957
14092TIP3    H263692   6.709   0.687   1.016  0.9759 -0.0753 -0.1664
14093TIP3   OH263693   3.956   5.516   5.481 -0.3297  0.2201 -0.0672
14093TIP3    H163694   4.049   5.537   5.468 -0.2090  1.2186  1.9995
14093TIP3    H263695   3.933   5.560   5.563 -2.4361 -0.6714 -0.1234
14094TIP3   OH263696   2.021   3.487  12.927 -0.2423  0.3409  0.4758
14094TIP3    H163697   1.962   3.421  12.890  1.4719 -1.1526  0.2670
14094TIP3    H263698   1.981   3.510  13.011 -1.0673 -0.6940  0.3925
14095TIP3   OH263699   5.426   3.301   6.608  0.1520 -0.4318  0.0657
14095TIP3    H163700   5.412   3.392   6.636 -0.1241 -0.0947 -1.1165
14095TIP3    H263701   5.513   3.279   6.640  1.0203  0.9012 -1.2429
14096TIP3   OH263702   3.901   2.714  14.362 -0.0257  0.2789 -0.8040
14096TIP3    H163703   3.861   2.719  14.276  0.0161  1.2458 -0.7802
14096TIP3    H263704   3.992   2.693  14.345 -0.0344  0.3905 -0.9894
14097TIP3   OH263705   4.441   6.595  13.852 -0.1180 -0.0417  0.2954
14097TIP3    H163706   4.528   6.603  13.891  0.5310  1.0744 -1.2757
14097TIP3    H263707   4.445   6.513  13.802 -0.3316 -0.5046  1.0117
14098TIP3   OH263708   6.051   3.473   2.436  0.6912 -0.3115  0.3270
14098TIP3    H163709   6.042   3.475   2.531  0.3378 -1.5882  0.3430
14098TIP3    H263710   5.985   3.410   2.407  0.0303  0.8773 -0.8700
14099TIP3   OH263711   1.980   6.206   6.344 -0.0288 -0.1742  0.1014
14099TIP3    H163712   2.053   6.218   6.406 -1.0589  0.3051  1.2612
14099TIP3    H263713   1.991   6.278   6.281  0.3041  0.1124  0.4749
14100TIP3   OH263714   4.303   5.330   0.172 -0.4886 -0.3393 -0.3209
14100TIP3    H163715   4.300   5.416   0.129 -0.2430 -0.4640 -0.5854
14100TIP3    H263716   4.218   5.290   0.152 -0.0908 -0.7040 -1.3212
14101TIP3   OH263717   0.619   2.986  14.107  0.0561  0.0074 -0.5263
14101TIP3    H163718   0.524   2.992  14.096 -0.1733 -0.1344  1.0821
14101TIP3    H263719   0.649   2.931  14.034 -0.7304  2.0461 -2.4963
14102TIP3   OH263720   5.073   1.887  12.605  0.1502 -0.2923 -0.2762
14102TIP3    H163721   5.063   1.950  12.677  2.6913  1.9120 -1.6794
14102TIP3    H263722   5.131   1.820  12.640 -0.5400 -0.5336  0.4410
14103TIP3   OH263723   2.725   0.347   2.271 -0.2271 -0.0601 -0.6224
14103TIP3    H163724   2.700   0.433   2.305 -0.2195 -0.1969 -0.2652
14103TIP3    H263725   2.817   0.356   2.248 -0.1207 -0.0803 -0.2225
14104TIP3   OH263726   1.897   3.094  13.500 -0.8833  0.1704 -0.1158
14104TIP3    H163727   1.908   3.068  13.591 -0.3944 -1.2541 -0.5537
14104TIP3    H263728   1.935   3.022  13.450 -0.9219  1.0396 -1.4458
14105TIP3   OH263729   3.634   5.348  12.359  0.1555 -0.1243  0.4708
14105TIP3    H163730   3.715   5.376  12.317 -0.6415  0.3057 -0.8308
14105TIP3    H263731   3.640   5.252  12.363  1.2113 -0.0358  1.4538
14106TIP3   OH263732   4.927   4.609   6.107  0.5334 -0.0622 -0.0934
14106TIP3    H163733   5.014   4.571   6.103 -0.5165 -2.7129 -0.2678
14106TIP3    H263734   4.871   4.546   6.061 -1.5946  1.1353  0.6878
14107TIP3   OH263735   2.513   3.708  12.235  0.1758 -0.1494 -0.3974
14107TIP3    H163736   2.586   3.729  12.293 -0.4204  0.5231  0.1207
14107TIP3    H263737   2.550   3.647  12.171  0.2184 -3.0967  2.2232
14108TIP3   OH263738   4.689   3.263  14.130  0.0302  0.1729  0.2881
14108TIP3    H163739   4.720   3.285  14.218  1.4288  0.6179 -0.2891
14108TIP3    H263740   4.728   3.329  14.073  1.3546 -1.5873 -0.9959
14109TIP3   OH263741   2.344   1.504   0.007  0.0396 -0.0114 -0.6511
14109TIP3    H163742   2.384   1.540  -0.072 -0.9612 -0.6279 -1.4642
14109TIP3    H263743   2.325   1.413  -0.016  0.0747 -0.3008  0.4402
14110TIP3   OH263744   1.389   3.111  16.163  0.4792  0.0197 -0.3195
14110TIP3    H163745   1.462   3.161  16.128  1.3959 -0.0790  1.3392
14110TIP3    H263746   1.368   3.047  16.095  0.9415  1.0281 -1.4273
14111TIP3   OH263747   2.071   6.275  14.271  0.5364 -0.5991  0.0523
14111TIP3    H163748   2.110   6.358  14.242  0.2675 -1.0686 -1.7740
14111TIP3    H263749   2.073   6.280  14.366 -0.2511  1.8877  0.0133
14112TIP3   OH263750   6.371   5.407   2.774  0.3647 -0.1530 -0.1236
14112TIP3    H163751   6.457   5.449   2.780  0.2846  0.0159 -0.1388
14112TIP3    H263752   6.374   5.337   2.839  0.0358  0.7062  0.8432
14113TIP3   OH263753   6.565   6.561  17.471 -0.0372  0.2264  0.8318
14113TIP3    H163754   6.489   6.582  17.526 -1.3105  0.2460 -0.8781
14113TIP3    H263755   6.595   6.476  17.503 -1.3377 -0.2074  0.9398
14114TIP3   OH263756   1.276   0.052   2.181 -0.2822 -0.1087  0.2274
14114TIP3    H163757   1.354   0.024   2.134 -1.0503  0.3473 -1.3724
14114TIP3    H263758   1.219  -0.025   2.182  0.5374 -0.7629  2.2893
14115TIP3   OH263759   2.988   3.822   2.325  0.7425  0.2155 -0.2940
14115TIP3    H163760   3.037   3.897   2.291  0.6408 -0.3536 -1.7700
14115TIP3    H263761   3.054   3.769   2.369  0.6495  1.6389  1.6841
14116TIP3   OH263762   2.929   2.827   6.962  0.3716 -0.6093  0.0727
14116TIP3    H163763   2.955   2.798   7.050 -0.6229 -0.6263  0.3817
14116TIP3    H263764   2.984   2.777   6.902 -0.3214 -2.1211  0.6390
14117TIP3   OH263765   0.422   0.323   0.654  0.2381 -0.1826  0.4969
14117TIP3    H163766   0.358   0.252   0.659  1.2085 -1.1063 -0.0732
14117TIP3    H263767   0.368   0.402   0.646 -0.8476 -0.9791 -0.4828
14118TIP3   OH263768   6.207   5.302   4.608 -0.1395  0.5546 -0.6120
14118TIP3    H163769   6.160   5.380   4.580 -0.7378  0.4638  0.1055
14118TIP3    H263770   6.294   5.334   4.634 -0.6938  1.1384  0.5709
14119TIP3   OH263771   2.443   3.371   4.326  0.2236  0.5520 -0.6107
14119TIP3    H163772   2.494   3.304   4.280  0.0370 -0.8352  1.0707
14119TIP3    H263773   2.394   3.322   4.392 -0.9618  2.2225 -0.1806
14120TIP3   OH263774   4.335   4.122   1.001  1.0523 -0.4470 -0.0645
14120TIP3    H163775   4.280   4.191   1.039  0.4951 -1.6773  1.4740
14120TIP3    H263776   4.326   4.048   1.062  1.9093 -1.7633 -1.4741
14121TIP3   OH263777   0.251   2.861  12.397  0.0274 -0.1684  0.1565
14121TIP3    H163778   0.247   2.880  12.304  1.2134  0.7681  0.2693
14121TIP3    H263779   0.160   2.848  12.424 -0.2461 -2.2304 -1.4606
14122TIP3   OH263780   6.342   2.389  15.397 -0.5923  0.3044  0.2522
14122TIP3    H163781   6.393   2.341  15.463  0.1820  0.7897  0.0211
14122TIP3    H263782   6.341   2.479  15.429 -2.3316  0.1130  0.8612
14123TIP3   OH263783   1.230   3.365  12.795  0.2301  0.2470 -0.5830
14123TIP3    H163784   1.289   3.435  12.823  1.5981 -0.6057 -1.2409
14123TIP3    H263785   1.264   3.286  12.838 -2.1028  0.1177  1.2823
14124TIP3   OH263786   6.134   5.763  12.947  0.6410  0.1052 -1.2584
14124TIP3    H163787   6.103   5.684  12.992  1.2818  0.6597  0.2374
14124TIP3    H263788   6.212   5.790  12.997 -1.3265  3.4689  0.3678
14125TIP3   OH263789   1.546   1.367   1.186 -0.1587 -0.2752 -0.0196
14125TIP3    H163790   1.456   1.398   1.179 -0.4539 -0.8514  1.0031
14125TIP3    H263791   1.551   1.293   1.127 -0.6725 -0.9047  0.7095
14126TIP3   OH263792   4.265   5.538   4.938  0.1706 -0.0921  0.4554
14126TIP3    H163793   4.320   5.617   4.935  1.3174 -0.8601  0.2486
14126TIP3    H263794   4.177   5.569   4.920  0.7278  1.0320 -0.4732
14127TIP3   OH263795   6.071   2.626   1.082  0.3014  0.3462 -0.0302
14127TIP3    H163796   5.993   2.649   1.132  0.3556  2.4961 -0.8063
14127TIP3    H263797   6.039   2.582   1.004 -0.0178 -0.0617  0.3290
14128TIP3   OH263798   5.184   4.356   6.236 -0.0325  0.6943  0.1132
14128TIP3    H163799   5.128   4.313   6.302 -0.1207 -0.1341 -0.4894
14128TIP3    H263800   5.268   4.369   6.281 -0.8507  2.5275  1.2403
14129TIP3   OH263801   4.862   0.511   1.377  0.1488 -0.0555  0.0074
14129TIP3    H163802   4.952   0.481   1.389  0.7180  0.9662 -1.5117
14129TIP3    H263803   4.839   0.483   1.288 -0.5711  0.8243 -0.0952
14130TIP3   OH263804   3.062   1.410   3.363  0.1411  0.1886  0.3216
14130TIP3    H163805   3.018   1.359   3.431 -1.4817  1.9990  0.7268
14130TIP3    H263806   3.014   1.390   3.283 -1.5957  2.2108  0.7745
14131TIP3   OH263807   3.876   5.582  16.861  0.0664 -0.0494  0.0573
14131TIP3    H163808   3.892   5.610  16.770  0.4422 -0.2718  0.0525
14131TIP3    H263809   3.868   5.664  16.910  1.0053  0.0813  0.0158
14132TIP3   OH263810   6.008   0.392   3.569  0.0123  0.1719 -0.5888
14132TIP3    H163811   6.015   0.309   3.616  0.8179  0.0298 -0.9506
14132TIP3    H263812   6.047   0.456   3.629 -0.0915  0.1929 -0.5443
14133TIP3   OH263813   1.578   4.846  17.519 -0.5192  0.1622  0.4207
14133TIP3    H163814   1.616   4.787  17.584  2.0702 -1.1976 -2.0822
14133TIP3    H263815   1.652   4.898  17.488 -1.7431  1.0736 -1.0840
14134TIP3   OH263816   5.386   6.306  15.966  0.3794  0.0377  0.0142
14134TIP3    H163817   5.475   6.336  15.987  0.1207 -0.1942  1.6060
14134TIP3    H263818   5.349   6.282  16.051 -1.4268  0.6924 -0.5509
14135TIP3   OH263819   1.338   4.564   0.807  0.4713 -0.1684  0.1142
14135TIP3    H163820   1.409   4.621   0.837  0.2586 -0.7056  1.7297
14135TIP3    H263821   1.268   4.624   0.782  0.9780  0.3246 -0.1474
14136TIP3   OH263822   0.940   3.537  15.461 -0.0193  0.3293 -0.0064
14136TIP3    H163823   0.863   3.503  15.507 -0.1207  1.3206  0.5876
14136TIP3    H263824   0.938   3.494  15.376 -0.7773 -0.2677  0.2981
14137TIP3   OH263825   3.026   5.542   2.758 -0.2547 -0.0831 -0.0557
14137TIP3    H163826   3.028   5.458   2.803 -3.9234  0.3582  1.2640
14137TIP3    H263827   3.010   5.520   2.666 -0.3389 -0.8712  0.1412
14138TIP3   OH263828   2.086   0.915  16.043 -0.0447 -0.4732 -0.3811
14138TIP3    H163829   1.995   0.904  16.071 -0.3754  1.2545 -0.6185
14138TIP3    H263830   2.137   0.905  16.123 -0.3752 -2.0242 -0.3403
14139TIP3   OH263831   4.720   4.082   3.736  0.1228  0.1046  0.5139
14139TIP3    H163832   4.744   4.174   3.744 -0.4818  0.2649  0.5132
14139TIP3    H263833   4.631   4.077   3.770 -0.7704 -0.0393 -1.6907
14140TIP3   OH263834   6.463   1.259  17.431  0.3241  0.4438  0.7039
14140TIP3    H163835   6.492   1.349  17.414  2.5639 -0.3242  0.0431
14140TIP3    H263836   6.513   1.232  17.508  0.1363 -0.4310  0.5287
14141TIP3   OH263837   4.121   0.144   3.774 -0.1144 -0.1080 -0.1418
14141TIP3    H163838   4.147   0.121   3.685 -0.4267 -0.8388 -0.0498
14141TIP3    H263839   4.170   0.224   3.794  1.8047 -1.2471 -0.0894
14142TIP3   OH263840   1.708   5.812   5.899  0.0141  0.0077  0.1902
14142TIP3    H163841   1.687   5.731   5.854 -1.2915  0.8368 -0.7812
14142TIP3    H263842   1.780   5.790   5.957  0.2097 -1.6421 -0.6374
14143TIP3   OH263843   3.172   2.358   4.801  0.4158 -0.3717 -0.0752
14143TIP3    H163844   3.104   2.418   4.770  1.1728 -0.0916 -1.2381
14143TIP3    H263845   3.231   2.414   4.851 -0.0509 -0.5689  0.7155
14144TIP3   OH263846   6.111   1.673  15.660  0.2264 -0.1900  0.1346
14144TIP3    H163847   6.033   1.626  15.633  0.6468 -1.9104  1.6841
14144TIP3    H263848   6.100   1.761  15.625 -2.2771 -0.4465  0.1239
14145TIP3   OH263849   4.669   1.870  14.942  0.4870  0.4315 -0.6991
14145TIP3    H163850   4.755   1.910  14.953  1.7090 -1.7065 -1.7792
14145TIP3    H263851   4.613   1.942  14.912  1.7368  1.9725  0.4812
14146TIP3   OH263852   5.254   4.693  15.161  0.6811 -0.0697 -0.2639
14146TIP3    H163853   5.322   4.648  15.210  1.3457  0.0478 -1.0656
14146TIP3    H263854   5.285   4.783  15.153  0.4702 -0.0334 -0.7062
14147TIP3   OH263855   5.330   4.541  16.648  0.0688  0.4262  0.2997
14147TIP3    H163856   5.307   4.550  16.555  1.2040  0.4067 -0.0030
14147TIP3    H263857   5.263   4.591  16.695 -0.4584  0.5237 -0.5349
14148TIP3   OH263858   0.471   4.099   0.716 -0.0973  0.4273 -0.0327
14148TIP3    H163859   0.495   4.051   0.636 -0.2066 -0.7904  0.6448
14148TIP3    H263860   0.450   4.187   0.685  0.1513  0.0616 -1.3130
14149TIP3   OH263861   0.392   4.661   0.920  0.3036 -0.0882  0.6490
14149TIP3    H163862   0.311   4.659   0.972  0.1841 -1.3051  0.4496
14149TIP3    H263863   0.378   4.596   0.851  1.1740  0.2133  0.1689
14150TIP3   OH263864   4.850   4.768  12.260  0.0857 -0.1165  0.4802
14150TIP3    H163865   4.781   4.793  12.321  1.3786  0.3974  1.8017
14150TIP3    H263866   4.872   4.849  12.214  0.4889 -0.0552  0.7801
14151TIP3   OH263867   3.176   6.362   3.139  0.1827 -0.4965  0.2876
14151TIP3    H163868   3.089   6.329   3.164  0.2319 -1.5485 -0.8305
14151TIP3    H263869   3.236   6.319   3.199  0.1318 -1.6112 -0.4271
14152TIP3   OH263870   5.795   0.880  13.723  0.1046  0.0859  0.0967
14152TIP3    H163871   5.748   0.930  13.656  1.6617  0.8475 -0.5009
14152TIP3    H263872   5.843   0.814  13.673 -0.3337 -0.6859  0.6871
14153TIP3   OH263873   6.449   5.768   5.410 -0.1011 -0.3578  0.4179
14153TIP3    H163874   6.373   5.810   5.369  0.5461  0.0314 -0.4178
14153TIP3    H263875   6.466   5.820   5.488 -1.0848 -0.8426  0.9801
14154TIP3   OH263876   2.362   1.616  15.909  0.5152  0.5715  0.2641
14154TIP3    H163877   2.425   1.598  15.979  0.2597  0.3004  0.4262
14154TIP3    H263878   2.331   1.705  15.927  1.5026  1.0487 -0.3226
14155TIP3   OH263879   0.075   5.396  16.922  0.1962  0.5330  0.3128
14155TIP3    H163880   0.100   5.332  16.856  0.0943  0.5171  0.2883
14155TIP3    H263881   0.086   5.350  17.005 -2.3762 -0.4301  0.2164
14156TIP3   OH263882   0.654   5.068   0.094 -0.1251  0.6993  0.3679
14156TIP3    H163883   0.619   5.149   0.057  0.6064  0.5754 -0.6280
14156TIP3    H263884   0.749   5.084   0.101  0.1393 -0.3488 -0.6095
14157TIP3   OH263885   3.062   5.293  15.896  1.2574 -0.0261  0.3777
14157TIP3    H163886   3.127   5.270  15.963  0.2351 -0.4782  1.2464
14157TIP3    H263887   3.063   5.219  15.835  1.0370 -0.3795  0.7986
14158TIP3   OH263888   3.305   1.521   0.927 -0.3685  0.1594  0.3347
14158TIP3    H163889   3.356   1.532   1.007 -1.5439  2.6798  0.8290
14158TIP3    H263890   3.249   1.598   0.923  0.1518  0.5428 -3.3223
14159TIP3   OH263891   5.786   3.095  11.970 -0.5680 -0.2944  0.1229
14159TIP3    H163892   5.802   3.118  12.062 -0.5244  0.0926  0.0221
14159TIP3    H263893   5.835   3.014  11.957 -1.9884 -1.3195  0.9041
14160TIP3   OH263894   4.320   2.735  13.176  0.2931 -0.1733 -0.3950
14160TIP3    H163895   4.279   2.657  13.213 -0.4783 -0.5484 -1.9654
14160TIP3    H263896   4.265   2.807  13.205 -0.2841 -0.4524 -0.7997
14161TIP3   OH263897   2.518   2.626   1.855 -0.3511 -0.0007 -0.1460
14161TIP3    H163898   2.495   2.701   1.801  0.1134 -0.8301 -1.5333
14161TIP3    H263899   2.574   2.572   1.799  0.1441 -0.8943  1.1591
14162TIP3   OH263900   4.542   3.203   4.505 -0.3041 -0.3314 -0.4590
14162TIP3    H163901   4.584   3.282   4.470  0.0772 -0.0065  0.6733
14162TIP3    H263902   4.495   3.233   4.583  2.3918 -1.6156  1.9040
14163TIP3   OH263903   0.048   1.196   5.050 -0.1142  0.4334  1.1487
14163TIP3    H163904   0.080   1.222   5.137  0.2212 -0.2263  1.2296
14163TIP3    H263905   0.128   1.177   5.001 -0.3575 -2.4426  1.7291
14164TIP3   OH263906   5.236   2.586   3.399 -0.4156  0.2108  0.5354
14164TIP3    H163907   5.273   2.578   3.488  0.5057  0.8272  0.2249
14164TIP3    H263908   5.179   2.663   3.404  2.2031  2.3868 -0.1760
14165TIP3   OH263909   1.969   0.723   1.575 -0.1134  0.1351 -0.6314
14165TIP3    H163910   2.023   0.777   1.517  0.0006  1.1176  0.3505
14165TIP3    H263911   1.879   0.741   1.548 -0.0271 -0.2622 -1.2091
14166TIP3   OH263912   6.292   0.656  17.534  0.3111  0.2523 -0.6241
14166TIP3    H163913   6.245   0.599  17.473  0.0301  0.0924 -0.2627
14166TIP3    H263914   6.364   0.692  17.482 -0.4696  0.8674 -1.3280
14167TIP3   OH263915   2.376   5.065   2.742  0.2110  0.3723 -0.4527
14167TIP3    H163916   2.378   5.127   2.815  0.6151  1.4173 -1.3085
14167TIP3    H263917   2.292   5.021   2.749 -0.5839  1.8350 -0.4587
14168TIP3   OH263918   3.804   5.087  13.046 -0.7629  0.0326 -0.3030
14168TIP3    H163919   3.846   5.001  13.048  2.5832  1.5118 -0.0163
14168TIP3    H263920   3.785   5.106  13.137 -2.2575 -0.6715 -0.4396
14169TIP3   OH263921   2.695   6.232  17.091  0.1579 -0.7853  0.7050
14169TIP3    H163922   2.678   6.254  16.999 -1.9539 -1.1561  0.9490
14169TIP3    H263923   2.748   6.305  17.124  0.4139 -0.3444 -0.6410
14170TIP3   OH263924   4.441   2.943  16.240 -0.1106  0.4225  0.0470
14170TIP3    H163925   4.472   2.954  16.151 -0.8269 -1.5746 -0.5076
14170TIP3    H263926   4.346   2.932  16.232 -0.3755  1.5624  1.2092
14171TIP3   OH263927   4.441   1.344  16.818 -0.5052  0.0930 -0.1374
14171TIP3    H163928   4.414   1.356  16.909  0.2964 -0.5266  0.1927
14171TIP3    H263929   4.532   1.316  16.824 -1.1645 -2.4744 -1.0060
14172TIP3   OH263930   4.975   5.585   5.064  0.1898  0.5319 -0.3632
14172TIP3    H163931   4.913   5.534   5.115  1.0159 -1.6871 -1.4375
14172TIP3    H263932   5.059   5.541   5.077  1.3440  2.7229  0.0788
14173TIP3   OH263933   0.262   2.577   5.183 -0.1865 -0.1068 -0.2877
14173TIP3    H163934   0.177   2.606   5.215 -1.3780 -0.9642 -2.4671
14173TIP3    H263935   0.270   2.487   5.215 -0.8387 -0.5567 -1.3369
14174TIP3   OH263936   5.300   2.280   2.841 -0.0165 -0.2568 -0.1963
14174TIP3    H163937   5.379   2.331   2.863  1.1191 -1.2755 -1.7260
14174TIP3    H263938   5.264   2.324   2.764  0.4126 -1.1284 -0.9209
14175TIP3   OH263939   2.920   4.416   4.513  0.2987 -0.1473 -0.3175
14175TIP3    H163940   2.960   4.383   4.594 -1.2574  0.1255  0.5956
14175TIP3    H263941   2.969   4.495   4.492  1.6040 -0.9500 -0.4273
14176TIP3   OH263942   0.724   1.299  15.756 -0.3625  0.0750  0.5129
14176TIP3    H163943   0.630   1.304  15.742 -0.0626  1.1340 -1.4128
14176TIP3    H263944   0.735   1.225  15.815 -2.2709 -1.2147 -0.6343
14177TIP3   OH263945   2.586   0.459   4.086  0.6240  0.1406  0.3004
14177TIP3    H163946   2.636   0.531   4.046 -0.3711 -0.2606 -1.8085
14177TIP3    H263947   2.527   0.503   4.147  1.8203  0.8386  1.0054
14178TIP3   OH263948   3.020   2.394   0.377  0.4000  0.1000 -0.0496
14178TIP3    H163949   3.088   2.328   0.362  1.1680  0.3789  1.8305
14178TIP3    H263950   2.954   2.348   0.429  0.1444  0.3708 -0.1370
14179TIP3   OH263951   0.754   6.332   4.555  0.1732  0.0848  1.0475
14179TIP3    H163952   0.702   6.314   4.634 -0.7364  0.5494  0.5688
14179TIP3    H263953   0.750   6.427   4.544  0.2067  0.0145  0.3812
14180TIP3   OH263954   2.075   6.192   1.971 -0.0647 -0.3293  0.3257
14180TIP3    H163955   2.075   6.199   2.066 -2.1555 -3.1487  0.6987
14180TIP3    H263956   2.015   6.260   1.941  0.3865  0.3894  1.0524
14181TIP3   OH263957   5.966   6.476  15.342  0.2052  0.2525 -0.1900
14181TIP3    H163958   5.988   6.519  15.425  0.0071  0.2035 -0.1120
14181TIP3    H263959   5.871   6.487  15.334  0.3781  1.3881 -1.0372
14182TIP3   OH263960   0.243   1.032   2.760 -0.2986 -0.5360  0.0393
14182TIP3    H163961   0.282   0.961   2.709 -0.2667 -0.1652 -0.4545
14182TIP3    H263962   0.250   1.003   2.851 -0.9587 -1.5048 -0.1984
14183TIP3   OH263963   1.205   0.687   4.335 -0.1864  0.3063 -0.7436
14183TIP3    H163964   1.118   0.668   4.299  0.4245  0.9549 -2.7160
14183TIP3    H263965   1.241   0.601   4.355 -0.7935 -0.0576 -1.1572
14184TIP3   OH263966   2.247   2.564   1.972 -0.2868  0.2119  0.2567
14184TIP3    H163967   2.160   2.586   2.006  0.0404  0.7001  0.7992
14184TIP3    H263968   2.276   2.644   1.929 -0.4169 -0.1925 -0.5975
14185TIP3   OH263969   3.381   6.703  11.143 -0.2991 -0.0215 -0.2229
14185TIP3    H163970   3.466   6.680  11.107  0.0310 -0.9078  1.0408
14185TIP3    H263971   3.388   6.796  11.165  0.2548 -0.0333 -0.3402
14186TIP3   OH263972   2.996   0.322  17.359  0.5436 -0.5462 -0.6942
14186TIP3    H163973   3.007   0.314  17.454  1.3666 -0.4984 -0.7803
14186TIP3    H263974   2.967   0.235  17.330 -0.8727 -0.2495 -0.2607
14187TIP3   OH263975   4.564   5.840  12.556 -0.2256  0.2985  0.4196
14187TIP3    H163976   4.565   5.803  12.644 -0.0721 -0.0703  0.2676
14187TIP3    H263977   4.517   5.923  12.565  0.5373  0.6815  1.0102
14188TIP3   OH263978   1.576   6.128   5.382  0.0442 -0.3064  0.4828
14188TIP3    H163979   1.656   6.148   5.334 -0.0765  0.0138  0.4072
14188TIP3    H263980   1.584   6.036   5.408  0.3247 -0.3410  0.2666
14189TIP3   OH263981   0.015   1.438  15.950  0.0357 -0.6015  0.0386
14189TIP3    H163982   0.032   1.437  16.044  0.0166 -1.0111  0.0396
14189TIP3    H263983  -0.063   1.493  15.940  0.9555  0.7953  0.0995
14190TIP3   OH263984   5.309   4.863   0.035 -0.1498 -0.1578 -0.1402
14190TIP3    H163985   5.259   4.938   0.068 -1.7332 -0.9334 -0.7044
14190TIP3    H263986   5.364   4.900  -0.034  1.1012  0.9430  1.3418
14191TIP3   OH263987   2.020   1.063   3.197  0.3025 -0.5607 -0.1195
14191TIP3    H163988   2.078   0.993   3.166  0.3284 -0.8047  0.4561
14191TIP3    H263989   2.065   1.100   3.273 -0.2581 -0.7190  0.3034
14192TIP3   OH263990   2.273   5.438   1.193 -0.2577 -0.1830 -0.3699
14192TIP3    H163991   2.349   5.413   1.140 -0.4798 -2.6266  0.3323
14192TIP3    H263992   2.306   5.436   1.283 -0.1666  2.8513 -0.2183
14193TIP3   OH263993   0.769   5.985   3.519 -0.3579  0.3552 -0.0023
14193TIP3    H163994   0.747   5.899   3.554 -0.0459  0.1698 -0.2436
14193TIP3    H263995   0.824   5.966   3.442  0.8844  0.7806  0.7401
14194TIP3   OH263996   1.975   5.203  14.968  0.8962  0.5497 -0.6181
14194TIP3    H163997   1.879   5.203  14.972  0.7265 -1.0971 -2.8600
14194TIP3    H263998   2.002   5.189  15.059 -0.9230  1.5048  0.1474
14195TIP3   OH263999   6.531   1.163   0.042 -0.5030  0.8063 -1.2084
14195TIP3    H164000   6.450   1.124   0.074 -0.6015 -0.3043 -2.6941
14195TIP3    H264001   6.600   1.110   0.081 -0.4418  1.9579  0.3237
14196TIP3   OH264002   3.047   4.270   1.212 -0.5333  0.2789 -0.0354
14196TIP3    H164003   3.066   4.188   1.167 -1.3814 -0.9414  1.6880
14196TIP3    H264004   3.114   4.276   1.280 -0.7278  0.8000  0.1116
14197TIP3   OH264005   1.055   2.875  17.598  0.4590 -0.3817  0.3397
14197TIP3    H164006   1.006   2.853  17.677 -1.7017  1.2861 -0.4452
14197TIP3    H264007   0.990   2.875  17.528  2.0891 -0.6218 -1.2689
14198TIP3   OH264008   2.655   3.914  15.555  0.0029  0.5004  0.4237
14198TIP3    H164009   2.633   3.945  15.467 -0.7022 -0.0198  0.4069
14198TIP3    H264010   2.745   3.882  15.547  0.0321  0.6834 -0.0510
14199TIP3   OH264011   4.690   4.998   4.708 -0.4128  0.4318  0.0761
14199TIP3    H164012   4.709   5.039   4.624  2.5945 -1.7921 -0.4897
14199TIP3    H264013   4.674   4.906   4.688 -0.8258  0.0683  1.8422
14200TIP3   OH264014   2.662   4.450   2.541 -0.1087  0.5794  0.0727
14200TIP3    H164015   2.630   4.413   2.459 -0.1182  0.1510  0.2678
14200TIP3    H264016   2.595   4.512   2.568 -0.0011  0.8918 -0.3571
14201TIP3   OH264017   2.151   4.044   5.092  0.4218  0.1118 -0.0995
14201TIP3    H164018   2.066   4.017   5.127 -0.9746  0.8131 -2.6927
14201TIP3    H264019   2.178   4.116   5.149 -2.0717  1.6776 -0.7109
14202TIP3   OH264020   1.834   3.410  11.930 -0.1196 -0.0855 -0.1350
14202TIP3    H164021   1.771   3.371  11.869 -0.7006 -1.6875  1.3970
14202TIP3    H264022   1.780   3.441  12.003  0.7772 -1.0610  0.9892
14203TIP3   OH264023   4.787   4.968  16.549  0.1577 -0.4173  0.2249
14203TIP3    H164024   4.808   5.058  16.573 -0.3072 -0.1644 -0.2784
14203TIP3    H264025   4.838   4.952  16.470 -0.2553 -0.3642 -0.0587
14204TIP3   OH264026   6.102   2.345   2.194  0.1266 -0.1975  0.1037
14204TIP3    H164027   6.091   2.435   2.224 -1.4726 -0.5825  0.7508
14204TIP3    H264028   6.151   2.302   2.264 -0.1343 -0.1161  0.3367
14205TIP3   OH264029   5.125   2.927  17.042 -0.4764  0.5287  0.6350
14205TIP3    H164030   5.091   2.838  17.041  0.1423  0.2431  2.0078
14205TIP3    H264031   5.050   2.983  17.022 -0.5139 -0.3497 -2.0169
14206TIP3   OH264032   1.695   1.306  14.375 -0.0555 -0.4025 -0.1863
14206TIP3    H164033   1.727   1.354  14.298  1.2649 -1.1691 -0.1524
14206TIP3    H264034   1.672   1.374  14.438 -0.1625  0.2146 -0.8831
14207TIP3   OH264035   3.363   3.812  13.566 -0.1649  0.1018 -0.7523
14207TIP3    H164036   3.433   3.756  13.600  1.0363  1.3735 -1.0168
14207TIP3    H264037   3.336   3.865  13.641 -1.2808 -0.7962 -0.5068
14208TIP3   OH264038   1.952   3.666  16.108 -0.3595 -0.7165  0.1557
14208TIP3    H164039   1.864   3.669  16.145 -0.9165  0.1196 -1.1684
14208TIP3    H264040   2.004   3.722  16.166 -0.8346 -0.6884  0.5683
14209TIP3   OH264041   5.295   5.028  15.065  0.0031 -0.3687 -0.0461
14209TIP3    H164042   5.318   5.095  15.000 -1.3810  0.6582  0.4663
14209TIP3    H264043   5.202   5.010  15.048 -0.8177  0.9405  2.4490
14210TIP3   OH264044   0.995   2.690  13.402  0.1200 -0.0122  0.3629
14210TIP3    H164045   0.947   2.757  13.452 -0.5590 -0.3216  0.1387
14210TIP3    H264046   0.946   2.682  13.321  0.3783 -0.5712  0.2617
14211TIP3   OH264047   3.253   2.137  16.514 -0.4986  0.5339  0.1935
14211TIP3    H164048   3.181   2.078  16.495 -1.4174  1.8638 -0.6013
14211TIP3    H264049   3.331   2.093  16.479 -1.2019 -0.0764 -0.6287
14212TIP3   OH264050   4.865   1.419  14.143 -0.2888  0.5966 -0.3164
14212TIP3    H164051   4.926   1.432  14.215 -0.6993 -3.0818  0.9343
14212TIP3    H264052   4.918   1.382  14.072 -0.8372 -2.5281  0.7441
14213TIP3   OH264053   2.279   5.594  16.927  0.1321  0.3032 -0.3404
14213TIP3    H164054   2.357   5.640  16.959  0.9141 -0.0063 -1.7260
14213TIP3    H264055   2.264   5.631  16.840 -1.9479  1.1453  0.3157
14214TIP3   OH264056   0.253   2.098   5.565 -0.2705  0.6235  0.0693
14214TIP3    H164057   0.188   2.104   5.635 -0.6096  0.0797 -0.1871
14214TIP3    H264058   0.303   2.019   5.586 -0.3497  0.4789 -0.2738
14215TIP3   OH264059   5.325   6.179  16.196 -0.0150  0.6748 -0.2965
14215TIP3    H164060   5.407   6.191  16.244  1.4152 -0.5589 -2.2297
14215TIP3    H264061   5.290   6.097  16.229 -1.0261  1.6704  1.2055
14216TIP3   OH264062   0.578   3.184   0.646 -0.1147 -0.8234  0.2421
14216TIP3    H164063   0.501   3.201   0.592 -2.5351 -3.6161  2.4906
14216TIP3    H264064   0.620   3.108   0.604 -0.4250 -1.2670  0.7196
14217TIP3   OH264065   3.770   2.592  11.090  0.0115  0.3161 -0.6956
14217TIP3    H164066   3.687   2.609  11.135 -0.1121 -0.8690 -0.4388
14217TIP3    H264067   3.836   2.631  11.147 -0.0772 -1.7576  0.9267
14218TIP3   OH264068   5.160   1.630  16.653  0.0727 -0.0772 -0.1465
14218TIP3    H164069   5.174   1.613  16.560  0.1746  1.4385 -0.4286
14218TIP3    H264070   5.073   1.669  16.657  0.0088 -0.2722  0.4133
14219TIP3   OH264071   0.896   3.571  14.032 -0.3412 -0.5714  0.2204
14219TIP3    H164072   0.904   3.484  14.073 -0.0172  0.3417  2.2209
14219TIP3    H264073   0.986   3.596  14.013 -0.3572 -0.3098  0.4812
14220TIP3   OH264074   2.246   5.661  12.673 -0.1549 -0.1074  0.1391
14220TIP3    H164075   2.203   5.576  12.679 -0.4585  0.1008  1.1445
14220TIP3    H264076   2.222   5.694  12.586 -0.5646 -0.7634 -0.0028
14221TIP3   OH264077   4.076   4.514  17.594  0.0809  0.1260 -0.4729
14221TIP3    H164078   4.011   4.472  17.537  0.4985 -1.0264 -0.1440
14221TIP3    H264079   4.048   4.605  17.600 -1.5607 -0.3651 -0.2541
14222TIP3   OH264080   4.315   6.237   5.160  0.1726 -0.5516 -0.0349
14222TIP3    H164081   4.277   6.154   5.190 -4.9816  0.9093 -1.5811
14222TIP3    H264082   4.310   6.233   5.065  4.0743 -0.0438 -0.4030
14223TIP3   OH264083   5.135   0.069   3.802 -0.8952  0.6100 -0.2164
14223TIP3    H164084   5.177   0.145   3.842 -0.5323  0.2158  0.1590
14223TIP3    H264085   5.060   0.105   3.755  0.3038  1.4113 -1.5694
14224TIP3   OH264086   5.449   3.251  10.955  0.0599 -0.5878 -0.2469
14224TIP3    H164087   5.381   3.184  10.960 -0.9685  0.4947  0.8603
14224TIP3    H264088   5.520   3.217  11.008 -1.2225 -0.0075  1.9575
14225TIP3   OH264089   6.380   3.152  16.666  0.6676  0.1172  0.2207
14225TIP3    H164090   6.437   3.077  16.683  0.6791  0.0133 -0.2760
14225TIP3    H264091   6.430   3.208  16.607  0.9650  0.8915  1.1764
14226TIP3   OH264092   1.381   0.040  14.076 -0.3378 -0.2624 -0.2434
14226TIP3    H164093   1.383  -0.053  14.101 -0.4678 -0.0173  0.7081
14226TIP3    H264094   1.414   0.086  14.153  0.0071  0.4715 -0.8168
14227TIP3   OH264095   5.986   3.860   0.427 -0.1156 -0.6170  0.4065
14227TIP3    H164096   5.897   3.892   0.445 -0.5078  0.1257 -2.4747
14227TIP3    H264097   5.977   3.765   0.428 -0.5843 -0.5836  1.5784
14228TIP3   OH264098   5.934   3.346   1.045  0.2678  0.7709 -0.0275
14228TIP3    H164099   5.906   3.260   1.012 -0.6913  0.5888  1.2130
14228TIP3    H264100   6.023   3.357   1.010  0.3459 -0.6481 -0.3433
14229TIP3   OH264101   0.515   4.639   3.605 -0.3829  0.2553 -0.0362
14229TIP3    H164102   0.453   4.579   3.565 -1.0560  0.8418  0.1144
14229TIP3    H264103   0.498   4.633   3.699  0.2739 -0.1046  0.0698
14230TIP3   OH264104   3.637   2.525   3.874 -0.9537  0.7868  0.1322
14230TIP3    H164105   3.654   2.612   3.910  1.7955  0.4114 -0.0802
14230TIP3    H264106   3.641   2.467   3.950  0.6050  0.4922 -0.1477
14231TIP3   OH264107   5.738   1.014   6.522  0.0389 -0.5799 -0.1763
14231TIP3    H164108   5.703   1.091   6.566 -0.3975 -0.1768 -1.1941
14231TIP3    H264109   5.832   1.031   6.515 -0.1715  0.2646 -1.1489
14232TIP3   OH264110   5.527   5.029  11.764  0.2983 -0.1405 -0.7268
14232TIP3    H164111   5.523   5.079  11.845 -0.8053 -0.9881 -0.2299
14232TIP3    H264112   5.604   4.973  11.775  0.6511  0.3526 -0.6393
14233TIP3   OH264113   2.137   1.238  16.782 -0.9452  0.1394  0.3843
14233TIP3    H164114   2.184   1.308  16.827 -1.0324  1.8443 -2.0126
14233TIP3    H264115   2.207   1.181  16.747 -0.7962  0.3481  0.3427
14234TIP3   OH264116   6.626   1.923   3.092 -0.7092  0.6336  0.1817
14234TIP3    H164117   6.682   1.953   3.164 -1.9119  1.0083  0.9741
14234TIP3    H264118   6.589   2.003   3.056 -2.0714  0.2791  0.7649
14235TIP3   OH264119   0.867   3.576   5.133  0.5270  0.4458 -0.2937
14235TIP3    H164120   0.776   3.604   5.118 -0.0839 -1.4926 -0.5454
14235TIP3    H264121   0.871   3.558   5.227  0.7430  0.7896 -0.2349
14236TIP3   OH264122   2.625   3.378  16.509 -0.0998  0.9240  1.1530
14236TIP3    H164123   2.681   3.300  16.515 -1.0477  0.1111 -0.1113
14236TIP3    H264124   2.578   3.379  16.592 -0.6744 -0.3521  0.8720
14237TIP3   OH264125   2.702   2.668   5.463 -0.2706 -0.4597 -0.2514
14237TIP3    H164126   2.778   2.726   5.466 -1.3271  0.9629 -0.1253
14237TIP3    H264127   2.719   2.603   5.531  0.2079  0.6382  0.7172
14238TIP3   OH264128   1.212   2.617   0.554  0.1994 -0.3860  0.0872
14238TIP3    H164129   1.197   2.593   0.463 -0.9115  0.1533  0.1142
14238TIP3    H264130   1.244   2.536   0.595 -0.0385 -0.8376 -0.5984
14239TIP3   OH264131   1.826   5.749  12.464  0.2585 -0.4284 -0.1317
14239TIP3    H164132   1.880   5.779  12.537  0.6252  0.0451 -0.5905
14239TIP3    H264133   1.736   5.765  12.492  0.3408 -1.2375  0.6452
14240TIP3   OH264134   1.615   0.742   3.360 -0.5526  0.1960  0.2385
14240TIP3    H164135   1.616   0.668   3.299  0.7382  0.5784 -0.2330
14240TIP3    H264136   1.700   0.784   3.348 -0.5466  0.6885  1.8213
14241TIP3   OH264137   6.398   3.732  11.797  1.0481  0.4033  0.0581
14241TIP3    H164138   6.335   3.754  11.729  1.9669 -0.3368 -1.0695
14241TIP3    H264139   6.354   3.666  11.851 -0.1531  1.8777  0.9814
14242TIP3   OH264140   1.573   4.399   2.414  0.0577 -0.0117  0.2681
14242TIP3    H164141   1.573   4.342   2.337 -2.2233 -0.3928  0.4799
14242TIP3    H264142   1.504   4.364   2.470 -0.3078  2.0005  1.1579
14243TIP3   OH264143   2.745   2.002  16.281  0.3282  0.0016  0.2990
14243TIP3    H164144   2.699   1.991  16.199  0.6298  0.1018  0.1124
14243TIP3    H264145   2.704   2.078  16.322  0.4924  0.2402  0.0205
14244TIP3   OH264146   1.177   4.756  12.135  0.0709 -0.3084 -0.3578
14244TIP3    H164147   1.217   4.836  12.100 -0.8530 -0.0516 -0.8807
14244TIP3    H264148   1.131   4.718  12.060  0.5755 -1.3923 -0.1344
14245TIP3   OH264149   0.832   6.197   5.077  0.3346 -0.3675  0.2133
14245TIP3    H164150   0.874   6.242   5.004  0.6656 -1.2518 -0.1599
14245TIP3    H264151   0.759   6.254   5.102 -1.0251 -0.9486 -2.1103
14246TIP3   OH264152   2.979   3.356   6.052 -0.1656  0.0259  0.7218
14246TIP3    H164153   2.972   3.357   6.148  1.6512 -0.6146  0.8875
14246TIP3    H264154   3.044   3.289   6.033 -0.2799  0.3456 -0.9720
14247TIP3   OH264155   2.443   2.181  12.292 -0.0003 -0.3379 -0.3809
14247TIP3    H164156   2.360   2.227  12.303 -1.1789 -1.6923 -2.6185
14247TIP3    H264157   2.442   2.154  12.200  2.7677 -0.7502 -0.3645
14248TIP3   OH264158   0.662   4.145   1.664 -0.4357  0.5727  0.4922
14248TIP3    H164159   0.643   4.070   1.720  0.1539 -0.6977 -0.9453
14248TIP3    H264160   0.582   4.158   1.613  0.4776 -1.2449 -1.5928
14249TIP3   OH264161   3.822   1.787   6.160  0.1144 -0.2259  0.5100
14249TIP3    H164162   3.815   1.697   6.190  0.0767 -0.6899 -0.8128
14249TIP3    H264163   3.734   1.810   6.131  0.0795  0.3151  1.0156
14250TIP3   OH264164   0.903   5.522  14.526  0.7398 -0.1512  0.0061
14250TIP3    H164165   0.997   5.530  14.544  0.6637 -1.2304  0.9919
14250TIP3    H264166   0.861   5.524  14.612 -0.2274  1.0402 -0.4657
14251TIP3   OH264167   0.869   2.603  12.585 -0.0182  0.3769 -0.3914
14251TIP3    H164168   0.899   2.679  12.635 -1.7873 -0.3715  2.0350
14251TIP3    H264169   0.784   2.630  12.549 -0.0032  0.0039 -0.7185
14252TIP3   OH264170   2.812   0.697  14.450  0.3801  0.2077 -0.2499
14252TIP3    H164171   2.842   0.766  14.391  1.1008  0.5695  0.5310
14252TIP3    H264172   2.720   0.718  14.467  0.1874  0.1495 -1.1539
14253TIP3   OH264173   5.858   0.860  15.151  0.1419  0.1773 -0.2936
14253TIP3    H164174   5.829   0.845  15.241 -0.5774  3.0437  0.0385
14253TIP3    H264175   5.949   0.833  15.150 -0.3393 -1.6355  0.7622
14254TIP3   OH264176   2.068   6.493   0.334  0.2371  0.2629  0.0177
14254TIP3    H164177   2.079   6.580   0.295  0.0270  0.4919  0.4643
14254TIP3    H264178   2.018   6.509   0.414 -0.1651 -0.3197 -0.1136
14255TIP3   OH264179   3.317   3.952   2.649 -0.0736  0.1942 -0.6986
14255TIP3    H164180   3.312   3.934   2.743  3.3279 -1.7352 -0.7244
14255TIP3    H264181   3.399   4.001   2.638 -1.0478  1.5237 -2.5684
14256TIP3   OH264182   0.021   0.594   4.341 -0.1429 -0.4349  1.0074
14256TIP3    H164183   0.081   0.538   4.291  0.5761  1.1521  0.0028
14256TIP3    H264184  -0.049   0.616   4.279 -0.2429  0.0300  1.2798
14257TIP3   OH264185   2.478   4.378   4.288 -0.1686 -0.8682  0.1024
14257TIP3    H164186   2.386   4.405   4.290  0.2474  0.6349  0.7219
14257TIP3    H264187   2.508   4.390   4.378  0.3604 -2.4157  0.1541
14258TIP3   OH264188   3.886   5.590  17.404  0.1873  0.2143 -0.5944
14258TIP3    H164189   3.973   5.624  17.384 -0.4541  0.7977 -2.7168
14258TIP3    H264190   3.901   5.497  17.424  1.3550  0.4513 -0.3007
14259TIP3   OH264191   4.247   4.290   5.266  0.2908  0.6572  0.0280
14259TIP3    H164192   4.229   4.235   5.342 -1.0556 -1.1952 -1.5364
14259TIP3    H264193   4.211   4.376   5.290 -1.7980 -0.3777  0.8021
14260TIP3   OH264194   4.789   5.569  14.153  0.4229 -0.4102 -0.1661
14260TIP3    H164195   4.880   5.574  14.182 -0.2620  2.3876  1.9656
14260TIP3    H264196   4.739   5.548  14.232 -0.9093 -0.6988 -1.0330
14261TIP3   OH264197   4.133   0.914   4.136  0.6506  0.2805 -0.3753
14261TIP3    H164198   4.223   0.906   4.104 -0.0731  1.2946 -2.8259
14261TIP3    H264199   4.120   1.008   4.147  0.0124  0.1120  0.3986
14262TIP3   OH264200   2.420   4.713   5.954 -0.8890 -0.1725 -0.1513
14262TIP3    H164201   2.400   4.795   5.908  1.4726  0.8991  0.5667
14262TIP3    H264202   2.367   4.716   6.033  0.2927  1.4864  0.6391
14263TIP3   OH264203   5.162   1.561   4.158 -0.1835 -0.1658 -0.6415
14263TIP3    H164204   5.177   1.488   4.217  0.3908  0.2680 -0.2376
14263TIP3    H264205   5.090   1.610   4.199 -0.0429 -0.0762 -0.4998
14264TIP3   OH264206   6.668   2.672   5.123  0.1249 -0.0630  0.3357
14264TIP3    H164207   6.673   2.588   5.169 -1.1382  0.4928  1.5448
14264TIP3    H264208   6.590   2.665   5.068  0.1780  0.2162  0.2242
14265TIP3   OH264209   2.103   5.675  13.252  0.0063  0.2780 -0.1709
14265TIP3    H164210   2.092   5.624  13.332 -0.2844 -0.0789 -0.4387
14265TIP3    H264211   2.098   5.766  13.281  2.3578  0.2279  0.5930
14266TIP3   OH264212   6.384   2.955  13.688  0.3457  0.1925 -0.2439
14266TIP3    H164213   6.420   2.996  13.766  0.6662 -1.0191  0.2678
14266TIP3    H264214   6.303   2.914  13.719  1.0481 -1.2582 -0.2690
14267TIP3   OH264215   2.209   0.378   3.490  0.0785 -0.2733 -0.2248
14267TIP3    H164216   2.264   0.328   3.431 -1.3033 -2.5072  0.2578
14267TIP3    H264217   2.138   0.411   3.435  0.7967  0.9546 -0.4711
14268TIP3   OH264218   6.211   1.954   2.431 -0.0952 -0.0473 -0.4395
14268TIP3    H164219   6.198   2.045   2.407  1.4006  0.7806  1.6086
14268TIP3    H264220   6.127   1.926   2.467 -0.4962  0.5828 -0.8760
14269TIP3   OH264221   6.210   1.236  17.002 -0.3803 -0.3260 -0.0912
14269TIP3    H164222   6.209   1.215  16.908  0.3733  0.4073 -0.2716
14269TIP3    H264223   6.272   1.174  17.040 -0.4339 -0.4070 -0.1343
14270TIP3   OH264224   2.969   0.699  16.621 -0.3356  0.6695  0.0297
14270TIP3    H164225   2.873   0.694  16.619 -0.4248  2.0940 -0.1122
14270TIP3    H264226   2.987   0.787  16.651  0.9562 -0.3090  2.3831
14271TIP3   OH264227   3.855   5.906   2.922  0.3305  0.0052 -0.3656
14271TIP3    H164228   3.941   5.940   2.946  1.6152 -0.4346 -3.8152
14271TIP3    H264229   3.800   5.984   2.910  0.0303  0.2778  2.0962
14272TIP3   OH264230   4.444   0.079  17.335  0.2664 -0.1815 -0.4314
14272TIP3    H164231   4.489   0.143  17.280  0.4485 -0.1117 -0.2033
14272TIP3    H264232   4.508   0.056  17.402 -0.7553  1.5698  1.2382
14273TIP3   OH264233   2.460   2.420   0.677 -0.4054  0.0024 -0.3709
14273TIP3    H164234   2.481   2.332   0.644  2.0288  0.8570 -1.3112
14273TIP3    H264235   2.460   2.475   0.599  2.3388  1.5267  0.5706
14274TIP3   OH264236   3.411   1.211  14.231  0.3612  0.0961 -0.0826
14274TIP3    H164237   3.322   1.176  14.225  0.3425 -0.0806  1.0424
14274TIP3    H264238   3.454   1.158  14.298  0.8140  1.1882  0.5294
14275TIP3   OH264239   6.292   4.745  15.765  0.3386 -0.1117  0.2417
14275TIP3    H164240   6.220   4.706  15.815 -0.1800  0.9510  0.3438
14275TIP3    H264241   6.342   4.796  15.829 -1.0467  2.2892 -0.4654
14276TIP3   OH264242   0.139   2.493   3.094 -0.0351 -0.1100 -0.2099
14276TIP3    H164243   0.051   2.527   3.112  0.0604 -1.3448  3.3580
14276TIP3    H264244   0.197   2.553   3.142  0.7623 -0.9941 -0.0435
14277TIP3   OH264245   1.054   1.434  17.174 -0.4017  0.7608 -0.2169
14277TIP3    H164246   1.105   1.414  17.095 -0.2672  0.8456 -0.1510
14277TIP3    H264247   1.068   1.528  17.188 -1.6224  1.0737 -0.9426
14278TIP3   OH264248   2.501   2.146  13.635  0.6653 -0.7253 -0.6974
14278TIP3    H164249   2.510   2.084  13.562 -0.1310 -1.4458 -0.1960
14278TIP3    H264250   2.563   2.216  13.614  1.5433 -1.6487 -1.3150
14279TIP3   OH264251   0.583   2.394   5.974  0.3433  0.1195  0.3619
14279TIP3    H164252   0.627   2.412   5.891 -0.1069 -2.3186 -0.4598
14279TIP3    H264253   0.650   2.411   6.040  1.3588  0.0778 -0.6224
14280TIP3   OH264254   1.098   6.206  14.468  0.1772  0.2033 -0.5206
14280TIP3    H164255   1.065   6.116  14.466 -0.8208  0.5165  1.0245
14280TIP3    H264256   1.053   6.249  14.395 -1.5192  0.1561  0.4513
14281TIP3   OH264257   1.173   3.158  17.099 -0.0706 -0.6867 -0.6581
14281TIP3    H164258   1.118   3.122  17.169  1.3920  0.2498  1.0416
14281TIP3    H264259   1.111   3.175  17.027 -2.0386  0.3462  1.1587
14282TIP3   OH264260   6.271   2.920   4.050  0.3322 -0.0504 -0.4217
14282TIP3    H164261   6.341   2.905   3.986 -0.4569 -0.7665 -1.1468
14282TIP3    H264262   6.254   2.833   4.088 -1.7921 -0.4021 -2.0090
14283TIP3   OH264263   0.792   1.462  11.693  0.4131 -0.1739 -0.2421
14283TIP3    H164264   0.760   1.542  11.735  3.0527 -0.4445  2.6429
14283TIP3    H264265   0.809   1.488  11.602  0.5986  2.3660  0.4372
14284TIP3   OH264266   5.020   2.471  15.114 -0.2843  0.3706  0.0101
14284TIP3    H164267   4.985   2.481  15.202 -0.3744  2.3786 -0.2056
14284TIP3    H264268   4.960   2.411  15.070 -0.1053 -0.8309  1.3599
14285TIP3   OH264269   6.563   2.529   1.785  0.1709  0.2783  0.0046
14285TIP3    H164270   6.612   2.577   1.718 -1.0722  0.4678 -0.7996
14285TIP3    H264271   6.529   2.598   1.842 -1.3085  0.3714 -0.9405
14286TIP3   OH264272   6.515   2.971   3.815 -0.4005  0.3673 -0.0337
14286TIP3    H164273   6.553   2.958   3.902 -1.3686  0.3533  0.4026
14286TIP3    H264274   6.542   2.895   3.765  0.2328  0.4144  0.2342
14287TIP3   OH264275   1.340   3.582  13.133  0.4096  0.0555 -0.0915
14287TIP3    H164276   1.360   3.564  13.041 -1.9207  0.5306 -0.7535
14287TIP3    H264277   1.426   3.592  13.174  1.5347 -1.0688 -2.0097
14288TIP3   OH264278   1.810   1.839   3.093 -0.1956  0.8692  0.4839
14288TIP3    H164279   1.833   1.902   3.161  1.5490  1.2900 -0.4364
14288TIP3    H264280   1.749   1.886   3.036  0.1006  1.2831  0.5082
14289TIP3   OH264281   4.598   5.356   4.840  0.0904  0.2402  0.0945
14289TIP3    H164282   4.530   5.421   4.857 -2.5166 -2.4204  0.6252
14289TIP3    H264283   4.604   5.353   4.744 -0.5060  0.5282  0.0396
14290TIP3   OH264284   1.569   2.955   5.601 -0.4482 -0.1423  0.0387
14290TIP3    H164285   1.608   2.983   5.684  0.7939  1.0016 -0.8916
14290TIP3    H264286   1.596   2.864   5.591  0.4832  0.0978  0.2882
14291TIP3   OH264287   2.044   0.397  17.526  0.0864 -0.2853 -0.1141
14291TIP3    H164288   2.074   0.376  17.614  0.7597 -0.2710 -0.3392
14291TIP3    H264289   2.034   0.313  17.482  1.9658 -0.2183 -0.7464
14292TIP3   OH264290   0.389   5.252  14.314  0.3871 -0.1085 -0.3336
14292TIP3    H164291   0.405   5.195  14.238  0.3508 -0.9344  0.2620
14292TIP3    H264292   0.318   5.310  14.286  0.0451 -0.7267 -0.7620
14293TIP3   OH264293   4.804   2.753   3.332 -0.1123  0.3944  0.5625
14293TIP3    H164294   4.791   2.661   3.357 -0.8950  0.1791 -0.5729
14293TIP3    H264295   4.743   2.801   3.389 -0.3420  0.1200  0.5538
14294TIP3   OH264296   1.991   0.608  14.684 -0.3466 -0.4235  0.0175
14294TIP3    H164297   1.902   0.624  14.651 -0.6172 -2.3843 -0.3172
14294TIP3    H264298   2.006   0.515  14.667  0.9226 -0.6492  2.1106
14295TIP3   OH264299   6.225   0.329   2.325 -0.0163  0.0517 -0.2449
14295TIP3    H164300   6.176   0.410   2.335  1.1422  0.7265  0.1266
14295TIP3    H264301   6.282   0.344   2.249  1.2289  0.1544  0.6664
14296TIP3   OH264302   6.611   0.989  17.367 -0.1005 -0.3110  0.5832
14296TIP3    H164303   6.576   0.916  17.418 -0.3939 -0.2298  0.4995
14296TIP3    H264304   6.616   0.957  17.278  0.4078 -0.4503  0.6617
14297TIP3   OH264305   4.345   5.102  13.380  0.7682  0.1241  0.6447
14297TIP3    H164306   4.346   5.022  13.433  0.7694 -0.5643 -0.3579
14297TIP3    H264307   4.381   5.170  13.437  1.6192 -0.7879  1.2208
14298TIP3   OH264308   4.513   1.115   5.857 -0.6755  0.3964 -0.6104
14298TIP3    H164309   4.446   1.090   5.793 -1.4396  0.8404 -0.0024
14298TIP3    H264310   4.465   1.164   5.924  0.2225  0.5151 -0.0382
14299TIP3   OH264311   5.548   0.916  16.273  0.2550  0.0534 -0.7651
14299TIP3    H164312   5.561   0.913  16.368 -0.1917  1.4570 -0.6243
14299TIP3    H264313   5.633   0.941  16.238  0.1673  0.5883 -0.6186
14300TIP3   OH264314   5.081   0.068   3.478 -0.0193  0.0939  0.4415
14300TIP3    H164315   5.066   0.127   3.552 -0.2826  0.9976 -0.3199
14300TIP3    H264316   5.117   0.124   3.409  0.3539 -0.7631 -0.0729
14301TIP3   OH264317   0.763   0.143  15.008  0.3404  0.1592  0.2423
14301TIP3    H164318   0.681   0.098  15.028  0.7866  0.1121  2.2566
14301TIP3    H264319   0.823   0.073  14.983  0.2199 -0.0158  0.4394
14302TIP3   OH264320   5.975   5.184  12.855 -0.4455 -0.3829  0.5925
14302TIP3    H164321   6.046   5.130  12.889  1.2039  0.7410 -0.8694
14302TIP3    H264322   5.973   5.164  12.761 -0.3675  1.3751  0.1791
14303TIP3   OH264323   5.614   2.140  15.082 -0.2951  0.3872  0.4849
14303TIP3    H164324   5.703   2.118  15.058 -1.6350 -0.9021 -4.3814
14303TIP3    H264325   5.575   2.057  15.110 -0.6999  0.2356 -0.4684
14304TIP3   OH264326   2.145   5.428  15.212 -0.0575  0.4552 -0.0123
14304TIP3    H164327   2.217   5.450  15.271  0.2311  0.9357 -0.5383
14304TIP3    H264328   2.115   5.342  15.242  1.2853 -0.1329 -0.3153
14305TIP3   OH264329   3.296   2.347  11.500 -0.0772 -0.4491 -0.1626
14305TIP3    H164330   3.310   2.409  11.428  1.3705  1.9012  1.9304
14305TIP3    H264331   3.205   2.361  11.527 -1.4200 -3.0386 -2.8349
14306TIP3   OH264332   4.755   2.393   2.532 -0.0832  0.6922 -0.7153
14306TIP3    H164333   4.756   2.309   2.485  1.1549  0.6490 -0.6380
14306TIP3    H264334   4.704   2.451   2.476 -2.1352 -0.4500 -0.1409
14307TIP3   OH264335   5.392   6.029  15.543  0.5072  0.1996 -0.4684
14307TIP3    H164336   5.316   6.032  15.601  0.5251 -1.7867 -0.2792
14307TIP3    H264337   5.418   5.937  15.542  2.6970  0.7603 -0.8274
14308TIP3   OH264338   5.316   6.224  11.728 -0.4615  0.0296 -0.1395
14308TIP3    H164339   5.326   6.260  11.640 -0.3376  1.0909  0.2994
14308TIP3    H264340   5.389   6.163  11.737  1.1136  1.8760  0.1680
14309TIP3   OH264341   0.550   5.269   3.145  0.2701 -0.9382 -0.0297
14309TIP3    H164342   0.590   5.264   3.058 -2.2732  0.8918 -1.4577
14309TIP3    H264343   0.479   5.203   3.142 -0.2246 -0.4337  0.4044
14310TIP3   OH264344   5.850   6.600   0.626 -0.2653  0.1515  0.8731
14310TIP3    H164345   5.925   6.651   0.656  0.1526 -0.1457  0.3510
14310TIP3    H264346   5.798   6.661   0.574 -0.1629  0.2469  0.8824
14311TIP3   OH264347   4.367   1.687  12.958 -0.3081  0.1657  0.1874
14311TIP3    H164348   4.421   1.658  13.031  1.1656 -0.3077 -1.0180
14311TIP3    H264349   4.317   1.760  12.992 -0.1389 -0.4515  1.8366
14312TIP3   OH264350   1.931   6.066  16.365  0.4791  0.2597  0.0964
14312TIP3    H164351   1.980   6.014  16.302 -0.3092 -1.1367  0.6034
14312TIP3    H264352   1.843   6.072  16.329  0.6141  1.5125 -0.0907
14313TIP3   OH264353   0.642   3.402   5.701 -0.4170 -0.1772 -0.1995
14313TIP3    H164354   0.683   3.373   5.783  0.7946 -3.9802 -1.9263
14313TIP3    H264355   0.549   3.387   5.715 -0.2342 -0.7260  0.5072
14314TIP3   OH264356   4.061   2.311   2.984  0.0997  0.0390  0.0587
14314TIP3    H164357   3.972   2.288   2.956  0.0729  0.4347 -0.1788
14314TIP3    H264358   4.107   2.333   2.903 -0.5309  3.1472  0.4302
14315TIP3   OH264359   6.454   2.217   5.510  0.1170 -0.2988 -0.6269
14315TIP3    H164360   6.411   2.143   5.468  0.1238 -0.6468 -0.0283
14315TIP3    H264361   6.547   2.193   5.514  0.3819  0.4439 -1.9026
14316TIP3   OH264362   5.800   2.690  12.400 -0.0167 -0.2391 -0.6400
14316TIP3    H164363   5.727   2.682  12.339 -1.2320 -0.5598  0.7969
14316TIP3    H264364   5.774   2.760  12.459  1.0911  0.0070 -0.4274
14317TIP3   OH264365   2.411   0.620  14.230  0.3359  0.2442  0.4332
14317TIP3    H164366   2.372   0.704  14.255 -0.4373  0.2237 -0.6351
14317TIP3    H264367   2.502   0.640  14.211  0.5251  0.5628  1.6037
14318TIP3   OH264368   6.272   5.517  16.101  0.0270 -0.1806 -0.3777
14318TIP3    H164369   6.226   5.451  16.153  0.5107 -1.7076 -1.8027
14318TIP3    H264370   6.210   5.590  16.094 -0.2277 -0.0924  1.8850
14319TIP3   OH264371   4.306   4.512   3.959 -0.2734  0.5444 -0.3938
14319TIP3    H164372   4.336   4.496   3.869 -0.3597 -0.6185 -0.2332
14319TIP3    H264373   4.284   4.425   3.992 -1.3190  1.0871  0.3838
14320TIP3   OH264374   5.642   5.311   1.123 -0.0605 -0.5892 -0.4940
14320TIP3    H164375   5.612   5.331   1.212  0.0017  2.3931 -1.0312
14320TIP3    H264376   5.730   5.275   1.135 -0.1067 -0.3813  0.6655
14321TIP3   OH264377   1.610   2.447   4.362  0.1854  0.5497 -0.1154
14321TIP3    H164378   1.590   2.493   4.281 -1.2605  0.4467  0.1569
14321TIP3    H264379   1.609   2.354   4.339 -0.0005  0.5281 -0.0172
14322TIP3   OH264380   4.675   1.521   6.069 -0.0739  0.2346  0.5312
14322TIP3    H164381   4.641   1.448   6.017  0.8581  0.2060 -0.0597
14322TIP3    H264382   4.663   1.598   6.013  2.5606 -0.0358 -0.5423
14323TIP3   OH264383   3.022   6.230  12.993 -0.1457 -0.0598  0.4929
14323TIP3    H164384   2.932   6.213  12.968 -0.1813 -0.6086  0.9796
14323TIP3    H264385   3.053   6.293  12.928 -0.7459 -0.1804  0.0773
14324TIP3   OH264386   3.870   4.876  12.016 -0.1876  0.4968  0.7906
14324TIP3    H164387   3.933   4.901  11.949 -0.5694  0.9673  0.6085
14324TIP3    H264388   3.792   4.926  11.996 -1.3343 -1.5688 -0.1910
14325TIP3   OH264389   1.353   0.013   3.439 -0.2136 -0.0928 -0.0705
14325TIP3    H164390   1.359   0.092   3.385  1.5855  0.0706  0.3345
14325TIP3    H264391   1.383  -0.057   3.381 -2.4580 -0.6440 -0.6558
14326TIP3   OH264392   1.886   3.854  12.016  0.0828  1.2683  0.3008
14326TIP3    H164393   1.899   3.873  11.923  0.3963 -0.5375 -0.0550
14326TIP3    H264394   1.970   3.874  12.057  0.1673  1.3717  0.0752
14327TIP3   OH264395   3.629   5.541   2.411 -0.1170 -0.5709 -0.4243
14327TIP3    H164396   3.612   5.448   2.395 -0.1627 -0.6097 -0.1493
14327TIP3    H264397   3.594   5.558   2.499 -1.7673  0.1164 -1.1594
14328TIP3   OH264398   5.940   6.506   6.117 -0.2676 -0.1955 -0.0365
14328TIP3    H164399   6.005   6.447   6.079  0.0008 -0.1548  0.3510
14328TIP3    H264400   5.858   6.481   6.076 -0.0773 -0.5322 -0.2166
14329TIP3   OH264401   1.202   2.806   5.037 -0.0265 -0.4315  0.2388
14329TIP3    H164402   1.281   2.848   5.005 -0.5334  1.0990  0.9174
14329TIP3    H264403   1.136   2.875   5.038 -1.2179 -1.5194  0.2991
14330TIP3   OH264404   0.942   0.109  16.816  0.0045  0.1973 -0.1932
14330TIP3    H164405   0.863   0.163  16.812  0.9279  1.6799  0.6972
14330TIP3    H264406   0.934   0.049  16.742 -0.5661  2.3001 -1.9358
14331TIP3   OH264407   3.481   2.824   0.371  0.3045  0.1678  0.8175
14331TIP3    H164408   3.394   2.848   0.339  1.1667  1.1281 -0.9797
14331TIP3    H264409   3.511   2.902   0.419  0.8534  0.5635 -0.1298
14332TIP3   OH264410   5.574   4.316   6.082 -0.4942  0.0846  0.0722
14332TIP3    H164411   5.538   4.314   6.170  0.2255  0.5150  0.3873
14332TIP3    H264412   5.587   4.409   6.064 -0.3821 -0.0179 -0.3797
14333TIP3   OH264413   0.526   0.993  13.443  0.3618  0.3557 -0.2043
14333TIP3    H164414   0.589   1.063  13.424 -1.4650  1.7955 -1.3635
14333TIP3    H264415   0.451   1.014  13.388 -1.1714 -1.2520  1.1745
14334TIP3   OH264416   6.001   4.024  15.368  0.0599  0.2931  0.2192
14334TIP3    H164417   6.005   4.076  15.448  1.4709  0.7966 -0.1416
14334TIP3    H264418   5.962   4.082  15.303  1.2193  0.7743 -0.0697
14335TIP3   OH264419   2.602   0.087   1.550 -0.3201  0.1619 -0.2407
14335TIP3    H164420   2.637   0.100   1.638 -0.6690  0.3946 -0.1331
14335TIP3    H264421   2.587   0.176   1.517 -0.5050  0.0684 -0.4075
14336TIP3   OH264422   0.501   4.936   6.004  0.3132 -0.3676 -0.1561
14336TIP3    H164423   0.544   5.022   6.008 -0.8957  0.3055 -0.8259
14336TIP3    H264424   0.516   4.898   6.090  0.3994  0.7762  0.3639
14337TIP3   OH264425   5.413   6.044   1.468 -0.3877  0.2712 -0.2313
14337TIP3    H164426   5.463   5.971   1.431 -1.3916 -1.5084  1.7088
14337TIP3    H264427   5.329   6.041   1.423 -0.7011 -0.2853  0.3737
14338TIP3   OH264428   2.985   0.270   2.981 -0.4289  0.2254  0.3892
14338TIP3    H164429   2.934   0.329   2.926 -1.5219 -0.3040  0.8125
14338TIP3    H264430   2.957   0.182   2.955 -0.5308 -0.0442  1.3743
14339TIP3   OH264431   4.191   4.584  15.593 -0.0045 -0.0712  0.3011
14339TIP3    H164432   4.240   4.616  15.518 -1.3674  0.3330 -0.4602
14339TIP3    H264433   4.257   4.564  15.659  1.0662  1.8536 -0.1211
14340TIP3   OH264434   5.566   3.217   2.496 -0.1221 -0.0590 -0.3644
14340TIP3    H164435   5.627   3.270   2.444 -0.5039 -0.2016 -0.9585
14340TIP3    H264436   5.480   3.235   2.458 -0.5166  0.4676  0.7387
14341TIP3   OH264437   0.556   3.557   1.366  0.1053  0.2010 -0.0509
14341TIP3    H164438   0.530   3.549   1.274 -0.1255  0.7081 -0.0350
14341TIP3    H264439   0.551   3.651   1.384  1.0322  0.2038  0.2308
14342TIP3   OH264440   0.546   0.452  13.413 -0.1033 -0.2125 -0.5360
14342TIP3    H164441   0.560   0.465  13.507  1.9202 -0.3316 -0.7690
14342TIP3    H264442   0.535   0.541  13.378 -1.8957 -0.2227 -0.0874
14343TIP3   OH264443   6.493   6.609  11.372  0.0472 -0.3283  0.0875
14343TIP3    H164444   6.425   6.550  11.404 -0.8524  1.4653  1.7020
14343TIP3    H264445   6.445   6.674  11.319  1.2019 -1.8006 -2.9948
14344TIP3   OH264446   0.989   6.266   7.183  0.4663  0.0622  0.2963
14344TIP3    H164447   1.009   6.174   7.201  0.8524 -0.2366 -1.4720
14344TIP3    H264448   0.937   6.264   7.103 -3.7118  1.0885  2.6660
14345TIP3   OH264449   4.900   5.760   4.869 -0.0149 -0.7020 -0.0004
14345TIP3    H164450   4.904   5.708   4.949 -0.8751 -0.4432  0.2208
14345TIP3    H264451   4.989   5.755   4.833  0.3078 -1.0543  0.8140
14346TIP3   OH264452   5.758   1.553   6.722  0.1309  0.1849  0.1997
14346TIP3    H164453   5.705   1.580   6.647 -1.1065 -1.0345  0.5727
14346TIP3    H264454   5.704   1.577   6.798  0.8131  0.2892  0.6551
14347TIP3   OH264455   2.808   1.723  13.488  0.1687  0.3667  0.4130
14347TIP3    H164456   2.782   1.681  13.570  3.1679 -0.9924  0.8265
14347TIP3    H264457   2.826   1.814  13.512  1.2570 -0.0776  1.3842
14348TIP3   OH264458   0.204   4.097   4.360  0.2961 -0.0554 -0.2782
14348TIP3    H164459   0.196   4.189   4.387 -0.9461 -0.6017  1.3336
14348TIP3    H264460   0.192   4.047   4.441 -0.0887 -1.6765 -1.2957
14349TIP3   OH264461   0.744   2.914   4.409  0.4434 -0.4919 -0.2011
14349TIP3    H164462   0.829   2.898   4.368  1.2907  0.2741  1.1985
14349TIP3    H264463   0.734   3.009   4.410 -1.3670 -0.5751 -2.1167
14350TIP3   OH264464   6.487   5.739  11.956  0.0477  0.0622 -0.0274
14350TIP3    H164465   6.467   5.646  11.972 -0.1080  0.0454 -0.3206
14350TIP3    H264466   6.427   5.765  11.886  0.1285  0.3720  0.0173
14351TIP3   OH264467   2.371   1.686   1.805 -0.4637  0.6534  0.7113
14351TIP3    H164468   2.368   1.654   1.714 -0.3409  1.9284  0.2461
14351TIP3    H264469   2.440   1.752   1.805 -0.8765  1.0919  1.5892
14352TIP3   OH264470   3.094   4.334  13.027  0.2530 -0.0670  0.1299
14352TIP3    H164471   3.100   4.239  13.037  1.1473  0.0977  1.4022
14352TIP3    H264472   3.171   4.368  13.072 -0.5919  1.3222  0.6044
14353TIP3   OH264473   0.173   6.065  15.802 -0.7819 -0.5096 -0.5139
14353TIP3    H164474   0.153   5.973  15.822  1.5441 -1.2983 -1.4756
14353TIP3    H264475   0.268   6.072  15.816 -0.9245  1.7947 -0.3711
14354TIP3   OH264476   4.409   0.684  16.851  0.5828 -0.4898  0.4516
14354TIP3    H164477   4.487   0.706  16.903  0.3143  1.3289  0.1523
14354TIP3    H264478   4.416   0.740  16.773 -1.2798  0.1112  0.6754
14355TIP3   OH264479   2.509   5.486   0.656  0.5910 -0.1455 -0.6526
14355TIP3    H164480   2.437   5.521   0.709  0.2839 -0.1340 -1.0713
14355TIP3    H264481   2.478   5.401   0.626  0.9314 -0.3342 -0.4719
14356TIP3   OH264482   1.583   5.928  15.724  0.3769  0.0522 -0.1277
14356TIP3    H164483   1.649   5.997  15.735 -0.0042  0.3770  0.1782
14356TIP3    H264484   1.553   5.938  15.634  0.0919  0.5057  0.0119
14357TIP3   OH264485   3.743   4.216   4.372  0.1668  0.5457  0.1848
14357TIP3    H164486   3.767   4.125   4.353 -0.1197  0.0981  1.7874
14357TIP3    H264487   3.663   4.230   4.323  1.3047  0.6400 -1.7368
14358TIP3   OH264488   0.931   2.327   5.982 -0.5017  0.5803 -0.4155
14358TIP3    H164489   0.890   2.382   6.049  1.4047  0.7523  0.6903
14358TIP3    H264490   0.908   2.238   6.007 -0.8764  0.7089 -0.2934
14359TIP3   OH264491   5.478   5.958  16.911  0.4715  0.0048  0.2196
14359TIP3    H164492   5.506   6.047  16.888 -1.3977  0.1538 -1.8655
14359TIP3    H264493   5.527   5.902  16.851  1.5343 -0.3812  1.4295
14360TIP3   OH264494   3.103   1.809   5.546  0.1469  0.3527  0.1897
14360TIP3    H164495   3.051   1.784   5.470 -0.6271  2.3497 -0.0172
14360TIP3    H264496   3.050   1.874   5.592  0.2076 -1.3759  2.9819
14361TIP3   OH264497   4.678   4.769   1.661  0.2585  0.5772  0.0543
14361TIP3    H164498   4.737   4.731   1.596  0.4301  1.4162 -0.2874
14361TIP3    H264499   4.699   4.722   1.742  1.7120  1.1559  0.0429
14362TIP3   OH264500   6.378   5.998   6.088  0.6718 -0.1047  0.0200
14362TIP3    H164501   6.470   6.026   6.091  0.6368 -0.0400  0.4880
14362TIP3    H264502   6.383   5.906   6.064  0.8292  0.0566 -0.5814
14363TIP3   OH264503   6.244   3.848   4.167  0.1852  0.1073  0.7165
14363TIP3    H164504   6.260   3.777   4.105 -0.8197  0.2111  0.3192
14363TIP3    H264505   6.167   3.892   4.133  0.1848  0.7547  1.5325
14364TIP3   OH264506   6.531   5.420  14.205  0.7059 -0.1996 -0.4416
14364TIP3    H164507   6.501   5.493  14.260  1.1879 -1.5502  1.7179
14364TIP3    H264508   6.452   5.367  14.190  0.4370  0.5024 -1.6860
14365TIP3   OH264509   3.727   5.364  16.398 -0.0942 -0.3733  0.1190
14365TIP3    H164510   3.632   5.358  16.406 -0.1617  0.8362  0.4795
14365TIP3    H264511   3.741   5.422  16.322  0.2924  1.0574  1.2259
14366TIP3   OH264512   1.879   6.507  15.085  0.6079  0.4338 -0.1399
14366TIP3    H164513   1.818   6.527  15.156  0.7260  0.2117  0.0249
14366TIP3    H264514   1.830   6.526  15.005  0.2857  0.1599 -0.0117
14367TIP3   OH264515   0.733   5.507   3.837 -0.2110  0.0680 -0.0136
14367TIP3    H164516   0.646   5.517   3.799 -0.5567 -1.6528  0.2582
14367TIP3    H264517   0.755   5.415   3.825  2.5247  0.8346 -2.0623
14368TIP3   OH264518   4.796   5.855   3.077  0.0373  0.5834 -0.6298
14368TIP3    H164519   4.712   5.841   3.033  1.4939  1.2800 -3.8753
14368TIP3    H264520   4.853   5.786   3.043  0.9849  0.4338  1.1428
14369TIP3   OH264521   5.707   4.097   2.307 -0.1996 -0.5718  0.0436
14369TIP3    H164522   5.770   4.083   2.236 -0.8354 -0.1004 -0.6298
14369TIP3    H264523   5.761   4.118   2.383  0.4277  1.2963 -0.8646
14370TIP3   OH264524   2.056   2.756   5.853 -0.2486  0.2828  0.1839
14370TIP3    H164525   2.127   2.817   5.871  0.9687 -0.9679 -0.2076
14370TIP3    H264526   2.022   2.732   5.939 -0.6339  1.3637  0.3455
14371TIP3   OH264527   0.998   5.653  16.635  0.4377  0.5003 -0.1374
14371TIP3    H164528   1.039   5.665  16.720 -0.4191  1.2142  0.1899
14371TIP3    H264529   0.946   5.573  16.644  1.0206  0.1075 -0.2602
14372TIP3   OH264530   4.419   0.978   1.890  0.3599 -0.4662 -0.0245
14372TIP3    H164531   4.452   0.888   1.883 -0.6167 -0.8601  0.2565
14372TIP3    H264532   4.438   1.017   1.804  2.1945 -0.4207  0.3563
14373TIP3   OH264533   4.248   5.316   0.509 -0.3542  0.2264  0.0983
14373TIP3    H164534   4.330   5.348   0.546 -0.4429  0.1522  0.3623
14373TIP3    H264535   4.273   5.239   0.457 -0.0873  0.9463 -0.8544
14374TIP3   OH264536   4.126   3.212  10.769  0.0432 -0.4669  0.1112
14374TIP3    H164537   4.037   3.215  10.807  0.0500  2.6102  0.1534
14374TIP3    H264538   4.133   3.125  10.731 -1.9109 -1.8692  2.6190
14375TIP3   OH264539   3.361   6.123  12.919  0.5058  0.1027 -0.0402
14375TIP3    H164540   3.436   6.176  12.891  0.6556  0.2590  0.6336
14375TIP3    H264541   3.365   6.125  13.015 -0.3143  0.0413 -0.0004
14376TIP3   OH264542   5.162   2.115  11.753  0.0091  0.6201 -0.0661
14376TIP3    H164543   5.189   2.188  11.697  0.2309  1.6977  1.4007
14376TIP3    H264544   5.071   2.134  11.775  0.3359  0.9832  1.0643
14377TIP3   OH264545   4.713   4.040   5.213  0.0410 -0.2309  0.3005
14377TIP3    H164546   4.639   4.100   5.207  1.2471  1.2211 -1.2894
14377TIP3    H264547   4.777   4.087   5.269 -0.2223 -1.4910  1.7195
14378TIP3   OH264548   5.011   4.958   3.480  0.5133  0.4664  0.2817
14378TIP3    H164549   4.961   4.945   3.561  2.0454 -1.0643  1.0637
14378TIP3    H264550   4.998   5.050   3.458 -0.6930  0.6912  1.7590
14379TIP3   OH264551   4.263   2.798   1.722  0.6221  0.0578 -0.0495
14379TIP3    H164552   4.183   2.844   1.746  1.2169  1.0674  0.0473
14379TIP3    H264553   4.331   2.866   1.720  1.3937 -0.6975 -0.5598
14380TIP3   OH264554   1.711   3.645  16.209 -0.1242  0.1141 -0.4322
14380TIP3    H164555   1.664   3.604  16.282  0.5773 -1.4156 -0.7944
14380TIP3    H264556   1.647   3.646  16.138 -0.9925  2.1198  0.3076
14381TIP3   OH264557   0.674   0.571  15.472 -0.8710 -0.3866  0.9214
14381TIP3    H164558   0.762   0.596  15.499 -0.7547 -1.7675  1.9432
14381TIP3    H264559   0.639   0.524  15.548 -2.2680 -0.3680  0.3091
14382TIP3   OH264560   1.797   0.546   4.165 -0.1305 -0.5083 -0.4230
14382TIP3    H164561   1.710   0.547   4.206 -0.1238 -2.5184 -0.2812
14382TIP3    H264562   1.780   0.520   4.074  0.0661  2.0253 -1.2818
14383TIP3   OH264563   1.437   3.930   3.976 -0.2644 -0.1742 -0.9154
14383TIP3    H164564   1.517   3.965   3.939 -0.0945 -0.8802 -1.2310
14383TIP3    H264565   1.466   3.878   4.051 -0.7368  3.0551  1.7746
14384TIP3   OH264566   3.967   0.687   4.193 -0.0312  0.5852  0.2864
14384TIP3    H164567   3.882   0.695   4.150  0.2404  0.5516 -0.2622
14384TIP3    H264568   4.010   0.771   4.178  0.2521  0.4049  0.0790
14385TIP3   OH264569   6.205   6.372  13.317  0.5666 -0.4115 -0.0365
14385TIP3    H164570   6.161   6.332  13.243  1.7527  0.5965 -1.3499
14385TIP3    H264571   6.139   6.430  13.357  0.5293  0.7892 -1.7307
14386TIP3   OH264572   1.888   4.898   3.560  0.0106  0.3291 -0.2808
14386TIP3    H164573   1.909   4.807   3.578  0.3762  0.4999  0.1886
14386TIP3    H264574   1.963   4.931   3.511 -0.5943  0.1022 -1.3914
14387TIP3   OH264575   6.230   0.671   5.334 -0.3375 -0.2075 -0.1315
14387TIP3    H164576   6.239   0.592   5.387 -0.4652  1.0300  1.8628
14387TIP3    H264577   6.166   0.648   5.267 -1.5903 -1.3745  1.3621
14388TIP3   OH264578   2.542   5.100   0.199  0.4244 -0.4519 -0.0362
14388TIP3    H164579   2.488   5.177   0.181 -0.9846 -1.6773 -1.3415
14388TIP3    H264580   2.632   5.132   0.195 -0.1057  0.9499 -1.5329
14389TIP3   OH264581   1.239   5.515  14.759  0.4726  0.6627  0.0063
14389TIP3    H164582   1.223   5.442  14.700  1.8448 -1.0670  1.6751
14389TIP3    H264583   1.330   5.542  14.740  0.3801  1.1586  0.2366
14390TIP3   OH264584   0.382   5.784   1.616  0.1402 -0.0600 -0.4208
14390TIP3    H164585   0.307   5.819   1.664 -0.0185  1.3092 -1.6107
14390TIP3    H264586   0.372   5.689   1.622 -0.9555  0.0998  0.5591
14391TIP3   OH264587   6.651   0.081  14.448  0.1593 -0.2170  0.0477
14391TIP3    H164588   6.672   0.025  14.523  0.7814  0.4247  0.3658
14391TIP3    H264589   6.605   0.156  14.486 -2.3481 -1.3244 -0.5701
14392TIP3   OH264590   4.210   5.205   6.240 -0.2857  0.4468 -0.3339
14392TIP3    H164591   4.253   5.178   6.159  0.5870  1.7175 -0.3159
14392TIP3    H264592   4.280   5.243   6.293 -0.9938  0.3615  0.7026
14393TIP3   OH264593   5.488   2.652   4.455  0.0197  0.3686  0.1829
14393TIP3    H164594   5.578   2.630   4.482 -0.0433 -0.0036  0.1016
14393TIP3    H264595   5.437   2.648   4.536 -0.1107 -0.4370  0.0766
14394TIP3   OH264596   0.460   4.112  13.022 -0.4988 -0.0077 -0.0833
14394TIP3    H164597   0.465   4.051  12.949  0.9197  0.0624 -0.0781
14394TIP3    H264598   0.491   4.196  12.987 -0.9213  0.3201  0.3042
14395TIP3   OH264599   6.016   2.009   5.282 -0.0068 -0.2260 -0.1125
14395TIP3    H164600   5.950   1.945   5.257 -0.5546  0.6628 -1.0172
14395TIP3    H264601   5.981   2.092   5.251  0.9478  0.4366  0.5478
14396TIP3   OH264602   1.000   5.440  17.274 -0.4106 -0.4738  0.3026
14396TIP3    H164603   1.008   5.401  17.361  0.2688 -0.2324  0.3509
14396TIP3    H264604   0.983   5.533  17.291  0.0778 -0.3627  0.1751
14397TIP3   OH264605   6.198   2.119  15.644 -0.0649  0.0251  0.3152
14397TIP3    H164606   6.138   2.106  15.718 -0.9739  3.5114  0.3460
14397TIP3    H264607   6.251   2.195  15.670  0.4681  0.5398 -2.0664
14398TIP3   OH264608   5.500   3.919  12.802 -0.0706 -0.6630 -0.1817
14398TIP3    H164609   5.506   3.935  12.707 -1.8279  1.4388 -0.0195
14398TIP3    H264610   5.431   3.854  12.810 -0.8897  0.1694 -0.3094
14399TIP3   OH264611   4.480   0.562   1.877 -0.4463  0.5465  0.2868
14399TIP3    H164612   4.437   0.605   1.951 -1.1272  1.5194 -0.6425
14399TIP3    H264613   4.420   0.493   1.850 -0.9915  1.2509 -0.3676
14400TIP3   OH264614   5.719   5.606  16.113  0.7525 -0.2933 -0.1810
14400TIP3    H164615   5.690   5.627  16.024  2.1373 -0.3346 -0.6774
14400TIP3    H264616   5.814   5.618  16.110  0.6452  1.7038  1.8491
14401TIP3   OH264617   1.018   3.266  15.670  0.1388  0.2813  0.2771
14401TIP3    H164618   1.108   3.297  15.664 -0.6599  3.0484  0.8244
14401TIP3    H264619   0.974   3.306  15.596 -0.6870 -0.9998  0.0409
14402TIP3   OH264620   1.915   0.606  13.405 -0.6436  0.4067 -0.2049
14402TIP3    H164621   2.004   0.576  13.425 -0.7049  0.7029  0.5585
14402TIP3    H264622   1.862   0.572  13.477 -1.5560 -1.5791 -1.7311
14403TIP3   OH264623   5.770   4.860   4.821  0.4864  0.1827  0.0213
14403TIP3    H164624   5.786   4.809   4.900 -1.7386 -1.8174 -0.6963
14403TIP3    H264625   5.829   4.823   4.755  0.0887 -0.3369 -0.0494
14404TIP3   OH264626   6.293   5.529   3.056 -0.1330 -0.6119 -0.1843
14404TIP3    H164627   6.266   5.562   2.970  1.7581 -1.6566 -1.2535
14404TIP3    H264628   6.340   5.602   3.096 -0.5298 -0.3045 -0.2763
14405TIP3   OH264629   3.170   1.119   6.010  0.5202 -0.2705  0.1635
14405TIP3    H164630   3.191   1.119   6.104 -0.2807  0.5295  0.3558
14405TIP3    H264631   3.226   1.051   5.973 -0.2289 -1.6404  1.4544
14406TIP3   OH264632   4.310   4.587  11.602 -0.0063 -0.2604 -0.2980
14406TIP3    H164633   4.384   4.590  11.541  0.6355  0.5104  0.5025
14406TIP3    H264634   4.275   4.498  11.592  0.7596 -0.4975 -0.9929
14407TIP3   OH264635   1.757   0.822   5.092  0.6306 -0.4804  0.1558
14407TIP3    H164636   1.720   0.768   5.162  1.4021 -0.8965  0.2549
14407TIP3    H264637   1.822   0.765   5.050 -0.0147 -0.3358 -1.0839
14408TIP3   OH264638   4.014   5.232   6.628 -0.5779  0.1163 -0.3127
14408TIP3    H164639   4.109   5.234   6.618 -0.3459  1.3874  1.6090
14408TIP3    H264640   3.991   5.139   6.618  0.8647 -0.2056 -0.8029
14409TIP3   OH264641   1.150   2.214   0.361 -0.0079  0.1445 -0.0207
14409TIP3    H164642   1.067   2.213   0.314  0.3301 -2.5045 -0.7425
14409TIP3    H264643   1.214   2.182   0.297  0.9508 -1.0108  1.4493
14410TIP3   OH264644   4.858   1.313  16.232 -0.0366  0.1957 -0.4493
14410TIP3    H164645   4.815   1.393  16.262 -0.5645  0.2449 -1.2923
14410TIP3    H264646   4.842   1.312  16.137  2.5500  0.6545 -0.9606
14411TIP3   OH264647   5.776   1.266   2.423 -0.0414  0.4199 -0.8422
14411TIP3    H164648   5.769   1.215   2.504  1.3377 -0.1404 -1.0491
14411TIP3    H264649   5.783   1.357   2.454  4.1926  0.0221  0.0248
14412TIP3   OH264650   4.024   6.238  15.891 -0.3871 -0.8378  0.5928
14412TIP3    H164651   3.974   6.162  15.918  0.3502 -1.1884  1.0051
14412TIP3    H264652   4.115   6.209  15.893 -0.2306 -0.7252 -1.7392
14413TIP3   OH264653   1.607   1.551  13.679  0.1611  0.1227 -0.6004
14413TIP3    H164654   1.515   1.561  13.652 -0.3636 -0.0618  1.0040
14413TIP3    H264655   1.653   1.621  13.633 -0.6855 -0.0588 -1.7912
14414TIP3   OH264656   4.561   5.571   1.730 -0.1314  0.5938 -0.3883
14414TIP3    H164657   4.613   5.495   1.758 -0.4170 -0.5022 -2.6288
14414TIP3    H264658   4.473   5.553   1.765  0.3864  1.3088  1.4190
14415TIP3   OH264659   5.317   4.323  13.983  0.3590 -0.1424 -0.5127
14415TIP3    H164660   5.371   4.350  14.057 -0.9748  1.0542  0.0772
14415TIP3    H264661   5.314   4.400  13.927 -1.1491  0.0219 -0.2526
14416TIP3   OH264662   1.417   0.577   4.567 -0.3331  0.0230  0.5229
14416TIP3    H164663   1.339   0.527   4.592 -1.4154  2.0479  1.4643
14416TIP3    H264664   1.390   0.669   4.573  1.7706  0.7739 -0.3775
14417TIP3   OH264665   3.609   5.832   4.160 -0.2637 -0.1391  0.2089
14417TIP3    H164666   3.602   5.918   4.200  0.1288 -0.3527  0.7516
14417TIP3    H264667   3.526   5.788   4.181  0.4111 -0.6934  1.8789
14418TIP3   OH264668   2.447   5.431   4.758 -0.2904  0.6802  0.4661
14418TIP3    H164669   2.407   5.518   4.753  0.3886  0.9482 -0.4692
14418TIP3    H264670   2.376   5.375   4.788 -1.2391  1.2466 -0.6199
14419TIP3   OH264671   5.312   2.078  12.201  0.1299  0.2863 -0.4117
14419TIP3    H164672   5.346   2.121  12.123 -1.8245  1.0434 -0.8998
14419TIP3    H264673   5.297   2.150  12.263  1.0846 -0.2403  0.4620
14420TIP3   OH264674   0.414   1.858   0.707  0.7239  0.1551 -0.3174
14420TIP3    H164675   0.366   1.775   0.703  0.5468  0.2886 -1.0562
14420TIP3    H264676   0.351   1.920   0.744  1.6801 -0.5964  2.8492
14421TIP3   OH264677   1.719   1.123   3.103  0.0894  0.1441  0.1950
14421TIP3    H164678   1.692   1.125   3.195  1.2762 -0.1067  0.5594
14421TIP3    H264679   1.809   1.092   3.105  0.7247  1.7899 -0.9212
14422TIP3   OH264680   4.962   2.264  11.165  0.2651 -0.3175 -0.3026
14422TIP3    H164681   4.978   2.264  11.070 -1.3971 -1.3344 -0.6165
14422TIP3    H264682   4.955   2.357  11.187  0.0117 -0.0838 -1.2956
14423TIP3   OH264683   5.386   4.922  13.000  0.2763  0.1788 -0.1795
14423TIP3    H164684   5.433   4.905  12.918 -0.5016 -1.1077 -0.3808
14423TIP3    H264685   5.299   4.950  12.972 -0.4060 -1.4846  0.1767
14424TIP3   OH264686   0.790   1.753   1.983  0.4398  0.4686 -0.1408
14424TIP3    H164687   0.845   1.675   1.977  0.3705  0.4277 -0.2449
14424TIP3    H264688   0.756   1.765   1.894  0.4332  0.6045 -0.1208
14425TIP3   OH264689   3.555   1.674  15.725 -0.1451 -0.3245  1.3508
14425TIP3    H164690   3.585   1.606  15.665 -0.4515 -0.0287  0.8472
14425TIP3    H264691   3.620   1.676  15.794  0.9521  0.2333  0.3405
14426TIP3   OH264692   1.811   6.317  16.558  0.3102 -0.0854 -0.2022
14426TIP3    H164693   1.772   6.236  16.591  1.8343 -1.2316 -1.0816
14426TIP3    H264694   1.904   6.308  16.576  0.4754  1.7124  0.0894
14427TIP3   OH264695   1.414   2.714   1.347  0.2299 -0.5132 -0.0094
14427TIP3    H164696   1.360   2.708   1.269 -0.1140 -1.1346  0.2731
14427TIP3    H264697   1.446   2.805   1.347 -2.2668  0.4524  0.7609
14428TIP3   OH264698   3.585   3.227  16.873 -0.6290 -0.4631  0.3674
14428TIP3    H164699   3.574   3.230  16.968 -0.9184  1.0196  0.3154
14428TIP3    H264700   3.679   3.239  16.860 -0.7114  0.3478  0.4544
14429TIP3   OH264701   2.460   5.308   5.629  1.0660  0.6212 -0.3532
14429TIP3    H164702   2.509   5.226   5.617 -3.3905 -2.1769 -1.9208
14429TIP3    H264703   2.419   5.298   5.715  1.3250  1.7804 -0.0878
14430TIP3   OH264704   5.698   5.636  17.332  0.1635 -0.6524  0.3777
14430TIP3    H164705   5.788   5.604  17.327 -0.1925 -1.5453 -0.5372
14430TIP3    H264706   5.668   5.640  17.242 -1.2892 -2.0597  0.7422
14431TIP3   OH264707   4.439   2.298   5.978 -0.3005  0.6549 -0.5937
14431TIP3    H164708   4.476   2.221   6.021 -2.2699 -2.1947 -3.4986
14431TIP3    H264709   4.361   2.320   6.030 -1.0548 -0.9051 -1.0099
14432TIP3   OH264710   3.121   2.397   5.121  0.4202 -0.0606 -0.0469
14432TIP3    H164711   3.205   2.436   5.144  0.0742  0.0074  1.1368
14432TIP3    H264712   3.067   2.471   5.093  0.8371 -0.1425 -1.1124
14433TIP3   OH264713   5.946   2.769  13.124  0.2039 -0.2346  0.0559
14433TIP3    H164714   5.878   2.807  13.179  0.2293 -1.5130  0.9975
14433TIP3    H264715   5.956   2.831  13.051 -2.3584 -0.2992 -0.4187
14434TIP3   OH264716   3.678   6.077  13.328 -0.3809 -0.1888 -0.6224
14434TIP3    H164717   3.629   6.159  13.315  1.1792  1.1584  1.4463
14434TIP3    H264718   3.755   6.086  13.272  0.9038  0.8204  1.2076
14435TIP3   OH264719   1.996   2.932   0.734  0.7603 -0.5159  0.0036
14435TIP3    H164720   2.028   2.958   0.820 -0.5424  0.9015  0.1137
14435TIP3    H264721   2.055   2.974   0.672  0.6471 -0.0483  0.2083
14436TIP3   OH264722   6.553   3.523   5.988  0.2292 -0.4566 -0.0037
14436TIP3    H164723   6.527   3.593   6.047  1.6833 -0.8718  1.1737
14436TIP3    H264724   6.622   3.475   6.034  2.1040 -0.2452 -2.3649
14437TIP3   OH264725   2.058   1.780   3.754 -0.0289 -0.2306 -0.8713
14437TIP3    H164726   2.099   1.847   3.810  1.0052 -2.6275  1.4929
14437TIP3    H264727   2.114   1.777   3.676  2.5951 -1.2168  0.8968
14438TIP3   OH264728   5.545   6.387  14.341  0.4010 -0.2460 -0.4711
14438TIP3    H164729   5.538   6.336  14.260 -0.4662 -1.2745  0.2426
14438TIP3    H264730   5.639   6.397  14.354  0.5874 -1.5334 -0.7068
14439TIP3   OH264731   1.907   5.219   2.903  0.0180 -0.0123 -0.5055
14439TIP3    H164732   1.946   5.245   2.819 -2.6120  2.5187 -1.1146
14439TIP3    H264733   1.912   5.298   2.957  0.1676 -1.1195  1.1726
14440TIP3   OH264734   3.364   2.327  13.979  0.1205 -0.1775 -0.0670
14440TIP3    H164735   3.411   2.344  14.061  1.0799  0.5419 -0.7440
14440TIP3    H264736   3.372   2.409  13.930 -2.2053  0.1161 -0.0648
14441TIP3   OH264737   5.792   4.453  13.550 -0.9295 -0.5453  0.3199
14441TIP3    H164738   5.826   4.493  13.631 -0.5807 -0.9372  0.3642
14441TIP3    H264739   5.801   4.522  13.484 -2.5540  0.3038  0.9109
14442TIP3   OH264740   3.793   4.154   6.385  0.1635  0.3169  0.2683
14442TIP3    H164741   3.850   4.110   6.322  1.2672  1.2384  0.5796
14442TIP3    H264742   3.707   4.155   6.343  0.4059 -0.9217 -0.3082
14443TIP3   OH264743   5.186   0.319   2.357 -0.0091 -0.5034 -0.1186
14443TIP3    H164744   5.265   0.352   2.398  0.1431 -0.6322 -0.3085
14443TIP3    H264745   5.188   0.225   2.373  0.4921 -0.6892 -1.1554
14444TIP3   OH264746   0.976   4.353   5.241 -0.4428  1.0100 -0.0394
14444TIP3    H164747   0.908   4.288   5.227 -1.2439  1.8688 -0.2661
14444TIP3    H264748   0.932   4.437   5.228  0.4425  1.6184  0.7290
14445TIP3   OH264749   1.777   2.786  11.585 -0.0713 -0.6703  0.1330
14445TIP3    H164750   1.703   2.738  11.547 -0.4423 -0.2900  0.3612
14445TIP3    H264751   1.809   2.841  11.513 -0.4731 -0.3006  0.2297
14446TIP3   OH264752   1.458   2.572  14.401 -0.0430 -0.6436 -0.0118
14446TIP3    H164753   1.431   2.504  14.463  0.3020 -1.1686 -0.4280
14446TIP3    H264754   1.388   2.637  14.405  1.1154  0.5931  2.7611
14447TIP3   OH264755   5.956   3.496  17.387 -0.8076 -0.2403  0.6919
14447TIP3    H164756   5.872   3.451  17.389 -0.5143 -0.9778 -1.1024
14447TIP3    H264757   5.979   3.499  17.294  1.7311 -1.1817  1.1959
14448TIP3   OH264758   3.293   0.955   2.518  0.2233  0.1324 -0.0751
14448TIP3    H164759   3.251   0.913   2.443  0.1027 -0.5401  0.3623
14448TIP3    H264760   3.226   1.012   2.554  0.6996  1.5316 -1.2802
14449TIP3   OH264761   0.463   2.655  14.911 -0.4133 -0.0916  0.2135
14449TIP3    H164762   0.428   2.744  14.918 -1.3803 -0.5372  1.3900
14449TIP3    H264763   0.498   2.636  14.998  0.0454 -0.7663 -0.1096
14450TIP3   OH264764   1.463   1.613  16.965  0.4019 -0.3371 -0.5864
14450TIP3    H164765   1.428   1.636  16.879 -0.7733  1.5396  0.3086
14450TIP3    H264766   1.449   1.692  17.017  0.9096 -1.4926  1.3832
14451TIP3   OH264767   1.666   4.361  12.845 -0.9497  0.2756  0.0520
14451TIP3    H164768   1.580   4.356  12.887 -3.0649 -1.6699 -3.8861
14451TIP3    H264769   1.714   4.287  12.882 -2.6196 -1.2275 -0.5982
14452TIP3   OH264770   4.843   6.015   3.516  0.2905  0.2167 -0.0663
14452TIP3    H164771   4.827   5.956   3.590 -1.8867 -0.3914 -0.9398
14452TIP3    H264772   4.830   5.961   3.439  2.5738  0.8360 -0.9662
14453TIP3   OH264773   0.932   4.924  16.290 -0.0692 -0.0245  0.0081
14453TIP3    H164774   0.843   4.892  16.306  0.4813 -1.5593  0.2153
14453TIP3    H264775   0.982   4.845  16.267  1.4617  0.6385  0.8885
14454TIP3   OH264776   2.112   5.165   5.119 -0.3658 -0.7777 -0.2052
14454TIP3    H164777   2.187   5.210   5.080 -0.2547 -0.1010  0.7620
14454TIP3    H264778   2.037   5.194   5.067 -0.1851 -0.0893 -0.0933
14455TIP3   OH264779   5.223   0.112   5.359  0.4614  0.4461  0.1890
14455TIP3    H164780   5.143   0.143   5.315  1.2043 -0.3567 -1.8600
14455TIP3    H264781   5.193   0.042   5.417 -0.4545  0.9081  0.2957
14456TIP3   OH264782   6.691   3.969  15.553  0.2266  0.2276  0.3319
14456TIP3    H164783   6.672   3.939  15.642 -0.9105 -1.5573 -0.4730
14456TIP3    H264784   6.621   4.031  15.533  0.4818  0.6297  0.6541
14457TIP3   OH264785   0.073   6.362  13.267  0.2041 -0.7566  0.3341
14457TIP3    H164786   0.062   6.446  13.312  1.0193  0.4896 -1.6541
14457TIP3    H264787   0.035   6.376  13.180  0.4396 -2.4271 -0.0656
14458TIP3   OH264788   5.123   3.833  15.978  0.2565  0.1049  0.2906
14458TIP3    H164789   5.089   3.770  16.042 -1.3719  1.1195  0.4821
14458TIP3    H264790   5.100   3.795  15.893  1.7217 -0.8593  0.2961
14459TIP3   OH264791   0.179   4.595   0.420  0.2319 -0.7947  0.0200
14459TIP3    H164792   0.202   4.508   0.453 -1.8744 -1.2388  0.4729
14459TIP3    H264793   0.256   4.649   0.439  1.4200 -2.4451  0.1250
14460TIP3   OH264794   2.038   2.723   6.155 -0.4630 -0.6980 -0.1887
14460TIP3    H164795   1.971   2.787   6.179 -0.9637 -1.5821  0.8073
14460TIP3    H264796   2.012   2.642   6.198  0.5905 -1.3873 -0.7878
14461TIP3   OH264797   3.321   3.936  17.180  0.2687 -0.1456 -0.0761
14461TIP3    H164798   3.320   3.989  17.100  0.5481 -0.8279 -0.5344
14461TIP3    H264799   3.325   3.846  17.149 -1.3271 -0.5050  0.6781
14462TIP3   OH264800   2.890   5.634   2.996  0.2766 -0.1653  0.7124
14462TIP3    H164801   2.868   5.560   3.053  2.2840  0.4619  2.4326
14462TIP3    H264802   2.947   5.597   2.929  0.1908 -0.4060  0.7725
14463TIP3   OH264803   4.568   3.653  13.750  0.4491  0.1320 -0.1337
14463TIP3    H164804   4.537   3.730  13.703 -3.9543 -1.1410  0.2147
14463TIP3    H264805   4.631   3.688  13.814 -2.0775  3.6993  0.7264
14464TIP3   OH264806   1.510   5.589   5.404  0.0602  0.3510  0.2641
14464TIP3    H164807   1.524   5.617   5.494 -2.4838  2.3200  0.1555
14464TIP3    H264808   1.415   5.585   5.394  0.2449  0.4930 -2.4155
14465TIP3   OH264809   5.035   5.425  12.023 -0.2832  0.2076 -0.0949
14465TIP3    H164810   4.953   5.473  12.032 -0.2818  0.0726  0.8106
14465TIP3    H264811   5.102   5.489  12.050 -0.2110 -0.0422  0.3343
14466TIP3   OH264812   4.304   6.624  14.434 -0.1648  0.0685  0.4714
14466TIP3    H164813   4.387   6.639  14.478  0.7412  1.0523 -1.4869
14466TIP3    H264814   4.272   6.542  14.472  1.5011 -0.1498  1.5102
14467TIP3   OH264815   0.928   1.507   4.456  0.4860 -0.0765  0.0845
14467TIP3    H164816   0.935   1.415   4.483  0.7417 -0.2047 -0.3949
14467TIP3    H264817   0.840   1.533   4.483  0.1776 -0.6506 -0.3165
14468TIP3   OH264818   3.111   4.909   4.425  0.5481  0.1353 -0.0049
14468TIP3    H164819   3.184   4.848   4.435  0.5755  0.2361  0.4350
14468TIP3    H264820   3.038   4.856   4.394  0.2529 -0.3429  1.4353
14469TIP3   OH264821   4.690   5.994  16.362 -0.3159 -0.0660 -0.0194
14469TIP3    H164822   4.653   5.950  16.439  0.2552 -0.8080 -0.1594
14469TIP3    H264823   4.755   5.933  16.328 -0.1262  0.5185 -0.7415
14470TIP3   OH264824   6.114   1.071   2.589  0.1774 -0.0531 -0.2204
14470TIP3    H164825   6.129   1.041   2.679  0.0287 -1.8663 -0.7643
14470TIP3    H264826   6.065   1.153   2.599 -0.5229 -0.6271  1.3363
14471TIP3   OH264827   6.673   5.742  15.086  0.1990  0.3654 -0.4447
14471TIP3    H164828   6.666   5.762  15.179  1.2390 -0.2592 -0.2186
14471TIP3    H264829   6.655   5.648  15.080  0.9803  0.2274 -0.7550
14472TIP3   OH264830   4.613   4.425   1.546  0.1529  0.0243 -0.0157
14472TIP3    H164831   4.672   4.375   1.489 -0.3652 -0.9067  0.2490
14472TIP3    H264832   4.581   4.496   1.491 -0.1706 -0.7356 -0.8270
14473TIP3   OH264833   3.837   3.136  13.675 -0.1700 -0.3618  0.0268
14473TIP3    H164834   3.929   3.160  13.673 -0.1721 -0.3739 -2.7076
14473TIP3    H264835   3.833   3.050  13.633 -1.3618 -0.7025  0.7828
14474TIP3   OH264836   0.436   3.775   4.464  0.6705 -0.0349  0.7337
14474TIP3    H164837   0.376   3.775   4.539 -0.1771  1.0380  0.0744
14474TIP3    H264838   0.379   3.784   4.388  1.4725 -1.7247 -0.1159
14475TIP3   OH264839   6.703   0.511  16.133 -0.1242 -0.0619 -0.4818
14475TIP3    H164840   6.724   0.572  16.204  1.7096 -0.4504 -0.6439
14475TIP3    H264841   6.702   0.566  16.054  1.2511 -0.1806 -0.5915
14476TIP3   OH264842   5.832   3.304  17.102  0.1587 -0.5181  0.1753
14476TIP3    H164843   5.765   3.359  17.060  0.8449  0.1107 -0.1236
14476TIP3    H264844   5.913   3.326  17.055  0.1499 -3.1706 -1.2549
14477TIP3   OH264845   6.704   4.650  13.413  1.0813 -0.5012 -0.2849
14477TIP3    H164846   6.744   4.563  13.411 -0.1092 -1.0741 -0.2779
14477TIP3    H264847   6.638   4.643  13.483 -1.6365 -0.8060 -2.7078
14478TIP3   OH264848   4.098   4.067  15.707 -0.4044  0.3291 -0.2923
14478TIP3    H164849   4.110   3.973  15.699  2.6570  0.4558  1.2738
14478TIP3    H264850   4.058   4.080  15.793 -0.6377  0.4767 -0.4212
14479TIP3   OH264851   0.137   1.465   2.912  0.0203 -0.2627 -0.2784
14479TIP3    H164852   0.124   1.406   2.838 -0.0054  0.7560 -1.1229
14479TIP3    H264853   0.099   1.548   2.883  0.6888  0.3685  0.5862
14480TIP3   OH264854   6.532   2.386   3.236  0.1278  0.2836  0.0469
14480TIP3    H164855   6.448   2.431   3.232 -0.1465 -0.2637 -2.7005
14480TIP3    H264856   6.512   2.301   3.275 -0.3408  0.6103  0.5274
14481TIP3   OH264857   4.189   3.850  11.520  0.1337 -0.4153 -0.0236
14481TIP3    H164858   4.252   3.779  11.518  0.4277 -0.1579 -1.8818
14481TIP3    H264859   4.185   3.881  11.430 -0.7756  1.2305  0.5367
14482TIP3   OH264860   1.098   5.233  15.694 -0.1816 -0.2987  0.1687
14482TIP3    H164861   1.041   5.158  15.711 -1.9735  1.0785  0.5787
14482TIP3    H264862   1.074   5.298  15.761  0.6348  1.0005 -0.7386
14483TIP3   OH264863   2.290   2.995   4.344 -0.3513  0.1656  0.1203
14483TIP3    H164864   2.307   3.048   4.266  1.4766 -1.9422 -1.0354
14483TIP3    H264865   2.195   3.000   4.355 -0.4941  1.7729 -1.3076
14484TIP3   OH264866   3.160   3.412   5.408 -0.0791  0.7118  0.1157
14484TIP3    H164867   3.234   3.470   5.391 -0.9633  1.6927 -0.5133
14484TIP3    H264868   3.144   3.368   5.325 -0.0310  0.2740  0.3323
14485TIP3   OH264869   1.063   3.889   1.813 -0.0794 -0.6783 -0.2955
14485TIP3    H164870   1.133   3.937   1.858  1.2454 -1.9682 -0.9168
14485TIP3    H264871   1.100   3.868   1.728 -1.8584  0.0454 -1.2930
14486TIP3   OH264872   5.655   1.113   0.554  0.1117 -0.1390  0.2854
14486TIP3    H164873   5.641   1.051   0.626  0.8449  0.4874  0.9775
14486TIP3    H264874   5.647   1.199   0.594  1.6484  0.2339 -0.1188
14487TIP3   OH264875   2.288   4.403   1.300  0.1368 -0.2252 -0.5179
14487TIP3    H164876   2.360   4.454   1.263 -1.0709  2.8222  0.9743
14487TIP3    H264877   2.302   4.408   1.394 -1.4691 -0.4397 -0.2497
14488TIP3   OH264878   5.404   4.042  11.763  0.0287 -0.2234 -0.3759
14488TIP3    H164879   5.432   3.956  11.731  0.4199  0.1395 -1.0336
14488TIP3    H264880   5.320   4.057  11.721 -0.1463 -0.3800 -0.0843
14489TIP3   OH264881   3.202   4.717   3.355  0.2767  0.3667  0.0799
14489TIP3    H164882   3.268   4.774   3.393 -0.9350  1.3996  0.7024
14489TIP3    H264883   3.223   4.715   3.261  0.1376  2.1671 -0.0203
14490TIP3   OH264884   5.567   3.623   3.855  0.2967  0.2153  0.2256
14490TIP3    H164885   5.524   3.654   3.935  0.1605 -0.8836  0.6023
14490TIP3    H264886   5.627   3.555   3.886 -0.4598 -0.9095 -0.7050
14491TIP3   OH264887   4.640   0.829  12.320  0.0591  0.1263 -0.0999
14491TIP3    H164888   4.653   0.747  12.367  1.7583 -0.2836 -1.1856
14491TIP3    H264889   4.593   0.804  12.240  1.5347 -0.0129 -0.9598
14492TIP3   OH264890   2.640   3.421   2.868  0.0644 -0.5070 -0.3155
14492TIP3    H164891   2.711   3.444   2.807  0.6306 -1.2487  0.0540
14492TIP3    H264892   2.683   3.416   2.953 -0.2441 -1.9002 -0.2313
14493TIP3   OH264893   0.658   5.964   3.993 -0.0492  0.4998  0.7558
14493TIP3    H164894   0.714   5.912   4.051  1.2837  0.5071 -0.4508
14493TIP3    H264895   0.686   6.054   4.008 -1.9201  0.8862  2.3790
14494TIP3   OH264896   2.202   4.398  13.451  0.1183  0.3852  0.7174
14494TIP3    H164897   2.107   4.394  13.468  0.0599 -0.8411  0.1884
14494TIP3    H264898   2.218   4.489  13.429 -0.9139  0.6471  0.9659
14495TIP3   OH264899   6.567   2.743  13.720  0.1969  0.1328  0.4918
14495TIP3    H164900   6.490   2.766  13.668  0.5219  0.6460  0.2245
14495TIP3    H264901   6.533   2.725  13.808 -0.0297  2.0910  0.8388
14496TIP3   OH264902   5.585   0.117   2.969  0.3391  0.5538 -0.0159
14496TIP3    H164903   5.565   0.046   3.029 -0.8923 -0.0147 -1.0291
14496TIP3    H264904   5.657   0.165   3.010  1.5791 -1.5897  0.4351
14497TIP3   OH264905   3.130   3.064   3.141  0.1306 -0.1518  0.2941
14497TIP3    H164906   3.153   3.156   3.155  0.7341 -0.1245 -0.8147
14497TIP3    H264907   3.200   3.014   3.183  0.0229 -0.1090  0.5276
14498TIP3   OH264908   0.305   3.920   1.221 -0.0119  0.4988 -1.2473
14498TIP3    H164909   0.363   3.994   1.206  0.2248  0.4116 -0.7753
14498TIP3    H264910   0.229   3.937   1.165  0.8392  0.1745 -2.5231
14499TIP3   OH264911   5.321   4.813   2.298  0.1813  0.5083 -0.2372
14499TIP3    H164912   5.372   4.853   2.228 -0.2007  3.3387  0.9693
14499TIP3    H264913   5.382   4.804   2.371 -0.2959  1.1991  0.2700
14500TIP3   OH264914   5.278   1.102   2.567 -0.4476 -0.1701  0.0497
14500TIP3    H164915   5.352   1.145   2.523  0.9131 -2.3911  0.0094
14500TIP3    H264916   5.313   1.017   2.593 -3.2610 -1.6677 -0.7648
14501TIP3   OH264917   3.259   2.660  16.014  0.0031 -0.0374 -0.3834
14501TIP3    H164918   3.224   2.608  16.087 -0.6927  0.6646 -0.1970
14501TIP3    H264919   3.308   2.598  15.961  2.3220 -0.1959  1.7859
14502TIP3   OH264920   0.847   4.242   4.842 -0.0243 -0.3060  0.6359
14502TIP3    H164921   0.923   4.184   4.837 -0.8915 -1.4412  0.3419
14502TIP3    H264922   0.783   4.204   4.782 -0.7164  0.8201  0.6205
14503TIP3   OH264923   2.958   3.710   4.803 -0.2665  0.0032  0.4922
14503TIP3    H164924   2.978   3.720   4.710 -0.9579  1.2588  0.4441
14503TIP3    H264925   3.006   3.632   4.830  1.6232  0.7775 -0.4287
14504TIP3   OH264926   1.277   4.524   3.043 -0.1757  0.0010 -0.5195
14504TIP3    H164927   1.285   4.596   3.105 -0.2817 -0.8791  0.5378
14504TIP3    H264928   1.227   4.561   2.970 -0.6997  0.8500  0.2506
14505TIP3   OH264929   0.608   3.762   4.214 -0.3644  0.5569  0.6696
14505TIP3    H164930   0.672   3.732   4.278 -1.4204  0.5944  1.7912
14505TIP3    H264931   0.563   3.834   4.258  0.4576  2.1804 -1.0306
14506TIP3   OH264932   1.832   2.757  15.352 -0.2533  0.3570  0.4771
14506TIP3    H164933   1.867   2.669  15.365  2.1858  1.2185  0.3510
14506TIP3    H264934   1.837   2.770  15.257 -1.5594  0.2937  0.3860
14507TIP3   OH264935   0.593   5.042  11.699 -0.1821  0.6519 -0.0097
14507TIP3    H164936   0.517   5.069  11.648  0.2861 -1.0249 -1.7459
14507TIP3    H264937   0.578   4.948  11.716  1.8703  0.0440 -1.2119
14508TIP3   OH264938   6.476   3.738   1.714 -0.0266  0.5156  0.2958
14508TIP3    H164939   6.422   3.735   1.793  1.0746  1.2474  1.1063
14508TIP3    H264940   6.566   3.743   1.746  0.5130 -0.1302 -1.0197
14509TIP3   OH264941   1.169   0.403   3.068 -0.0605 -0.8860  0.5996
14509TIP3    H164942   1.254   0.388   3.027 -0.6226  1.4243 -1.6530
14509TIP3    H264943   1.107   0.354   3.014 -0.4168 -0.9272  1.0318
14510TIP3   OH264944   1.351   6.137   2.599 -0.2940 -0.0337  0.3502
14510TIP3    H164945   1.436   6.102   2.572  0.3913  0.1239  2.1412
14510TIP3    H264946   1.344   6.222   2.556 -0.0283 -0.4970 -0.6318
14511TIP3   OH264947   3.862   1.537  11.831 -0.1963  0.2973  0.3957
14511TIP3    H164948   3.905   1.532  11.745  0.4996 -2.3541  0.8015
14511TIP3    H264949   3.896   1.462  11.879 -3.3822 -0.5054  1.6576
14512TIP3   OH264950   1.686   4.477  14.241  0.3595  0.3268 -0.6660
14512TIP3    H164951   1.674   4.565  14.277 -0.9360  0.4789 -1.4168
14512TIP3    H264952   1.771   4.449  14.274 -0.4269  0.7254  1.9424
14513TIP3   OH264953   1.537   1.541  13.317 -0.4704  0.0554 -0.2159
14513TIP3    H164954   1.628   1.547  13.287 -0.6242  1.2587 -0.4790
14513TIP3    H264955   1.540   1.476  13.388  0.6357  0.2494 -0.0572
14514TIP3   OH264956   5.432   1.520  13.649  0.1426  0.3041  0.3548
14514TIP3    H164957   5.521   1.520  13.682  0.1197  1.4336  0.4508
14514TIP3    H264958   5.428   1.595  13.589 -1.0812  1.0377  1.3144
14515TIP3   OH264959   2.592   2.646   2.148  0.3624  0.3723  0.2513
14515TIP3    H164960   2.574   2.601   2.065  2.0033 -0.8237  0.5048
14515TIP3    H264961   2.543   2.729   2.140  0.2291  0.1684 -1.7753
14516TIP3   OH264962   2.796   0.265   6.305  0.1720 -0.2179 -0.2148
14516TIP3    H164963   2.867   0.212   6.343  1.6690  2.2920  0.7453
14516TIP3    H264964   2.739   0.286   6.378 -0.4302 -0.5347 -0.5899
14517TIP3   OH264965   3.882   0.839  15.088  0.1504  0.1235 -0.5436
14517TIP3    H164966   3.944   0.786  15.038  0.0073 -0.0849 -0.5001
14517TIP3    H264967   3.800   0.789  15.086  0.7479 -1.1153  1.9648
14518TIP3   OH264968   6.163   5.408   1.919  0.1239  0.7074 -0.0193
14518TIP3    H164969   6.214   5.466   1.863  0.2367  1.6733  1.0589
14518TIP3    H264970   6.215   5.399   1.999  0.0326 -0.7497 -0.0885
14519TIP3   OH264971   3.518   3.819  13.002  0.1091 -0.6112 -0.4430
14519TIP3    H164972   3.568   3.737  12.998  1.8615  0.4332 -0.8312
14519TIP3    H264973   3.426   3.791  12.997  0.6319 -2.5811  0.0598
14520TIP3   OH264974   3.458   0.592   3.976  0.2717 -0.4441 -0.3261
14520TIP3    H164975   3.473   0.528   4.045  2.4024 -0.4442 -0.7109
14520TIP3    H264976   3.442   0.539   3.897 -3.7957 -0.4799  0.2940
14521TIP3   OH264977   2.801   2.979   6.031 -0.1770 -0.8382 -0.4523
14521TIP3    H164978   2.749   2.899   6.044  0.1869 -0.8113  1.3130
14521TIP3    H264979   2.867   2.976   6.100  0.6163  0.3840 -1.1399
14522TIP3   OH264980   0.690   0.812  12.461 -0.6639 -0.1258 -0.7060
14522TIP3    H164981   0.756   0.876  12.489 -0.2425 -0.2396 -1.4296
14522TIP3    H264982   0.692   0.744  12.529 -3.3934  2.1198  1.8938
14523TIP3   OH264983   5.714   2.332   1.023  0.1111  0.4947  0.1435
14523TIP3    H164984   5.806   2.331   1.052  0.9555  2.0486 -2.1918
14523TIP3    H264985   5.675   2.406   1.068 -0.2683 -0.5888  1.6938
14524TIP3   OH264986   3.001   2.604   2.268  0.2882 -0.3203  0.1740
14524TIP3    H164987   2.987   2.509   2.264  0.0274 -0.2505 -2.6299
14524TIP3    H264988   2.918   2.639   2.303 -0.0309 -1.0433  0.1657
14525TIP3   OH264989   2.070   0.184  11.415 -0.0199 -0.4537  0.2415
14525TIP3    H164990   2.081   0.089  11.408  0.8806 -0.4856  1.6158
14525TIP3    H264991   2.159   0.217  11.430 -0.5205  0.4056  1.5079
14526TIP3   OH264992   3.780   6.499  15.857 -0.2977 -0.2162 -0.4399
14526TIP3    H164993   3.850   6.537  15.910 -0.0282 -2.7277  1.1739
14526TIP3    H264994   3.813   6.503  15.767  0.6708  1.1717 -0.0585
14527TIP3   OH264995   4.151   2.022   5.360  0.1640  0.0709  0.8951
14527TIP3    H164996   4.095   1.977   5.297  0.4291 -0.2745  0.9016
14527TIP3    H264997   4.123   2.113   5.356  2.0928  0.7053 -1.9168
14528TIP3   OH264998   3.389   6.299  11.518  0.1577  0.1719  0.0687
14528TIP3    H164999   3.472   6.251  11.513  0.8512  1.4170 -0.9624
14528TIP3    H265000   3.336   6.263  11.447 -0.8030 -1.6482  1.6209
14529TIP3   OH265001   0.627   0.642  16.490 -0.1514  0.2932  0.1886
14529TIP3    H165002   0.666   0.728  16.474 -0.0652  0.1825 -0.2062
14529TIP3    H265003   0.543   0.645  16.444  0.4805 -0.3356 -1.0798
14530TIP3   OH265004   2.893   1.271   0.377 -0.4053  0.1942 -0.1400
14530TIP3    H165005   2.924   1.357   0.348  1.7954 -0.5701 -0.2476
14530TIP3    H265006   2.858   1.286   0.464 -0.3697  1.2508 -0.2918
14531TIP3   OH265007   3.441   5.483  12.055 -0.0228 -0.6157 -0.0044
14531TIP3    H165008   3.492   5.563  12.040  0.1102 -0.2109  2.2924
14531TIP3    H265009   3.506   5.413  12.054  0.2152 -0.4023  0.3701
14532TIP3   OH265010   0.121   1.755   6.681 -0.0870  0.1587  0.2645
14532TIP3    H165011   0.110   1.674   6.632 -1.2855 -0.2472  1.1637
14532TIP3    H265012   0.061   1.817   6.640 -0.0705  0.2244  0.3386
14533TIP3   OH265013   2.199   5.770  14.532  0.6795 -0.2769  0.3889
14533TIP3    H165014   2.188   5.680  14.503 -1.1692  0.2028 -0.6008
14533TIP3    H265015   2.172   5.770  14.624  1.1374 -0.7989  0.5258
14534TIP3   OH265016   3.783   6.146  16.893 -0.2633 -0.8304  0.6396
14534TIP3    H165017   3.761   6.167  16.802 -3.6089  0.5923  1.6276
14534TIP3    H265018   3.842   6.216  16.920 -0.9109 -0.0596  0.1227
14535TIP3   OH265019   0.356   6.028  13.899  0.0737  0.2641  0.1314
14535TIP3    H165020   0.298   6.032  13.975 -0.0187  0.4987  0.0519
14535TIP3    H265021   0.444   6.030  13.936  0.0399 -0.7812  0.2850
14536TIP3   OH265022   3.794   3.205   0.884 -0.7460  0.4431 -0.1790
14536TIP3    H165023   3.886   3.224   0.901 -0.4728 -0.2110 -0.8641
14536TIP3    H265024   3.746   3.260   0.947  0.1330 -0.0240  0.9266
14537TIP3   OH265025   1.302   0.966  17.153  0.6388 -0.3800  0.0601
14537TIP3    H165026   1.241   0.895  17.131  1.4749 -0.9287 -0.5269
14537TIP3    H265027   1.320   0.953  17.246 -0.0341 -0.2902  0.2094
14538TIP3   OH265028   1.308   0.181   4.010  0.4426 -0.0654 -0.6363
14538TIP3    H165029   1.305   0.276   3.996  1.1271 -0.3336 -3.1495
14538TIP3    H265030   1.396   0.156   3.983  0.2069 -1.4604 -0.1870
14539TIP3   OH265031   4.338   5.438  15.455 -0.0224 -0.1205 -0.1248
14539TIP3    H165032   4.262   5.392  15.419 -0.8159  0.8294  0.3073
14539TIP3    H265033   4.411   5.376  15.443 -0.7780 -0.8925 -0.8872
14540TIP3   OH265034   1.112   2.466  14.742  0.2205  0.0644 -0.5758
14540TIP3    H165035   1.019   2.450  14.757 -0.1584  1.1413 -1.5578
14540TIP3    H265036   1.119   2.562  14.740  1.5707  0.0307  0.6618
14541TIP3   OH265037   0.668   6.090  14.230  0.2087  0.4048 -0.3566
14541TIP3    H165038   0.632   6.052  14.150 -0.4174  0.0886  0.0653
14541TIP3    H265039   0.595   6.139  14.269 -0.5049 -1.9959  1.6080
14542TIP3   OH265040   5.396   2.091  15.705  0.2679  0.2961 -0.1308
14542TIP3    H165041   5.479   2.046  15.721  0.0634 -0.3322 -0.7613
14542TIP3    H265042   5.418   2.184  15.704  0.7923  0.1928  0.6669
14543TIP3   OH265043   4.406   2.428   5.619 -0.0000 -0.3012 -0.2306
14543TIP3    H165044   4.466   2.451   5.548 -0.0430  1.8456  0.3724
14543TIP3    H265045   4.332   2.385   5.575  0.7109 -0.4710 -1.2862
14544TIP3   OH265046   3.981   1.963   1.221  0.6622  0.4175 -0.4876
14544TIP3    H165047   4.048   1.900   1.245 -0.3460 -1.0645 -1.3893
14544TIP3    H265048   3.976   2.023   1.296  2.2678 -0.0250  0.0042
14545TIP3   OH265049   2.413   3.957   0.038 -0.1733 -0.3851  0.1689
14545TIP3    H165050   2.503   3.926   0.031  0.4041  0.9674  1.0340
14545TIP3    H265051   2.413   4.012   0.117 -1.7108 -0.1854  0.0680
14546TIP3   OH265052   6.096   0.845  15.810 -0.4370 -0.2957  0.3318
14546TIP3    H165053   6.031   0.800  15.755 -0.8058  0.5540  0.0577
14546TIP3    H265054   6.157   0.776  15.837 -0.1477 -0.6994 -1.2835
14547TIP3   OH265055   4.690   2.215   0.509 -0.1070 -0.5367 -0.1485
14547TIP3    H165056   4.755   2.259   0.564  1.1510 -0.8392 -1.3278
14547TIP3    H265057   4.713   2.122   0.514 -2.4786 -1.1254  1.9859
14548TIP3   OH265058   3.746   3.015   4.835  0.6481  0.1457  0.1188
14548TIP3    H165059   3.773   2.926   4.813  0.5026  0.3358 -0.8492
14548TIP3    H265060   3.773   3.068   4.760  0.3432  0.8449  0.4961
14549TIP3   OH265061   4.784   5.543  12.004 -0.0453 -0.2877  0.4750
14549TIP3    H165062   4.783   5.630  12.043  3.5182 -0.3316  1.0147
14549TIP3    H265063   4.692   5.523  11.987 -1.1513  2.7180  2.1608
14550TIP3   OH265064   4.588   5.769  15.990 -0.8063 -0.1796  0.3130
14550TIP3    H165065   4.657   5.824  15.953  0.0007 -1.4893 -0.2048
14550TIP3    H265066   4.598   5.779  16.085  0.1188 -0.3717  0.2454
14551TIP3   OH265067   4.202   3.730  13.662 -0.2822 -0.1339 -0.0550
14551TIP3    H165068   4.165   3.816  13.684  2.4179  0.8349  1.1711
14551TIP3    H265069   4.203   3.683  13.745 -1.5428 -1.3145 -0.6822
14552TIP3   OH265070   6.488   1.328   0.969  0.1284 -0.7358  0.6088
14552TIP3    H165071   6.506   1.235   0.963  0.5131 -0.6724  0.7543
14552TIP3    H265072   6.571   1.367   0.997  0.8813  0.0381 -2.3802
14553TIP3   OH265073   6.384   6.009   2.185  0.0369 -0.7004 -0.7984
14553TIP3    H165074   6.380   6.038   2.094 -0.7604 -0.1727 -0.6041
14553TIP3    H265075   6.374   5.914   2.181  0.3231 -0.7085 -1.2823
14554TIP3   OH265076   0.128   6.178  17.391  0.3498  0.0182 -0.3151
14554TIP3    H165077   0.089   6.151  17.308 -0.9663 -0.7226  0.5079
14554TIP3    H265078   0.060   6.232  17.433 -1.0591 -3.3402  2.2769
14555TIP3   OH265079   5.884   5.670   5.408 -0.2140  0.0293  0.1509
14555TIP3    H165080   5.812   5.621   5.448 -0.8874  1.5347  0.8568
14555TIP3    H265081   5.913   5.614   5.336  0.6562 -2.5044  2.3151
14556TIP3   OH265082   2.540   3.815   2.421 -0.1287  0.2389 -0.1989
14556TIP3    H165083   2.451   3.820   2.456 -0.7980 -3.4466 -0.9967
14556TIP3    H265084   2.531   3.841   2.330 -0.7395 -1.5527 -0.6788
14557TIP3   OH265085   1.310   2.695  13.884  0.4364 -0.1806  0.1371
14557TIP3    H165086   1.380   2.745  13.842 -0.1476 -0.1687 -0.8563
14557TIP3    H265087   1.302   2.616  13.831  0.6789 -0.8646  1.1128
14558TIP3   OH265088   3.990   4.430   5.560 -0.4260  0.2794  0.7122
14558TIP3    H165089   4.055   4.473   5.504 -1.4601  0.0823 -0.6984
14558TIP3    H265090   3.952   4.501   5.612  1.2695  0.3192  1.9837
14559TIP3   OH265091   1.878   3.956   3.906 -0.2315 -0.6166  0.3046
14559TIP3    H165092   1.800   3.900   3.900 -0.2889 -0.5012 -0.0061
14559TIP3    H265093   1.843   4.044   3.921 -0.1880 -0.4424 -0.6009
14560TIP3   OH265094   5.949   0.183  15.952  0.1067  0.2701 -0.0965
14560TIP3    H165095   5.954   0.245  16.024  1.2721 -0.1838  0.2402
14560TIP3    H265096   6.000   0.107  15.982 -1.4309 -0.9438 -0.4179
14561TIP3   OH265097   4.120   0.415   4.875  0.1910 -0.4184  0.5605
14561TIP3    H165098   4.033   0.375   4.877 -0.7719  1.5230 -0.1197
14561TIP3    H265099   4.165   0.370   4.802 -1.1759  0.3186 -0.7828
14562TIP3   OH265100   5.273   1.599  13.121 -0.3807  0.6520  0.1230
14562TIP3    H165101   5.233   1.612  13.207  0.0649  1.5539  0.2107
14562TIP3    H265102   5.356   1.556  13.138  0.4576  2.2737  0.3222
14563TIP3   OH265103   3.247   5.745  17.248 -0.8791 -0.0790  0.1716
14563TIP3    H165104   3.274   5.653  17.245 -1.3024 -0.2062  0.1186
14563TIP3    H265105   3.297   5.782  17.321 -1.1500 -0.5036  0.5823
14564TIP3   OH265106   2.363   6.457  12.213  0.1285 -0.1901 -0.3961
14564TIP3    H165107   2.361   6.516  12.288 -0.2159 -0.9431  0.1935
14564TIP3    H265108   2.397   6.511  12.141 -1.9919  1.2957 -0.3717
14565TIP3   OH265109   5.273   0.374  17.288  0.6039 -0.5160 -0.2324
14565TIP3    H165110   5.301   0.367  17.379 -1.8236  0.6555  0.6728
14565TIP3    H265111   5.304   0.293  17.248  1.2739 -1.3038  1.7357
14566TIP3   OH265112   2.201   1.625  17.159  0.2676 -0.6888  0.5879
14566TIP3    H165113   2.292   1.646  17.178  0.4961  2.5677 -2.9229
14566TIP3    H265114   2.151   1.685  17.215  0.3860 -0.8089  0.8218
14567TIP3   OH265115   0.040   0.886  16.659  0.7492 -0.5848 -0.7443
14567TIP3    H165116   0.105   0.934  16.710 -0.8838 -0.1217  1.0319
14567TIP3    H265117   0.028   0.804  16.707  1.5208 -1.6416 -2.2477
14568TIP3   OH265118   3.575   5.509   0.547 -0.6698  0.8320 -0.2101
14568TIP3    H165119   3.628   5.537   0.472  0.6496 -2.0146 -0.4663
14568TIP3    H265120   3.639   5.476   0.610 -2.0060 -0.8105  0.3530
14569TIP3   OH265121   4.427   0.854   5.574  0.1548 -0.2721 -0.1996
14569TIP3    H165122   4.379   0.900   5.644 -1.3159 -1.5475 -0.3265
14569TIP3    H265123   4.476   0.786   5.620  1.9297  0.9986 -0.0752
14570TIP3   OH265124   3.724   6.541  15.546 -0.3024  0.0044 -0.0478
14570TIP3    H165125   3.810   6.524  15.507  0.2600  0.7029  0.8312
14570TIP3    H265126   3.727   6.634  15.570 -1.5035  0.1626 -0.4704
14571TIP3   OH265127   1.584   5.846  14.054 -0.1452 -0.3786  0.5998
14571TIP3    H165128   1.677   5.822  14.057 -0.1125 -0.1530  1.8278
14571TIP3    H265129   1.545   5.798  14.127 -1.2272 -1.3597 -0.5810
14572TIP3   OH265130   0.378   5.979  16.113 -0.3225  0.5694 -0.7599
14572TIP3    H165131   0.456   6.034  16.111 -0.2677  0.4823 -2.7520
14572TIP3    H265132   0.408   5.894  16.080 -0.5205 -0.5767  1.7363
14573TIP3   OH265133   2.676   5.229   3.687 -0.5410 -0.3829 -0.7218
14573TIP3    H165134   2.715   5.305   3.645  1.5905 -0.9910 -0.0145
14573TIP3    H265135   2.615   5.265   3.751  1.6612  0.9062  0.8207
14574TIP3   OH265136   0.704   5.952  12.588 -0.2267  0.4212  0.2947
14574TIP3    H165137   0.644   5.998  12.528 -1.1149  0.2088  0.9933
14574TIP3    H265138   0.787   5.948  12.541 -1.0790 -0.3390 -1.2319
14575TIP3   OH265139   1.956   4.508   3.910  1.0668 -0.2274 -0.0534
14575TIP3    H165140   1.963   4.505   4.006  2.7203 -0.5221 -0.1539
14575TIP3    H265141   1.992   4.594   3.887 -0.1456  0.2102 -0.3731
14576TIP3   OH265142   6.133   1.637   1.389  0.2844 -0.1186  0.2602
14576TIP3    H165143   6.136   1.576   1.463  0.5183 -0.3453  0.0651
14576TIP3    H265144   6.042   1.668   1.388  0.4442  0.3978  1.0499
14577TIP3   OH265145   6.047   6.606   0.300 -0.3055 -0.4481  0.6969
14577TIP3    H165146   6.066   6.616   0.207 -1.3833  1.3177  0.6233
14577TIP3    H265147   5.954   6.626   0.308  0.1255  1.2249  2.3738
14578TIP3   OH265148   1.627   6.321  15.096  0.3658  0.4336 -0.0287
14578TIP3    H165149   1.631   6.384  15.024  0.2943  0.6112  0.1218
14578TIP3    H265150   1.537   6.287  15.093  0.3183  0.5495  0.0674
14579TIP3   OH265151   2.775   5.788  12.993 -0.4381 -0.4973 -0.0644
14579TIP3    H165152   2.853   5.827  12.954 -0.9200  0.0519 -0.4807
14579TIP3    H265153   2.802   5.698  13.015  0.6123 -0.0097  0.7273
14580TIP3   OH265154   6.605   1.643  14.810  0.2965 -0.7395 -0.1911
14580TIP3    H165155   6.603   1.566  14.867  0.8194 -0.2429  0.5047
14580TIP3    H265156   6.647   1.711  14.862  0.9888 -0.3328 -1.2516
14581TIP3   OH265157   5.676   2.447   5.002  0.3894 -0.2929 -0.8074
14581TIP3    H165158   5.695   2.417   5.091 -1.1693  0.1097 -0.3119
14581TIP3    H265159   5.722   2.385   4.945 -1.1265 -2.4713  0.2161
14582TIP3   OH265160   6.275   0.016   3.936  0.0415  0.0373  0.2613
14582TIP3    H165161   6.194   0.055   3.970 -1.3090 -1.2382 -1.2656
14582TIP3    H265162   6.286  -0.065   3.986  0.5486  0.3505  0.6620
14583TIP3   OH265163   5.311   6.098   0.557  0.1860 -0.1622  0.1192
14583TIP3    H165164   5.224   6.134   0.571 -0.1267 -1.1932  0.9439
14583TIP3    H265165   5.325   6.039   0.631  0.4347 -2.1389 -1.3967
14584TIP3   OH265166   5.750   3.260  13.367 -0.2291 -0.1781  0.4669
14584TIP3    H165167   5.712   3.208  13.438 -0.7598 -2.6571 -1.4852
14584TIP3    H265168   5.798   3.197  13.313  1.8526  1.9288 -0.3524
14585TIP3   OH265169   4.605   5.447   3.742 -0.1391 -0.0857 -0.3379
14585TIP3    H165170   4.571   5.511   3.804 -0.1375  0.1094 -0.5378
14585TIP3    H265171   4.692   5.480   3.719  0.1872 -0.5708  0.1549
14586TIP3   OH265172   5.959   2.074   1.086 -0.1576  0.1303  0.0277
14586TIP3    H165173   5.892   2.015   1.050  0.1223  1.0096 -2.0377
14586TIP3    H265174   6.008   2.019   1.147 -1.5349 -1.0510  0.1410
14587TIP3   OH265175   0.345   4.341   6.120 -0.1404  0.0860 -0.0376
14587TIP3    H165176   0.334   4.291   6.201 -2.1738  1.2493  0.4739
14587TIP3    H265177   0.262   4.330   6.074  0.0589  1.4763 -0.7779
14588TIP3   OH265178   1.115   4.257  12.840 -0.3408 -0.1331 -0.3586
14588TIP3    H165179   1.070   4.274  12.923 -1.9719 -1.4035 -0.9028
14588TIP3    H265180   1.071   4.179  12.806  0.2566  0.3750 -2.4234
14589TIP3   OH265181   5.536   3.480  14.368  0.0446 -0.2284  0.2675
14589TIP3    H165182   5.527   3.488  14.463  4.2617  0.7112  0.7791
14589TIP3    H265183   5.513   3.567  14.335 -1.7299 -0.6417  0.3070
14590TIP3   OH265184   3.652   2.470  11.659  0.4683 -0.5681  0.4890
14590TIP3    H165185   3.584   2.531  11.687 -0.4395 -0.4543 -1.7386
14590TIP3    H265186   3.615   2.383  11.673 -0.2316 -0.5057 -0.8055
14591TIP3   OH265187   3.848   3.657   5.577 -0.0907 -0.0038  0.1334
14591TIP3    H165188   3.858   3.751   5.558  2.1724 -0.3416 -0.7191
14591TIP3    H265189   3.782   3.626   5.515  2.0139  0.3267 -2.4638
14592TIP3   OH265190   5.022   2.946   0.199 -0.0253  0.5353 -0.3028
14592TIP3    H165191   4.981   2.873   0.153 -0.2687  1.2423 -1.2282
14592TIP3    H265192   5.115   2.925   0.200 -0.3306 -1.2131  2.0354
14593TIP3   OH265193   1.903   2.224   2.394 -0.4354  0.0374  0.3869
14593TIP3    H165194   1.831   2.170   2.426 -1.7270  0.7147 -1.1848
14593TIP3    H265195   1.977   2.163   2.385 -0.2538 -0.3446  3.5708
14594TIP3   OH265196   2.785   0.365  11.879 -0.3098 -0.8849 -0.4745
14594TIP3    H165197   2.722   0.434  11.902  1.5837 -0.0496  2.9056
14594TIP3    H265198   2.854   0.410  11.830  1.1564 -0.1159  2.1274
14595TIP3   OH265199   5.654   0.192   6.117 -0.5330 -0.6564  0.4451
14595TIP3    H165200   5.706   0.133   6.063  0.7293 -0.6755  1.6327
14595TIP3    H265201   5.695   0.278   6.108 -0.7524 -0.5083  0.7915
14596TIP3   OH265202   0.463   5.316   0.483  0.2598  0.3215 -0.2442
14596TIP3    H165203   0.409   5.338   0.407 -0.1613  0.7009  0.1593
14596TIP3    H265204   0.524   5.250   0.451 -0.1673  0.1987 -0.8163
14597TIP3   OH265205   3.762   0.768   4.387  0.3280 -0.6613  0.1041
14597TIP3    H165206   3.813   0.712   4.328  3.8720  0.7931  1.5278
14597TIP3    H265207   3.781   0.857   4.358 -0.9449 -0.0155  1.1436
14598TIP3   OH265208   5.581   1.692   1.985  0.2448 -0.4836 -1.0606
14598TIP3    H165209   5.508   1.631   1.997  0.6047 -0.8769 -0.8797
14598TIP3    H265210   5.659   1.642   2.007  0.6959 -0.4298 -2.4410
14599TIP3   OH265211   2.099   0.359  16.753 -0.1372  0.4415  0.5557
14599TIP3    H165212   2.086   0.265  16.744  1.7471  0.1919  0.0609
14599TIP3    H265213   2.137   0.370  16.840 -1.1591  0.8742  0.9706
14600TIP3   OH265214   2.058   4.820  17.088  0.2821  0.5087  0.2876
14600TIP3    H165215   2.024   4.904  17.057  0.8967 -0.3613 -3.1408
14600TIP3    H265216   1.996   4.755  17.055  0.8554 -0.5399  1.2105
14601TIP3   OH265217   3.354   4.124   4.642 -0.2963  0.7466  0.0270
14601TIP3    H165218   3.334   4.071   4.565 -1.3098 -0.3385  0.9902
14601TIP3    H265219   3.387   4.206   4.607 -0.3346  0.1274 -1.5506
14602TIP3   OH265220   6.020   3.851   2.874  0.2830 -0.1835 -0.4259
14602TIP3    H165221   6.041   3.879   2.963 -0.7319 -1.2682  0.1842
14602TIP3    H265222   5.951   3.911   2.845 -0.6342 -0.9172  0.2031
14603TIP3   OH265223   4.626   4.770   0.650  0.2869 -0.3201  0.1697
14603TIP3    H165224   4.676   4.825   0.589  1.1233 -2.2916 -1.0007
14603TIP3    H265225   4.674   4.775   0.732  0.4951  0.4674  0.0118
14604TIP3   OH265226   0.572   3.267  17.487 -0.2579 -0.6359  0.4727
14604TIP3    H165227   0.490   3.309  17.465 -0.0389  0.1088  1.0260
14604TIP3    H265228   0.639   3.333  17.469 -0.0036 -0.2928  2.4211
14605TIP3   OH265229   1.781   5.288   5.406  0.2302  0.1055 -0.0344
14605TIP3    H165230   1.715   5.272   5.339 -0.2448  0.7819  0.2543
14605TIP3    H265231   1.854   5.230   5.384  0.0704  0.3048 -1.1193
14606TIP3   OH265232   2.349   3.987  14.796 -0.4561 -0.2688 -0.0326
14606TIP3    H165233   2.371   4.070  14.754  0.9313 -0.3840  0.4206
14606TIP3    H265234   2.330   3.928  14.723  1.2556 -0.2797 -0.5136
14607TIP3   OH265235   5.375   2.243  13.487 -0.2568 -0.2243  0.6453
14607TIP3    H165236   5.295   2.280  13.526 -0.5363 -0.3156  0.1711
14607TIP3    H265237   5.359   2.247  13.393  0.1857 -0.5054  0.5575
14608TIP3   OH265238   6.319   1.874  14.704  0.4236  0.2995 -0.4275
14608TIP3    H165239   6.292   1.799  14.758  1.1329  0.1681 -0.2514
14608TIP3    H265240   6.238   1.923  14.691 -0.3542 -1.2164 -1.6976
14609TIP3   OH265241   0.733   0.688   1.217 -0.1218 -0.1576  0.5508
14609TIP3    H165242   0.701   0.714   1.303  2.5882  0.3151  1.5143
14609TIP3    H265243   0.733   0.592   1.220 -0.6945 -0.1538  0.8083
14610TIP3   OH265244   4.480   2.119  16.657 -0.0443 -0.1894 -0.0066
14610TIP3    H165245   4.489   2.117  16.562  0.2847 -1.5733  0.0281
14610TIP3    H265246   4.460   2.029  16.681  0.0707  0.1030  1.2584
14611TIP3   OH265247   3.270   0.372  12.051 -0.1916 -0.5111 -0.5359
14611TIP3    H165248   3.207   0.437  12.023 -0.4215 -0.5273 -0.0647
14611TIP3    H265249   3.306   0.336  11.969 -1.5570 -1.2536 -0.8480
14612TIP3   OH265250   1.321   5.708  12.282 -0.5007 -0.2111 -0.2444
14612TIP3    H165251   1.245   5.654  12.260 -0.4690 -0.5648  0.4724
14612TIP3    H265252   1.298   5.748  12.366  0.3742 -0.8490  0.3143
14613TIP3   OH265253   4.250   4.062   0.745 -0.1318 -0.2991 -0.2204
14613TIP3    H165254   4.184   4.125   0.718 -1.6289 -1.4918  0.4634
14613TIP3    H265255   4.252   4.069   0.841  1.4199  0.3466 -0.2711
14614TIP3   OH265256   4.366   3.152   5.642  0.7678 -0.2713  0.7058
14614TIP3    H165257   4.373   3.073   5.588  0.5246 -0.5112  1.0174
14614TIP3    H265258   4.290   3.198   5.607 -0.7144 -1.4921  2.1788
14615TIP3   OH265259   1.361   5.256  15.764  0.2533 -0.4891  0.1900
14615TIP3    H165260   1.434   5.312  15.738 -0.2659  0.9317  1.6213
14615TIP3    H265261   1.296   5.268  15.695 -0.6045  2.2398  1.3163
14616TIP3   OH265262   0.031   1.871  13.992  0.1601 -0.3677 -0.7063
14616TIP3    H165263  -0.001   1.842  13.907 -2.1787 -1.7983  0.5457
14616TIP3    H265264   0.081   1.796  14.025 -0.3230 -0.4668 -0.1788
14617TIP3   OH265265   4.069   2.425   3.961 -1.0042  0.0137  0.7353
14617TIP3    H165266   4.054   2.494   3.896 -1.3628 -0.4388  0.3292
14617TIP3    H265267   4.152   2.386   3.936 -0.7249  0.3966  1.0575
14618TIP3   OH265268   1.787   6.571  16.081 -0.2894 -0.7468  0.0310
14618TIP3    H165269   1.865   6.609  16.041  0.1307 -0.3682  1.1601
14618TIP3    H265270   1.780   6.484  16.043 -0.3075 -0.1530 -1.3593
14619TIP3   OH265271   4.202   4.859  15.560  0.3511  0.3920  1.0821
14619TIP3    H165272   4.208   4.785  15.621  0.9232  1.7338  2.7122
14619TIP3    H265273   4.274   4.844  15.498 -0.1156 -0.8915  0.8203
14620TIP3   OH265274   6.205   4.298  17.578  0.8002 -0.2965  0.0145
14620TIP3    H165275   6.176   4.334  17.495 -1.1972  0.8448  1.1298
14620TIP3    H265276   6.210   4.204  17.563 -1.8968 -0.3856 -0.7788
14621TIP3   OH265277   2.767   6.221  12.870  0.0204 -0.4695 -0.0482
14621TIP3    H165278   2.684   6.204  12.914  0.0964 -0.6035  0.0448
14621TIP3    H265279   2.749   6.296  12.813  0.0961  0.1343  0.7075
14622TIP3   OH265280   3.746   4.488   1.860  0.6635  0.3251  0.3853
14622TIP3    H165281   3.660   4.531   1.860  0.9551  0.9242  1.2852
14622TIP3    H265282   3.739   4.423   1.790 -1.0251 -0.6106  1.3350
14623TIP3   OH265283   6.598   2.193   0.507  0.5260  0.1148 -0.5892
14623TIP3    H165284   6.662   2.187   0.578  0.8717 -0.8166 -0.9756
14623TIP3    H265285   6.650   2.190   0.427  0.1387  1.1615 -0.9051
14624TIP3   OH265286   3.285   3.373   1.779 -0.0151  0.5793  0.1503
14624TIP3    H165287   3.286   3.466   1.803 -1.5559  1.9119 -3.9126
14624TIP3    H265288   3.204   3.339   1.817 -0.4482  1.4847  0.0714
14625TIP3   OH265289   1.160   3.532  12.110  0.5189  0.2290 -0.4429
14625TIP3    H165290   1.184   3.560  12.022  0.5086 -0.5937 -0.7107
14625TIP3    H265291   1.125   3.444  12.099  0.2961  0.2094  0.3539
14626TIP3   OH265292   0.452   4.951  11.227  0.6905  0.3027 -0.0724
14626TIP3    H165293   0.519   4.945  11.159 -0.0393  0.5237 -0.8260
14626TIP3    H265294   0.377   4.992  11.183 -0.9113 -2.3557 -0.0006
14627TIP3   OH265295   2.408   1.537  13.308 -0.2295 -0.2916  0.0366
14627TIP3    H165296   2.387   1.520  13.399  1.0885 -1.3647  0.1808
14627TIP3    H265297   2.457   1.619  13.309 -2.3497  1.0572 -0.0552
14628TIP3   OH265298   5.596   5.648  12.419  0.1706  0.6114  0.0681
14628TIP3    H165299   5.612   5.726  12.472 -2.4307  1.6548 -0.5469
14628TIP3    H265300   5.584   5.681  12.330 -1.7388 -0.3509 -0.0816
14629TIP3   OH265301   6.547   2.216   5.052 -0.4145 -0.6011  0.5312
14629TIP3    H165302   6.523   2.247   4.965  0.3872  0.7557  0.7643
14629TIP3    H265303   6.479   2.250   5.110 -1.0856 -1.7112  0.4373
14630TIP3   OH265304   0.050   4.040   1.801 -0.7156 -0.1971  0.3328
14630TIP3    H165305  -0.039   4.011   1.779 -0.3922  0.4797 -2.1157
14630TIP3    H265306   0.081   4.084   1.722  1.4066  0.5666  1.5260
14631TIP3   OH265307   2.230   0.955   3.417  0.4109  0.1950 -0.6220
14631TIP3    H165308   2.313   0.907   3.422 -0.1502 -0.7132  0.3224
14631TIP3    H265309   2.255   1.047   3.422  1.3056 -0.0920  0.5638
14632TIP3   OH265310   0.935   1.528   1.915  0.1378  1.1450 -0.1735
14632TIP3    H165311   1.017   1.552   1.958 -0.0761  1.2832  0.1597
14632TIP3    H265312   0.958   1.452   1.861  0.0408 -0.1631  1.5421
14633TIP3   OH265313   0.273   6.702   3.458  0.8530  0.3237  0.5596
14633TIP3    H165314   0.243   6.662   3.377  2.7864  0.1802 -0.1344
14633TIP3    H265315   0.246   6.641   3.527 -1.2230  0.6726  0.1373
14634TIP3   OH265316   4.666   5.395   4.062 -0.4939  0.0768  0.0156
14634TIP3    H165317   4.673   5.400   3.966  0.9607  1.3811  0.1476
14634TIP3    H265318   4.613   5.471   4.086 -1.1157 -0.4214  0.2384
14635TIP3   OH265319   1.020   3.996  15.955  0.3961 -0.0893  0.3413
14635TIP3    H165320   1.007   3.942  15.877  0.8144 -0.8754  0.8074
14635TIP3    H265321   0.967   3.954  16.023  0.9099 -0.0470  0.7714
14636TIP3   OH265322   2.116   4.222   1.684  0.1032  0.0786 -0.4148
14636TIP3    H165323   2.095   4.143   1.634  0.1125  0.2116 -0.6315
14636TIP3    H265324   2.152   4.189   1.767 -0.1010 -0.1440 -0.4118
14637TIP3   OH265325   3.868   3.987  16.555  0.0925  0.1413  0.1826
14637TIP3    H165326   3.870   3.990  16.650 -2.1636  2.1188  0.2485
14637TIP3    H265327   3.814   3.910  16.535 -1.8295  1.3324  0.6207
14638TIP3   OH265328   5.946   2.371   1.168  0.0688  0.5235 -0.2235
14638TIP3    H165329   5.947   2.430   1.244 -1.1341  0.0139  0.2164
14638TIP3    H265330   6.036   2.370   1.137  0.1418  2.6177 -0.2612
14639TIP3   OH265331   2.417   1.398   6.540 -0.0408  0.2491 -0.3651
14639TIP3    H165332   2.431   1.479   6.589  0.6058  1.3152 -2.2487
14639TIP3    H265333   2.490   1.341   6.568  0.6090  1.0197 -0.4659
14640TIP3   OH265334   6.021   3.097   6.108 -0.3844 -0.1883  0.1546
14640TIP3    H165335   6.056   3.045   6.181  1.7108 -1.3624 -1.5605
14640TIP3    H265336   5.994   3.179   6.149 -0.6890 -1.3439  2.4574
14641TIP3   OH265337   2.527   4.877   2.485  0.2523 -0.0510 -0.1634
14641TIP3    H165338   2.509   4.795   2.531  1.2554 -0.5075 -0.5578
14641TIP3    H265339   2.581   4.927   2.546 -0.1874  0.2368 -0.0065
14642TIP3   OH265340   5.478   0.610  15.305 -0.0084  0.0197  0.2650
14642TIP3    H165341   5.531   0.535  15.278 -1.4425 -1.1849  0.6561
14642TIP3    H265342   5.437   0.582  15.387  0.0293  1.5328  0.8198
14643TIP3   OH265343   5.526   2.704  13.156 -0.4443  0.5031 -0.2584
14643TIP3    H165344   5.522   2.795  13.128  0.2588  1.2725  1.9282
14643TIP3    H265345   5.434   2.678  13.165 -0.6637  0.6120 -1.9054
14644TIP3   OH265346   6.424   2.081  16.993  0.1780 -0.2873 -0.1131
14644TIP3    H165347   6.498   2.133  16.964 -1.3353  1.9865 -0.1872
14644TIP3    H265348   6.377   2.059  16.912 -0.7889  0.8810  0.0930
14645TIP3   OH265349   4.965   6.566   4.791  0.5056 -0.0168 -0.0573
14645TIP3    H165350   5.024   6.633   4.826 -1.1440  0.9701  0.9733
14645TIP3    H265351   4.877   6.600   4.809 -0.3915 -1.4616 -1.4935
14646TIP3   OH265352   0.430   0.241  17.402  0.1928 -0.3199  0.5893
14646TIP3    H165353   0.444   0.189  17.481 -0.5995 -1.8096 -0.2106
14646TIP3    H265354   0.413   0.177  17.334  0.0576  0.9720 -0.6391
14647TIP3   OH265355   6.495   5.973   6.429 -0.1701 -0.0313  0.7008
14647TIP3    H165356   6.430   6.040   6.410 -1.7643 -1.2584  1.6285
14647TIP3    H265357   6.573   6.023   6.455 -1.1303  1.4674  0.8440
14648TIP3   OH265358   4.792   3.756  12.897 -0.8198  0.1968  0.1859
14648TIP3    H165359   4.810   3.684  12.959 -0.5234 -1.2945 -1.5497
14648TIP3    H265360   4.878   3.795  12.881 -0.5712 -0.7132 -0.7798
14649TIP3   OH265361   0.135   6.090  14.481 -0.1994 -0.4511 -0.2199
14649TIP3    H165362   0.110   6.107  14.572  1.8345 -1.5588  0.5980
14649TIP3    H265363   0.197   6.159  14.459  0.1216 -0.7902 -0.4001
14650TIP3   OH265364   2.409   5.804  11.414 -0.0731 -0.0790 -0.0303
14650TIP3    H165365   2.378   5.886  11.376  0.3665  0.5001  0.8189
14650TIP3    H265366   2.495   5.825  11.449  0.0496 -0.9087  0.1808
14651TIP3   OH265367   0.770   3.007   3.638 -0.1913  0.2415  0.5358
14651TIP3    H165368   0.818   3.087   3.660  0.4243 -0.2534  1.0285
14651TIP3    H265369   0.723   2.984   3.718  1.1230 -0.9171  1.0142
14652TIP3   OH265370   1.805   4.811  12.778 -0.2875 -0.0937 -0.2441
14652TIP3    H165371   1.759   4.730  12.757 -1.0648 -0.1904  1.6237
14652TIP3    H265372   1.871   4.786  12.842  0.0146  0.6294 -0.2601
14653TIP3   OH265373   3.271   1.290  16.440  0.5330 -0.0981 -0.4219
14653TIP3    H165374   3.333   1.362  16.452 -0.8872  1.3055 -1.1702
14653TIP3    H265375   3.285   1.234  16.517  2.8431  0.0328 -0.6791
14654TIP3   OH265376   4.954   0.311   0.763  0.4276  0.3462 -0.2239
14654TIP3    H165377   4.923   0.358   0.841  0.7227  1.2066 -0.6124
14654TIP3    H265378   5.024   0.255   0.796  1.5573  1.7749 -0.0707
14655TIP3   OH265379   2.028   0.018  14.279 -0.4712  0.8348  0.3893
14655TIP3    H165380   2.085  -0.023  14.344 -0.4817  0.4856  0.1822
14655TIP3    H265381   2.075   0.097  14.252  2.0898 -1.5084 -2.9401
14656TIP3   OH265382   2.065   4.448  15.431 -0.2551  0.2248  0.3216
14656TIP3    H165383   2.056   4.456  15.336 -0.8781  0.4799  0.3947
14656TIP3    H265384   2.139   4.505  15.454 -2.0617  2.7351  0.3491
14657TIP3   OH265385   2.518   4.953   3.035  0.0949  0.3167  0.2330
14657TIP3    H165386   2.614   4.947   3.039  0.1095  1.0538  2.5802
14657TIP3    H265387   2.488   4.906   3.112 -1.2993  2.0499  0.8060
14658TIP3   OH265388   5.301   1.705  17.057 -0.6427  0.3318 -0.0033
14658TIP3    H165389   5.328   1.790  17.092 -0.8125 -0.3212  1.7831
14658TIP3    H265390   5.376   1.675  17.005 -0.8264  1.8388 -1.2301
14659TIP3   OH265391   2.662   1.183  14.836 -0.0018 -0.1987  0.0549
14659TIP3    H165392   2.637   1.273  14.815 -1.5485 -0.6404 -0.0961
14659TIP3    H265393   2.589   1.149  14.887  2.3863 -0.0494  4.0040
14660TIP3   OH265394   0.363   1.910  15.856 -0.0909 -0.8781  0.1532
14660TIP3    H165395   0.412   1.982  15.895 -1.6569  0.2406  0.1446
14660TIP3    H265396   0.425   1.870  15.794  0.8563  0.3597  0.2556
14661TIP3   OH265397   2.884   1.020  14.783 -1.0797 -0.3287 -0.4168
14661TIP3    H165398   2.960   1.075  14.798 -1.1368 -0.2078 -0.5728
14661TIP3    H265399   2.810   1.072  14.814 -1.1184 -0.3735 -0.4325
14662TIP3   OH265400   3.763   5.431   5.881  0.3867 -0.0032 -0.3704
14662TIP3    H165401   3.725   5.498   5.937 -1.0043 -0.7829 -0.3534
14662TIP3    H265402   3.857   5.436   5.899  0.3275  1.8738 -0.3211
14663TIP3   OH265403   6.377   6.582   1.270 -0.1465 -0.1103  0.2729
14663TIP3    H165404   6.392   6.578   1.176 -0.1326  0.5247  0.2452
14663TIP3    H265405   6.351   6.493   1.294  3.1585 -1.2500  0.2186
14664TIP3   OH265406   5.386   3.749   4.669 -0.0671  0.0039  0.5176
14664TIP3    H165407   5.379   3.654   4.672 -0.9857  0.0744  0.9562
14664TIP3    H265408   5.468   3.768   4.715 -1.0675 -0.4652  2.6366
14665TIP3   OH265409   1.367   2.912  14.641 -0.0605 -0.5728 -0.3376
14665TIP3    H165410   1.365   2.854  14.717  1.9616 -0.0959  0.1201
14665TIP3    H265411   1.304   2.874  14.580 -1.4614 -1.1658  1.4050
14666TIP3   OH265412   3.758   2.971  13.442 -0.2895  0.6762 -0.0818
14666TIP3    H165413   3.831   2.911  13.423  0.1351  1.3896 -0.7790
14666TIP3    H265414   3.792   3.057  13.419 -0.7932  1.2321  1.1622
14667TIP3   OH265415   6.677   1.792  13.726  0.2750  0.3937  0.5792
14667TIP3    H165416   6.618   1.857  13.688 -0.5097 -0.5320  0.1730
14667TIP3    H265417   6.700   1.735  13.653 -0.5773 -0.9148  1.2950
14668TIP3   OH265418   4.665   3.706  15.251 -0.3256 -0.1193  0.1102
14668TIP3    H165419   4.755   3.706  15.220  0.5847  1.6441  2.4705
14668TIP3    H265420   4.638   3.614  15.244  1.4075 -0.5801 -1.2219
14669TIP3   OH265421   1.051   6.555   4.165 -0.1860 -1.1155  0.1348
14669TIP3    H165422   0.970   6.518   4.201  0.5543 -2.4462  0.5149
14669TIP3    H265423   1.080   6.491   4.100 -0.0912 -0.0333 -0.9215
14670TIP3   OH265424   2.483   2.418   2.996 -0.1424  0.3406 -0.1787
14670TIP3    H165425   2.562   2.369   3.019  0.1139  0.7285 -0.2290
14670TIP3    H265426   2.429   2.355   2.948  0.1178  0.0636 -0.1103
14671TIP3   OH265427   5.494   5.350   2.187  0.1782  0.6134  0.3861
14671TIP3    H165428   5.467   5.432   2.229 -3.1431 -0.0885 -0.0818
14671TIP3    H265429   5.489   5.369   2.093  0.9581  0.3053  0.2794
14672TIP3   OH265430   0.169   3.210  12.983 -0.4123  0.5256 -0.0746
14672TIP3    H165431   0.124   3.126  12.981  3.2044 -1.6634  1.0588
14672TIP3    H265432   0.213   3.212  13.069 -1.7789  4.4903  0.7555
14673TIP3   OH265433   1.978   6.233   3.977  0.2493  0.8089  0.3173
14673TIP3    H165434   2.023   6.153   3.948 -1.4752 -0.7150  1.5660
14673TIP3    H265435   1.918   6.254   3.906  0.2491  0.6173  0.2596
14674TIP3   OH265436   5.620   3.144  13.569 -0.6551 -0.2659 -0.2091
14674TIP3    H165437   5.684   3.112  13.633 -1.3700 -2.2487 -0.4199
14674TIP3    H265438   5.543   3.090  13.583 -1.3858  0.3391 -1.7056
14675TIP3   OH265439   5.644   1.159  15.739 -0.7161  0.9421 -0.0374
14675TIP3    H165440   5.605   1.112  15.813  0.0839  0.2718 -0.0164
14675TIP3    H265441   5.664   1.090  15.676  1.0990  1.1389  0.2698
14676TIP3   OH265442   4.634   5.418  15.451  0.1884  0.5263  0.0258
14676TIP3    H165443   4.612   5.391  15.540  0.2704  0.0040 -0.1047
14676TIP3    H265444   4.698   5.352  15.422 -0.1632  0.4405 -0.5710
14677TIP3   OH265445   1.976   0.398   1.050  0.0339 -0.5755  0.5181
14677TIP3    H165446   2.013   0.346   1.122  1.6991  0.1806  0.2698
14677TIP3    H265447   1.979   0.488   1.082  1.2149 -0.1726 -0.6144
14678TIP3   OH265448   5.665   6.427  16.315  0.1925  0.2512  0.1552
14678TIP3    H165449   5.711   6.397  16.393  0.2808  0.0980  0.0447
14678TIP3    H265450   5.650   6.520  16.330  2.2596  0.7624 -0.6533
14679TIP3   OH265451   2.612   4.340  12.664 -0.3326 -0.7274 -0.0077
14679TIP3    H165452   2.681   4.277  12.683 -1.4693 -1.9509  0.1881
14679TIP3    H265453   2.531   4.297  12.690 -1.1318  0.9587  0.4697
14680TIP3   OH265454   1.434   4.182   0.847  0.1694 -0.3428 -0.1947
14680TIP3    H165455   1.365   4.227   0.895 -2.4858 -3.2433 -1.0306
14680TIP3    H265456   1.487   4.140   0.914 -1.0604 -1.0259  0.3756
14681TIP3   OH265457   6.213   1.458  15.106 -0.2531 -0.5312 -0.1188
14681TIP3    H165458   6.211   1.435  15.199 -2.0715 -1.2921 -0.3203
14681TIP3    H265459   6.198   1.553  15.104  1.1524 -0.2737  0.4036
14682TIP3   OH265460   3.463   0.763   4.431  0.5689  0.3937  0.5233
14682TIP3    H165461   3.438   0.772   4.523  0.7433 -1.9845  0.8771
14682TIP3    H265462   3.548   0.719   4.434  0.0075 -0.8648 -0.7470
14683TIP3   OH265463   0.242   2.602  15.867 -0.0926  0.3669  0.1551
14683TIP3    H165464   0.165   2.657  15.882 -0.4631  0.2148 -1.1298
14683TIP3    H265465   0.310   2.663  15.840  0.4262  0.5710  1.7829
14684TIP3   OH265466   0.555   6.322  13.951  0.1973 -0.5289 -0.0629
14684TIP3    H165467   0.626   6.265  13.923  0.0647 -0.2016 -1.1260
14684TIP3    H265468   0.480   6.296  13.897 -0.3069 -0.4191  0.5693
14685TIP3   OH265469   2.724   0.456   3.670 -0.3854  0.1977 -0.0605
14685TIP3    H165470   2.814   0.485   3.656 -0.5315  0.9978  0.5811
14685TIP3    H265471   2.687   0.452   3.582  0.2038  0.1013 -0.3125
14686TIP3   OH265472   0.086   4.900   3.921  0.1137  0.5870 -0.2024
14686TIP3    H165473  -0.005   4.928   3.929  0.4393  1.2041  1.7853
14686TIP3    H265474   0.119   4.895   4.011  2.5617  2.1639 -0.8977
14687TIP3   OH265475   0.664   2.703   0.289  0.3992 -0.2332  0.0757
14687TIP3    H165476   0.752   2.694   0.326  0.0204 -1.0092  0.8216
14687TIP3    H265477   0.642   2.795   0.303  1.6658  0.3479 -1.4804
14688TIP3   OH265478   0.007   5.218   2.202  0.0471 -0.7628 -1.1235
14688TIP3    H165479   0.005   5.313   2.217  0.4997 -0.7651 -1.0336
14688TIP3    H265480  -0.084   5.191   2.210  0.0723 -0.5310  0.1606
14689TIP3   OH265481   4.522   2.054   1.099  0.1580  0.0395 -0.2392
14689TIP3    H165482   4.438   2.089   1.069 -0.2712 -0.7954 -0.0248
14689TIP3    H265483   4.546   1.989   1.034  1.7882  1.8260 -1.5582
14690TIP3   OH265484   3.201   0.736  17.004  0.2439 -0.1084 -0.3280
14690TIP3    H165485   3.221   0.643  16.993 -1.2557 -0.2873 -2.0375
14690TIP3    H265486   3.285   0.780  16.993  0.7764 -1.1928 -0.7754
14691TIP3   OH265487   5.871   6.310   0.632  0.4357  0.2899  0.3859
14691TIP3    H165488   5.860   6.301   0.537 -0.3829  0.0224  0.4984
14691TIP3    H265489   5.894   6.402   0.645 -1.7210  0.9058  0.1122
14692TIP3   OH265490   4.374   4.983   4.752 -0.0316 -0.4592 -0.1595
14692TIP3    H165491   4.322   5.037   4.692 -0.2611  0.4146  0.7947
14692TIP3    H265492   4.464   5.012   4.739 -0.1055 -0.1303  0.0518
14693TIP3   OH265493   2.792   1.087  14.462 -0.3677  0.0250  0.5210
14693TIP3    H165494   2.840   1.156  14.509  0.2033 -0.4708  0.6769
14693TIP3    H265495   2.861   1.037  14.418 -0.7040 -0.9700  1.1046
14694TIP3   OH265496   0.397   3.462  13.865  0.2218  0.5463  0.1045
14694TIP3    H165497   0.479   3.486  13.823  0.1915 -0.3456 -0.4835
14694TIP3    H265498   0.422   3.413  13.942  0.3036 -2.6887 -1.7990
14695TIP3   OH265499   5.229   2.338   0.286  0.4459 -0.1445 -0.5221
14695TIP3    H165500   5.227   2.326   0.381 -0.0994 -1.0228 -0.6345
14695TIP3    H265501   5.167   2.409   0.270  2.6760  2.0659  0.0217
14696TIP3   OH265502   5.198   6.316   5.332 -1.0078 -0.0871 -0.6626
14696TIP3    H165503   5.173   6.393   5.281 -0.9749  0.8874  0.7514
14696TIP3    H265504   5.277   6.283   5.288 -0.9329  0.7642 -1.1942
14697TIP3   OH265505   0.758   5.713  10.862 -0.2995 -0.5163  0.1271
14697TIP3    H165506   0.849   5.686  10.846 -0.2442 -0.5507  0.5057
14697TIP3    H265507   0.760   5.758  10.946 -0.8524 -1.6383  0.7600
14698TIP3   OH265508   4.999   2.285  17.158  0.5797 -0.3015  0.3362
14698TIP3    H165509   4.917   2.266  17.203  1.4963 -1.3960  1.6431
14698TIP3    H265510   4.977   2.287  17.065 -0.7343 -1.6992  0.5816
14699TIP3   OH265511   0.440   3.655   2.083  0.1829 -0.2117 -0.2142
14699TIP3    H165512   0.521   3.674   2.037  0.4036  1.3298  0.7109
14699TIP3    H265513   0.420   3.736   2.130 -0.3016 -1.4885  1.9423
14700TIP3   OH265514   5.288   3.727   5.884 -0.0159  0.1753  0.0098
14700TIP3    H165515   5.204   3.760   5.854  0.5696  0.9507 -0.8433
14700TIP3    H265516   5.352   3.790   5.852  0.8253  0.0962  1.4169
14701TIP3   OH265517   3.169   4.641  16.271 -0.0726  0.2928  0.0468
14701TIP3    H165518   3.170   4.603  16.183  0.1763  0.8843 -0.2086
14701TIP3    H265519   3.223   4.581  16.324 -0.8976 -0.5136 -0.0029
14702TIP3   OH265520   4.854   5.311  17.491  0.4392  0.3814  0.3632
14702TIP3    H165521   4.856   5.299  17.396 -0.4126 -0.4963  0.4376
14702TIP3    H265522   4.899   5.233  17.526  1.5340  1.1260  0.6698
14703TIP3   OH265523   1.520   5.321  11.891  0.0913  0.0681 -0.0115
14703TIP3    H165524   1.451   5.366  11.940 -0.6707  0.1544 -1.1225
14703TIP3    H265525   1.602   5.357  11.925 -0.4131  0.1567  1.1400
14704TIP3   OH265526   0.878   0.008   1.730  0.6258  0.4333  0.0206
14704TIP3    H165527   0.878  -0.087   1.739 -0.6820  0.3301 -0.9150
14704TIP3    H265528   0.932   0.025   1.652  1.3501  0.5174  0.5253
14705TIP3   OH265529   5.788   4.156   4.996 -0.5412 -0.3557 -0.0067
14705TIP3    H165530   5.862   4.137   5.054  0.5272  1.9684 -0.5277
14705TIP3    H265531   5.810   4.114   4.913  0.1126  0.1694 -0.1006
14706TIP3   OH265532   3.623   5.481   5.422 -0.2583  0.4868 -0.5779
14706TIP3    H165533   3.690   5.524   5.370  1.9267 -2.5036 -0.5019
14706TIP3    H265534   3.601   5.402   5.373 -1.2996 -0.2800  1.0229
14707TIP3   OH265535   6.407   5.632   1.350 -0.3240 -0.0310 -0.0008
14707TIP3    H165536   6.417   5.537   1.361  0.6493  0.2361  1.8769
14707TIP3    H265537   6.313   5.645   1.336 -0.6503 -1.1725  0.9686
14708TIP3   OH265538   1.074   2.564   6.742 -0.0936 -0.6114 -0.0825
14708TIP3    H165539   1.051   2.648   6.702  0.4110 -0.3772  0.1138
14708TIP3    H265540   0.990   2.522   6.758 -0.4504  0.5206  1.2467
14709TIP3   OH265541   6.577   1.078  14.110 -0.1065 -0.1712 -0.0435
14709TIP3    H165542   6.663   1.091  14.150 -0.6507 -0.1452  1.1474
14709TIP3    H265543   6.554   0.987  14.132 -0.3879 -0.1775 -0.3586
14710TIP3   OH265544   0.452   0.371  15.292 -0.0371 -0.3728 -0.6360
14710TIP3    H165545   0.480   0.459  15.318  0.0875 -0.4131 -0.6326
14710TIP3    H265546   0.373   0.355  15.344 -0.2741 -0.1180 -0.9115
14711TIP3   OH265547   3.957   0.800   0.778  0.4609 -0.1105  0.3479
14711TIP3    H165548   3.886   0.853   0.740  0.4207  0.3030  0.9824
14711TIP3    H265549   3.912   0.732   0.827  0.5047 -0.1255  0.3670
14712TIP3   OH265550   0.924   0.358   2.022  0.0989 -0.1098 -0.3758
14712TIP3    H165551   0.960   0.336   2.108  0.9784 -2.1578 -1.1922
14712TIP3    H265552   0.893   0.274   1.988  1.2050  0.3400 -2.6726
14713TIP3   OH265553   4.610   6.502  13.336 -0.2206  0.1315 -0.5088
14713TIP3    H165554   4.663   6.515  13.415 -1.8884 -0.4468  0.7906
14713TIP3    H265555   4.592   6.408  13.335 -1.2795  0.3258 -0.8366
14714TIP3   OH265556   0.807   0.706  17.352 -0.1468  0.6137 -0.5931
14714TIP3    H165557   0.841   0.792  17.327  0.2326  0.5262 -0.3938
14714TIP3    H265558   0.830   0.698  17.445 -1.9037  1.1293 -0.0599
14715TIP3   OH265559   5.121   3.565   2.692 -0.3287  0.0873  0.2301
14715TIP3    H165560   5.118   3.597   2.782  0.1960 -0.5143  0.4711
14715TIP3    H265561   5.035   3.526   2.677  0.6440 -2.9214  1.6844
14716TIP3   OH265562   6.527   5.771   5.995  0.7127 -0.5234  0.5183
14716TIP3    H165563   6.554   5.821   5.918 -0.9325  0.4177  0.5169
14716TIP3    H265564   6.608   5.763   6.047  1.0379  2.4131  0.6578
14717TIP3   OH265565   1.756   1.383  13.011  0.0446  0.2005  0.6908
14717TIP3    H165566   1.823   1.371  12.944 -1.1067 -0.5975 -0.3762
14717TIP3    H265567   1.703   1.456  12.979 -1.1831 -0.8986  0.1100
14718TIP3   OH265568   0.505   0.210  11.941  0.3294  0.1097 -0.0588
14718TIP3    H165569   0.523   0.248  12.028 -0.2780  3.0185 -1.0784
14718TIP3    H265570   0.581   0.235  11.889 -1.4070  2.8322 -1.5423
14719TIP3   OH265571   2.464   5.010   1.821  0.4827 -0.8341 -0.3290
14719TIP3    H165572   2.493   5.046   1.905  3.5455  2.4188 -2.5080
14719TIP3    H265573   2.385   5.061   1.800  0.2579 -0.9869  0.1307
14720TIP3   OH265574   6.035   2.546   5.004  0.3257 -0.0410 -0.1032
14720TIP3    H165575   6.054   2.602   5.079  1.0750 -1.1331  0.5535
14720TIP3    H265576   5.942   2.562   4.985  0.5701  1.5475 -0.0781
14721TIP3   OH265577   6.552   4.608  11.555  0.3672  0.3837 -0.0202
14721TIP3    H165578   6.510   4.551  11.619 -1.0701 -1.2813 -2.2833
14721TIP3    H265579   6.522   4.696  11.578 -3.2711 -0.5592 -0.5521
14722TIP3   OH265580   4.422   0.436  12.851 -0.2894  0.4212  0.0178
14722TIP3    H165581   4.489   0.464  12.913 -0.5714  0.8930  0.1116
14722TIP3    H265582   4.411   0.511  12.792  0.5755 -0.3251 -1.1161
14723TIP3   OH265583   5.511   1.720  13.956 -0.5639 -0.0447 -0.4504
14723TIP3    H165584   5.523   1.772  13.876  0.5549  0.8860  0.2994
14723TIP3    H265585   5.424   1.681  13.946 -0.0355 -0.8242 -2.6214
14724TIP3   OH265586   4.098   1.645  13.222  0.5612  0.7069  0.1997
14724TIP3    H165587   4.099   1.644  13.126  1.8482 -0.4244  0.2004
14724TIP3    H265588   4.085   1.737  13.244 -1.2486  0.7932 -1.0392
14725TIP3   OH265589   4.749   4.173   4.413  0.7620  0.1236 -0.0215
14725TIP3    H165590   4.694   4.102   4.444 -3.2217  3.1840  0.7704
14725TIP3    H265591   4.765   4.227   4.491  0.0316  2.2095 -1.2208
14726TIP3   OH265592   2.126   0.587   5.686 -0.6949  0.0436 -0.5598
14726TIP3    H165593   2.118   0.596   5.591  0.0197 -0.1976 -0.6456
14726TIP3    H265594   2.217   0.561   5.701 -1.3074 -1.9098  0.0576
14727TIP3   OH265595   5.893   3.103  17.327 -0.7561  0.3883  0.1619
14727TIP3    H165596   5.823   3.057  17.281  0.3289 -1.5501  0.3526
14727TIP3    H265597   5.882   3.195  17.303 -1.6314 -0.2568 -2.0648
14728TIP3   OH265598   0.005   1.983  15.307  0.0961  0.0127  0.0038
14728TIP3    H165599  -0.044   1.903  15.322 -1.6426  0.9798 -0.2494
14728TIP3    H265600   0.080   1.977  15.366 -0.4993 -1.3809  0.6525
14729TIP3   OH265601   3.620   2.057   3.069  0.1406  0.4279 -0.5020
14729TIP3    H165602   3.572   1.977   3.091  1.2587 -0.6031 -1.6351
14729TIP3    H265603   3.637   2.099   3.154 -1.0002 -0.2008  0.0621
14730TIP3   OH265604   3.527   5.617  15.188 -0.6190 -0.0052 -0.2906
14730TIP3    H165605   3.468   5.636  15.115 -0.8576 -1.1558 -0.4077
14730TIP3    H265606   3.511   5.689  15.250 -1.2926  0.3288 -0.8341
14731TIP3   OH265607   1.233   3.040   5.242 -0.5463 -0.0436 -0.0981
14731TIP3    H165608   1.248   3.132   5.223 -0.7628 -0.1967 -1.0553
14731TIP3    H265609   1.281   2.993   5.174 -1.6770 -0.5957 -0.5480
14732TIP3   OH265610   6.382   3.208   5.903 -0.0458 -0.0698 -0.0138
14732TIP3    H165611   6.325   3.261   5.959  1.5478  1.8413 -0.0930
14732TIP3    H265612   6.421   3.270   5.842  4.4021 -0.6163  1.8994
14733TIP3   OH265613   6.447   5.257   0.735 -0.1919 -0.1834  0.1034
14733TIP3    H165614   6.450   5.275   0.641  0.2814  0.1025  0.1682
14733TIP3    H265615   6.370   5.305   0.766 -0.0458  0.1597 -0.0536
14734TIP3   OH265616   4.283   1.318  17.059  0.0604  0.0192  0.4825
14734TIP3    H165617   4.269   1.382  17.129  1.7760  0.8395  0.1268
14734TIP3    H265618   4.335   1.248  17.100 -1.5622 -1.0564  0.7940
14735TIP3   OH265619   4.215   2.240   4.824  0.0818  0.1757 -0.2896
14735TIP3    H165620   4.257   2.309   4.772  1.2903  0.6667  1.2415
14735TIP3    H265621   4.123   2.243   4.798  0.7497 -0.2158 -3.0046
14736TIP3   OH265622   2.058   1.071   6.858 -0.5186 -0.1523  0.5523
14736TIP3    H165623   2.116   1.031   6.923 -0.1215  0.5554  0.6529
14736TIP3    H265624   2.004   1.131   6.909 -0.3788  0.2183  0.2714
14737TIP3   OH265625   1.009   0.771  14.114 -0.0233  0.3898  0.0504
14737TIP3    H165626   0.961   0.815  14.185 -1.5935 -1.7879  0.4594
14737TIP3    H265627   1.028   0.841  14.051 -1.5794  1.8116  1.0582
14738TIP3   OH265628   2.027   5.890  16.145 -0.3727 -0.1080 -0.0863
14738TIP3    H165629   1.987   5.822  16.200  1.9780 -0.8851  0.7802
14738TIP3    H265630   2.061   5.842  16.069  0.2018  0.2848 -0.0797
14739TIP3   OH265631   6.298   3.845   5.394 -0.0068 -0.6134  0.0979
14739TIP3    H165632   6.237   3.895   5.449 -0.5446 -0.2517 -0.8025
14739TIP3    H265633   6.243   3.777   5.354  0.8630 -2.4842  1.9226
14740TIP3   OH265634   5.947   0.330  17.298 -0.1110  0.1641 -0.1956
14740TIP3    H165635   5.893   0.392  17.345 -0.0095 -0.7401  1.1635
14740TIP3    H265636   5.981   0.379  17.223  0.1617  1.8095  0.9580
14741TIP3   OH265637   1.536   2.525   0.003  0.1622  0.1996 -0.1821
14741TIP3    H165638   1.562   2.481   0.084  1.5831  1.1928 -0.0741
14741TIP3    H265639   1.472   2.590   0.031  0.3012  0.2249  0.0825
14742TIP3   OH265640   2.505   4.763   1.686  0.2804  0.1890  0.0914
14742TIP3    H165641   2.561   4.787   1.613 -1.6765  0.8099 -1.2735
14742TIP3    H265642   2.472   4.846   1.720 -0.1034 -0.1698  0.6259
14743TIP3   OH265643   4.004   4.405   3.791 -0.5164 -0.2493  0.1385
14743TIP3    H165644   4.058   4.409   3.712 -0.6777 -0.8458 -0.0016
14743TIP3    H265645   3.926   4.457   3.770 -0.5373 -0.3701 -0.0737
14744TIP3   OH265646   4.034   2.447  14.489  0.2539 -0.0874  0.1514
14744TIP3    H165647   4.085   2.495  14.424  1.5194  0.2043  1.3222
14744TIP3    H265648   3.951   2.428  14.444  0.9084  0.4745 -1.3856
14745TIP3   OH265649   6.078   5.862  13.225  0.4232 -0.0589 -0.2014
14745TIP3    H165650   6.146   5.816  13.176 -0.0289 -1.3169  0.3027
14745TIP3    H265651   5.999   5.810  13.210 -0.7532  1.9767 -1.7216
14746TIP3   OH265652   0.837   6.213  12.124 -0.4857 -0.3597 -0.2507
14746TIP3    H165653   0.776   6.241  12.192 -0.7378 -1.3848 -0.0327
14746TIP3    H265654   0.912   6.272  12.133 -1.9467  1.7855 -1.3748
14747TIP3   OH265655   4.614   0.079  14.223 -0.0524  0.3314 -0.5159
14747TIP3    H165656   4.520   0.087  14.243 -0.1194  1.2272 -1.0831
14747TIP3    H265657   4.623  -0.008  14.184 -0.1457 -0.9019  2.0442
14748TIP3   OH265658   1.006   1.681  13.120 -0.5959 -0.5545 -0.1155
14748TIP3    H165659   0.949   1.604  13.125 -0.4394 -0.6798 -0.2782
14748TIP3    H265660   1.067   1.662  13.049  0.2539 -0.8326  0.6736
14749TIP3   OH265661   6.444   2.152  12.338 -0.4438 -0.0183 -0.6059
14749TIP3    H165662   6.452   2.219  12.270  1.3958 -1.7638 -2.2663
14749TIP3    H265663   6.458   2.070  12.292 -0.5163 -1.4069  1.6962
14750TIP3   OH265664   1.056   3.243  11.329 -0.7623 -0.1967 -0.3757
14750TIP3    H165665   0.980   3.265  11.276 -0.2765  0.0478 -0.9754
14750TIP3    H265666   1.085   3.326  11.366 -0.5690 -0.2382 -0.4324
14751TIP3   OH265667   2.836   0.302  13.970  0.1216  0.2564 -0.1281
14751TIP3    H165668   2.896   0.237  13.933  2.6703  2.0261  0.5688
14751TIP3    H265669   2.756   0.253  13.990  1.5955 -2.4627 -0.4033
14752TIP3   OH265670   2.502   3.178  11.673  0.5552 -0.4472  0.1233
14752TIP3    H165671   2.594   3.165  11.697  0.3956  1.0561  1.6867
14752TIP3    H265672   2.459   3.095  11.697  1.2845 -0.7282  0.4818
14753TIP3   OH265673   2.408   3.305   2.464 -0.6683 -0.6543  0.3741
14753TIP3    H165674   2.436   3.392   2.436 -1.7579 -0.6261 -0.6680
14753TIP3    H265675   2.418   3.307   2.560  1.5604 -0.2091  0.1895
14754TIP3   OH265676   0.327   3.216  14.800  0.7560 -0.3595 -0.0281
14754TIP3    H165677   0.368   3.274  14.864  2.8795 -0.8854 -0.8270
14754TIP3    H265678   0.251   3.264  14.769  1.4488  1.2272  0.6118
14755TIP3   OH265679   3.201   1.177  13.463 -0.8623 -0.1296 -0.1651
14755TIP3    H165680   3.169   1.087  13.453 -1.0157  0.0613 -1.6208
14755TIP3    H265681   3.295   1.172  13.445 -0.9833  0.0845 -0.9103
14756TIP3   OH265682   3.567   4.276   5.166  0.4219 -0.1973 -0.3435
14756TIP3    H165683   3.657   4.291   5.193  0.4347 -1.1550  0.2038
14756TIP3    H265684   3.530   4.363   5.155  1.6404  0.2145 -1.3937
14757TIP3   OH265685   6.574   0.656  16.524 -0.4213  0.0975 -0.1373
14757TIP3    H165686   6.658   0.657  16.480  0.1709  0.5186  0.9547
14757TIP3    H265687   6.572   0.738  16.574 -1.9591  0.6494 -1.0094
14758TIP3   OH265688   4.266   5.061   4.302 -0.0692  0.2073  0.3838
14758TIP3    H165689   4.192   5.034   4.247  0.6364  0.0916 -0.5310
14758TIP3    H265690   4.298   5.141   4.262  1.6192 -0.8629 -0.5370
14759TIP3   OH265691   3.760   0.098  15.586  0.4160 -0.3804 -0.8660
14759TIP3    H165692   3.706   0.173  15.562  1.3876 -0.0200 -1.9755
14759TIP3    H265693   3.743   0.086  15.680 -0.8042  0.3415 -0.9715
14760TIP3   OH265694   5.801   3.731  15.117 -0.1698 -0.0785 -0.1576
14760TIP3    H165695   5.781   3.798  15.182 -0.8374  0.0372 -0.4775
14760TIP3    H265696   5.762   3.651  15.152  0.4793 -0.2741  0.1408
14761TIP3   OH265697   0.629   2.458   0.629 -0.1688  0.3019  0.6316
14761TIP3    H165698   0.584   2.380   0.662 -0.1565  0.2778  0.5910
14761TIP3    H265699   0.559   2.520   0.610 -0.1837  0.2696  0.5820
14762TIP3   OH265700   2.758   5.769  15.966 -0.7081 -0.6383  0.8860
14762TIP3    H165701   2.709   5.688  15.977 -1.6669 -0.2255 -0.1865
14762TIP3    H265702   2.784   5.769  15.874 -1.7549  0.8267  0.5540
14763TIP3   OH265703   1.634   0.473   2.289 -0.1632  0.6819  0.0032
14763TIP3    H165704   1.716   0.519   2.275  1.2388 -1.4075  0.7992
14763TIP3    H265705   1.611   0.491   2.380 -0.6713  1.3277 -0.2401
14764TIP3   OH265706   2.445   4.096  12.729  0.3790  0.7647  0.5403
14764TIP3    H165707   2.403   4.011  12.734  0.2590  0.6446 -1.5278
14764TIP3    H265708   2.432   4.135  12.815 -2.0222 -0.1585  0.6595
14765TIP3   OH265709   3.678   5.977   3.390  0.4122  0.1249 -0.3120
14765TIP3    H165710   3.596   6.009   3.428  0.0787 -0.0820 -0.8429
14765TIP3    H265711   3.732   6.055   3.381  0.0019  0.3775 -0.6204
14766TIP3   OH265712   0.289   2.742  17.605 -0.3866 -0.2841 -0.4836
14766TIP3    H165713   0.340   2.690  17.668 -2.7398 -1.4357  0.6029
14766TIP3    H265714   0.321   2.714  17.519  3.3029  1.7294  0.0261
14767TIP3   OH265715   0.866   6.617   6.153  0.4389 -0.5695  0.2663
14767TIP3    H165716   0.845   6.540   6.100  0.8453  0.5230 -1.6040
14767TIP3    H265717   0.957   6.637   6.131 -0.3544  1.7988 -1.1940
14768TIP3   OH265718   2.644   1.168  13.782 -0.5013 -0.1255  0.5224
14768TIP3    H165719   2.646   1.200  13.692 -0.3429  0.8977  0.8784
14768TIP3    H265720   2.714   1.102  13.785  2.9902  3.2400  1.0991
14769TIP3   OH265721   1.169   1.263   1.581 -0.8066  0.3880 -0.9028
14769TIP3    H165722   1.105   1.322   1.622 -0.5317  0.2201 -0.2353
14769TIP3    H265723   1.145   1.176   1.613  0.0346  0.3777 -0.3064
14770TIP3   OH265724   3.090   0.664  14.958 -0.2944  0.3165 -0.2305
14770TIP3    H165725   3.185   0.665  14.969 -0.2017  0.0904 -0.9767
14770TIP3    H265726   3.057   0.718  15.031  0.5211  1.9773 -1.0319
14771TIP3   OH265727   3.497   1.640   0.695 -0.4167  0.1387  0.3718
14771TIP3    H165728   3.553   1.608   0.624 -1.0908  0.5679 -0.3796
14771TIP3    H265729   3.523   1.589   0.772  0.7211  0.0582 -0.0482
14772TIP3   OH265730   3.918   6.029  15.350  0.2932 -0.3414 -0.2527
14772TIP3    H165731   3.836   6.072  15.378 -0.1346 -1.9377  1.0829
14772TIP3    H265732   3.970   6.101  15.314 -1.3907  0.8612 -0.4751
14773TIP3   OH265733   4.620   2.082  11.792  0.4093  0.1218 -0.3869
14773TIP3    H165734   4.555   2.015  11.769  1.4425 -0.3510 -2.1924
14773TIP3    H265735   4.568   2.158  11.816 -0.8019 -1.0611  0.9196
14774TIP3   OH265736   2.825   4.264  16.109 -0.5056 -0.0853  0.0476
14774TIP3    H165737   2.762   4.332  16.133 -1.0590 -1.3374  2.4586
14774TIP3    H265738   2.821   4.261  16.013 -1.6645  2.1136 -0.0493
14775TIP3   OH265739   6.002   2.799  14.695  0.6219 -0.3326 -0.0406
14775TIP3    H165740   5.957   2.843  14.767  0.1807  0.8145 -0.9959
14775TIP3    H265741   6.095   2.810  14.714  0.5523  1.9040 -0.7366
14776TIP3   OH265742   2.868   2.681  17.239 -0.2743 -0.5287 -0.3783
14776TIP3    H165743   2.908   2.696  17.324  2.3820 -0.5073 -1.5383
14776TIP3    H265744   2.941   2.661  17.180 -1.8914  0.2326 -2.8443
14777TIP3   OH265745   0.276   5.739   2.726 -0.1297  0.4199  0.0562
14777TIP3    H165746   0.297   5.780   2.810  0.5195 -2.6041  1.5007
14777TIP3    H265747   0.289   5.809   2.661  3.9772  1.7287  1.9635
14778TIP3   OH265748   5.502   4.508   2.589 -0.4168  0.2371 -0.2827
14778TIP3    H165749   5.413   4.477   2.576 -0.9495  1.3239  0.6431
14778TIP3    H265750   5.545   4.494   2.504 -1.9458  1.2667 -1.2711
14779TIP3   OH265751   0.464   3.982   1.763 -0.4880  0.5089 -0.3610
14779TIP3    H165752   0.383   4.000   1.716  0.2778  4.2736 -0.5274
14779TIP3    H265753   0.456   4.028   1.846  1.4976  1.0980 -0.4271
14780TIP3   OH265754   3.142   6.211  15.119  0.7750  0.2005 -0.1652
14780TIP3    H165755   3.157   6.205  15.025 -1.6133  0.0074 -0.5914
14780TIP3    H265756   3.131   6.120  15.147  0.0124  0.3336 -0.0019
14781TIP3   OH265757   3.268   5.133   6.799 -0.1314  0.0537  0.4671
14781TIP3    H165758   3.357   5.143   6.832 -0.2703  0.4698  0.7241
14781TIP3    H265759   3.264   5.191   6.723 -0.5057  0.8806  1.1033
14782TIP3   OH265760   6.098   0.996   6.099  1.0238 -0.5640  0.2241
14782TIP3    H165761   6.127   0.918   6.147  0.9014 -0.7345  0.0216
14782TIP3    H265762   6.179   1.036   6.067  1.0723 -0.7307  0.1387
14783TIP3   OH265763   1.031   1.138  16.073  0.2147 -0.8862 -0.2407
14783TIP3    H165764   1.111   1.141  16.126  0.4344 -1.6867 -0.5255
14783TIP3    H265765   0.960   1.131  16.136  0.4244 -1.0229 -0.0222
14784TIP3   OH265766   1.521   3.900  13.167 -0.5071  0.1299 -0.5221
14784TIP3    H165767   1.563   3.982  13.141 -0.3997 -0.6616 -3.1858
14784TIP3    H265768   1.578   3.832  13.131 -1.8459 -1.0595 -0.4802
14785TIP3   OH265769   1.476   4.079  17.186 -0.0229 -0.3333 -0.2394
14785TIP3    H165770   1.539   4.057  17.117  1.0999 -0.6491  0.8521
14785TIP3    H265771   1.397   4.031  17.161 -0.6089  1.7316 -2.7755
14786TIP3   OH265772   5.789   3.868  14.759  0.8687 -0.0461 -0.0091
14786TIP3    H165773   5.823   3.947  14.716  0.1618  0.2114 -0.1045
14786TIP3    H265774   5.758   3.899  14.844  1.7020 -0.4485  0.4604
14787TIP3   OH265775   0.851   6.605   5.622 -0.1138  0.7980 -0.1780
14787TIP3    H165776   0.759   6.593   5.596 -0.2920  1.2567  0.2132
14787TIP3    H265777   0.886   6.667   5.557 -0.2307  1.0302 -0.0223
14788TIP3   OH265778   6.136   0.038  15.742 -0.2754  0.2485 -0.2532
14788TIP3    H165779   6.195   0.113  15.744 -0.8129  0.7749 -2.2968
14788TIP3    H265780   6.126   0.014  15.834  0.1942  2.4346  0.4330
14789TIP3   OH265781   2.217   0.338   1.567  0.3952  0.2237  0.6234
14789TIP3    H165782   2.129   0.377   1.564  0.3566  0.0760 -0.4546
14789TIP3    H265783   2.244   0.332   1.476  1.0307 -0.8641  0.8572
14790TIP3   OH265784   4.528   4.600   1.381 -0.2534 -0.3048  0.1212
14790TIP3    H165785   4.450   4.610   1.326 -0.3608  1.9802  0.6027
14790TIP3    H265786   4.600   4.635   1.329 -0.6076  3.5334  1.8286
14791TIP3   OH265787   1.498   2.205   5.144 -0.1611 -0.0414 -0.1076
14791TIP3    H165788   1.557   2.197   5.220 -1.8032 -1.8301  1.0811
14791TIP3    H265789   1.451   2.287   5.159  0.5089  0.3243  0.0552
14792TIP3   OH265790   1.831   3.890  15.867 -0.1411  0.4197  0.0992
14792TIP3    H165791   1.865   3.894  15.956 -0.1636  1.6885  0.0736
14792TIP3    H265792   1.863   3.971  15.826 -0.7207  0.1931 -0.8246
14793TIP3   OH265793   5.050   3.566  12.092  0.0549  0.1329  0.8589
14793TIP3    H165794   5.144   3.572  12.109  0.0315  0.6115  0.8293
14793TIP3    H265795   5.030   3.642  12.037 -0.5876  0.7688  1.9471
14794TIP3   OH265796   0.627   0.605  17.593 -0.5117  0.6143 -0.1496
14794TIP3    H165797   0.684   0.679  17.614  0.2358  0.1224 -0.4012
14794TIP3    H265798   0.539   0.634  17.617 -0.0466  1.0765  1.0827
14795TIP3   OH265799   4.201   3.724   5.514 -0.1081  0.2611 -0.8133
14795TIP3    H165800   4.187   3.724   5.420  0.5293  1.4223 -0.9335
14795TIP3    H265801   4.115   3.740   5.552 -0.5437 -1.1883 -1.1378
14796TIP3   OH265802   4.400   5.165  17.123 -0.2492  0.0117 -0.4661
14796TIP3    H165803   4.483   5.150  17.079  0.3984  1.6411  0.1374
14796TIP3    H265804   4.354   5.228  17.068  0.2658  1.5083  0.7259
14797TIP3   OH265805   2.300   4.331  11.005 -0.0708 -0.1376 -0.2980
14797TIP3    H165806   2.245   4.407  11.023 -2.1447 -2.0427  2.2780
14797TIP3    H265807   2.270   4.298  10.921 -0.0702  1.1072 -0.7926
14798TIP3   OH265808   0.009   5.866  15.371  0.0912 -0.5151 -0.6018
14798TIP3    H165809   0.088   5.816  15.348  1.0477  0.8049 -0.3197
14798TIP3    H265810   0.043   5.944  15.416 -1.4945 -0.9270  1.4190
14799TIP3   OH265811   1.664   0.391   1.336  1.1899 -0.7765 -0.2535
14799TIP3    H165812   1.646   0.411   1.244  1.5168  0.9305  0.0186
14799TIP3    H265813   1.716   0.311   1.332 -1.5158 -2.6314 -1.3262
14800TIP3   OH265814   4.578   2.395   1.718  0.3441  1.1374  0.2107
14800TIP3    H165815   4.635   2.368   1.646  0.9930  0.4637  0.9610
14800TIP3    H265816   4.521   2.462   1.680  1.2373  1.3898 -0.7070
14801TIP3   OH265817   3.289   5.560  12.432 -0.2935 -0.0325  0.0983
14801TIP3    H165818   3.259   5.595  12.348 -0.3354  0.5102  0.3370
14801TIP3    H265819   3.210   5.526  12.474 -0.3213 -0.0308  0.0476
14802TIP3   OH265820   1.482   5.161  16.337  0.0552  0.1322  0.6690
14802TIP3    H165821   1.549   5.186  16.401  1.3671 -2.4700  0.4402
14802TIP3    H265822   1.466   5.068  16.354 -0.5918 -0.2973 -1.8702
14803TIP3   OH265823   2.140   6.097   0.759 -0.6231  0.1010  0.1214
14803TIP3    H165824   2.044   6.096   0.760 -0.6901  2.2016  0.9244
14803TIP3    H265825   2.162   6.156   0.687  0.0153  0.4504  0.5935
14804TIP3   OH265826   4.461   1.159   2.707  0.2812 -0.1853 -0.5999
14804TIP3    H165827   4.556   1.165   2.722  0.1991 -0.0117 -0.1599
14804TIP3    H265828   4.454   1.132   2.615  0.7698 -0.9912 -0.4178
14805TIP3   OH265829   1.522   1.031   4.296 -0.1090 -0.7538 -0.1632
14805TIP3    H165830   1.595   0.971   4.307  0.9688  0.1217 -2.1555
14805TIP3    H265831   1.543   1.105   4.353 -0.6797 -1.4969  1.0868
14806TIP3   OH265832   6.454   3.931  16.919  0.0918 -0.2164  0.2587
14806TIP3    H165833   6.509   4.006  16.941  0.7083 -0.0947 -1.5357
14806TIP3    H265834   6.372   3.946  16.966  1.2851 -0.0497  2.4397
14807TIP3   OH265835   2.654   4.324   0.641  0.1763  0.7002 -0.8758
14807TIP3    H165836   2.749   4.316   0.644  0.1848  1.0063  0.0320
14807TIP3    H265837   2.631   4.367   0.724 -0.7971  0.0940 -0.8181
14808TIP3   OH265838   4.224   2.039   6.145 -0.2001  0.5092 -0.5938
14808TIP3    H165839   4.215   2.134   6.147 -0.8186  0.4430  0.7482
14808TIP3    H265840   4.300   2.020   6.199 -1.0717  0.1650  0.5512
14809TIP3   OH265841   5.248   3.883  15.275  0.6263 -0.7271 -0.5681
14809TIP3    H165842   5.308   3.949  15.240  0.9147 -1.0634 -0.7147
14809TIP3    H265843   5.167   3.931  15.291  1.0536 -0.1735  0.0159
14810TIP3   OH265844   4.366   3.329  10.785  0.0571  0.0079 -0.0448
14810TIP3    H165845   4.283   3.303  10.744  0.3249 -0.2942 -0.3965
14810TIP3    H265846   4.422   3.252  10.778  0.7067  0.5190 -0.7071
14811TIP3   OH265847   4.667   3.874   2.810 -0.1787  0.5984  0.3800
14811TIP3    H165848   4.691   3.845   2.898  2.0233  1.9512  0.2886
14811TIP3    H265849   4.626   3.959   2.823  1.4682  1.4773  0.0393
14812TIP3   OH265850   3.417   5.891   0.158  0.0451 -0.5977 -0.3741
14812TIP3    H165851   3.484   5.840   0.204  0.8037 -0.4137 -1.2339
14812TIP3    H265852   3.337   5.841   0.169 -0.0900  0.0578  2.1835
14813TIP3   OH265853   6.632   1.515  15.090 -0.5812 -0.1030 -0.1200
14813TIP3    H165854   6.658   1.604  15.115  0.1051 -1.2428  4.0429
14813TIP3    H265855   6.712   1.475  15.057 -0.2856  0.1489  0.2821
14814TIP3   OH265856   0.562   3.121  11.405 -0.1037 -0.6328 -0.0283
14814TIP3    H165857   0.472   3.102  11.377 -1.0300  0.0098  2.3392
14814TIP3    H265858   0.590   3.193  11.349 -1.1395 -0.6680 -0.6097
14815TIP3   OH265859   5.753   4.586  15.145  0.2088  1.1204  0.0279
14815TIP3    H165860   5.675   4.530  15.143  0.0504  1.0189  3.3675
14815TIP3    H265861   5.787   4.577  15.234  3.0417  2.5748 -0.7731
14816TIP3   OH265862   2.960   4.038  16.235 -0.6264  0.2151 -0.3790
14816TIP3    H165863   2.911   4.116  16.208 -0.8553 -0.0778 -0.8212
14816TIP3    H265864   3.047   4.071  16.257 -1.0775  0.7717  0.6167
14817TIP3   OH265865   5.256   4.447  14.497 -0.4761  0.2326  0.2628
14817TIP3    H165866   5.289   4.524  14.545  0.7020 -0.6137  0.8816
14817TIP3    H265867   5.320   4.433  14.428 -2.1600  1.4295 -1.6329
14818TIP3   OH265868   4.117   2.731   2.798 -0.2246  0.2386 -0.0703
14818TIP3    H165869   4.188   2.725   2.862 -0.3985 -0.0905  0.0990
14818TIP3    H265870   4.053   2.666   2.829 -0.1193 -0.2297 -0.8201
14819TIP3   OH265871   3.742   1.696  16.170 -0.1323 -0.0111 -0.0425
14819TIP3    H165872   3.826   1.742  16.181 -0.9161  2.0391 -1.8456
14819TIP3    H265873   3.749   1.654  16.084 -0.1891 -1.6816  0.7360
14820TIP3   OH265874   4.682   4.524   0.869 -0.4547  0.5715 -0.2535
14820TIP3    H165875   4.701   4.463   0.940  0.1866  0.5163 -0.4673
14820TIP3    H265876   4.610   4.578   0.902 -1.0829 -0.3501 -0.0976
14821TIP3   OH265877   4.691   1.330   4.927  0.0973  0.1023 -0.1396
14821TIP3    H165878   4.636   1.398   4.888 -0.1449  0.8176  1.3719
14821TIP3    H265879   4.772   1.376   4.949 -0.6083  0.3257  2.2548
14822TIP3   OH265880   3.625   0.371   3.396 -0.3963  0.2104  0.2280
14822TIP3    H165881   3.572   0.346   3.320 -1.0740  2.1236  0.0144
14822TIP3    H265882   3.632   0.467   3.390  0.7576  0.2632  1.7903
14823TIP3   OH265883   2.427   0.920  13.872  0.4382  0.1878  0.7725
14823TIP3    H165884   2.513   0.888  13.846 -0.7712 -2.9128  0.1849
14823TIP3    H265885   2.389   0.955  13.791  0.3510 -0.3754  0.5719
14824TIP3   OH265886   0.080   4.498   4.876 -0.6431 -0.2322  0.1639
14824TIP3    H165887   0.068   4.413   4.919 -2.5341 -0.1369 -0.0583
14824TIP3    H265888   0.046   4.485   4.788  0.7850  0.2808 -0.4910
14825TIP3   OH265889   5.390   5.210   4.154 -0.3523 -0.3471  0.0346
14825TIP3    H165890   5.343   5.135   4.188  1.2702 -1.0817  0.7875
14825TIP3    H265891   5.322   5.267   4.118 -2.0345 -0.3944  2.8201
14826TIP3   OH265892   4.984   5.066  15.982  0.0138 -0.1288  0.0552
14826TIP3    H165893   4.997   5.107  15.896 -0.7659  0.0861  0.0306
14826TIP3    H265894   4.958   4.976  15.962 -3.1270  0.6930 -0.0773
14827TIP3   OH265895   3.631   3.414  16.244  0.2737 -0.1268 -0.5146
14827TIP3    H165896   3.616   3.343  16.306  1.3932  1.3546  1.5972
14827TIP3    H265897   3.706   3.385  16.192  1.2657 -0.2006  0.8929
14828TIP3   OH265898   3.038   6.060  13.334  0.4380 -0.0503 -0.2249
14828TIP3    H165899   2.991   5.977  13.338  2.2693 -1.1257 -0.1508
14828TIP3    H265900   3.127   6.039  13.362  0.8706  2.0105  0.1125
14829TIP3   OH265901   1.908   6.543   0.869 -0.3247  0.2479  0.9857
14829TIP3    H165902   1.922   6.481   0.797  0.7794  0.8393  0.6754
14829TIP3    H265903   1.831   6.593   0.842 -0.6154 -0.3118  0.7614
14830TIP3   OH265904   1.954   2.582  17.351  0.2156  0.7566 -0.3346
14830TIP3    H165905   1.880   2.635  17.381 -1.1628 -0.6511 -1.0372
14830TIP3    H265906   2.000   2.637  17.288 -0.8791  1.3027 -0.6829
14831TIP3   OH265907   1.448   0.042   4.999 -0.0559 -0.2653  0.0125
14831TIP3    H165908   1.371   0.070   4.950 -0.4234 -1.0633  0.1303
14831TIP3    H265909   1.473  -0.042   4.960 -0.4705 -1.0199  1.2969
14832TIP3   OH265910   4.290   5.963  16.569  0.0172  0.0346 -0.9044
14832TIP3    H165911   4.219   5.952  16.506 -1.0038 -1.2922  0.3908
14832TIP3    H265912   4.260   5.915  16.646  0.7695  2.3772  0.9708
14833TIP3   OH265913   6.623   4.027   3.755  0.7334  0.6227 -0.0981
14833TIP3    H165914   6.539   4.035   3.800  0.5874  1.7036 -0.5247
14833TIP3    H265915   6.672   4.106   3.782  2.2132 -0.7111  1.3324
14834TIP3   OH265916   2.701   0.728   0.111  0.0135 -0.1412 -0.0281
14834TIP3    H165917   2.724   0.638   0.087 -0.9036 -0.2083 -0.7090
14834TIP3    H265918   2.766   0.753   0.177 -1.3062 -2.2507  2.2285
14835TIP3   OH265919   0.852   0.024  16.262 -0.0697  0.3094  0.4557
14835TIP3    H165920   0.945   0.037  16.282 -0.0499  0.8246  0.0612
14835TIP3    H265921   0.839  -0.070  16.272  0.2026  0.3810  1.7130
14836TIP3   OH265922   2.742   3.078  13.609  0.1192  0.1203 -0.1390
14836TIP3    H165923   2.737   3.171  13.632  1.2319  0.1341  0.0982
14836TIP3    H265924   2.723   3.031  13.690 -2.8457  0.0763 -0.7597
14837TIP3   OH265925   6.658   5.464  13.476  0.1139  0.3843 -0.0677
14837TIP3    H165926   6.659   5.528  13.405  2.2115  1.0541  0.5005
14837TIP3    H265927   6.724   5.399  13.451 -0.5473 -0.4688  0.3436
14838TIP3   OH265928   1.985   5.869  15.509  0.0214 -0.1514 -0.0406
14838TIP3    H165929   1.985   5.789  15.458 -1.4777 -1.1720  1.4622
14838TIP3    H265930   2.053   5.923  15.469  1.8306 -2.5802 -0.4195
14839TIP3   OH265931   0.295   5.463   0.310  0.0093  0.0185 -0.2353
14839TIP3    H165932   0.329   5.516   0.383  1.9751 -3.2444  1.4788
14839TIP3    H265933   0.366   5.465   0.246 -0.2887  0.1507 -0.5607
14840TIP3   OH265934   2.481   3.709   3.752 -0.2081 -0.0222 -0.1048
14840TIP3    H165935   2.536   3.747   3.684 -1.5321 -0.0552 -1.2312
14840TIP3    H265936   2.526   3.628   3.777  0.3448  0.0356 -0.8790
14841TIP3   OH265937   0.216   1.826  14.771  0.4620 -0.4230  0.0860
14841TIP3    H165938   0.189   1.907  14.814 -1.7010 -0.7266 -0.5665
14841TIP3    H265939   0.286   1.791  14.826  0.8921  1.4594  0.8104
14842TIP3   OH265940   1.674   4.659   1.074  0.0185  0.7137  0.3070
14842TIP3    H165941   1.693   4.710   1.153  0.7022  1.5097 -0.3433
14842TIP3    H265942   1.755   4.612   1.056  0.0824  1.0212 -0.2548
14843TIP3   OH265943   1.091   6.280  12.196  0.0416 -0.2173 -0.5066
14843TIP3    H165944   1.137   6.215  12.250  0.4070  1.9608  2.0506
14843TIP3    H265945   1.136   6.278  12.112 -0.2224 -3.4653 -0.6977
14844TIP3   OH265946   6.061   4.909  14.293 -0.2588  0.2241  0.1900
14844TIP3    H165947   6.034   4.997  14.317  1.4419  1.1238 -0.9798
14844TIP3    H265948   6.079   4.865  14.377 -2.1003  0.6044  0.8278
14845TIP3   OH265949   1.721   2.987  15.666 -0.1914  0.0526  0.9348
14845TIP3    H165950   1.689   2.899  15.646  0.5060 -0.1041  0.4755
14845TIP3    H265951   1.692   3.041  15.592  0.5525 -0.0829  0.5345
14846TIP3   OH265952   1.594   2.608   0.976  0.1296 -0.0094  0.2223
14846TIP3    H165953   1.639   2.692   0.962 -1.0870  0.9943  1.8683
14846TIP3    H265954   1.533   2.601   0.903  0.2388  0.5597  0.0706
14847TIP3   OH265955   4.313   1.283   1.827  0.1600 -0.1529  0.0124
14847TIP3    H165956   4.220   1.260   1.830  0.0219  0.3692 -0.2339
14847TIP3    H265957   4.330   1.299   1.734  0.4943 -0.2281  0.0614
14848TIP3   OH265958   6.703   2.152  13.020 -0.4079 -0.4082 -0.6583
14848TIP3    H165959   6.751   2.080  13.061  1.3567  1.3930  0.6338
14848TIP3    H265960   6.747   2.166  12.936 -0.3136 -0.4244 -0.6117
14849TIP3   OH265961   6.693   2.802   4.872 -0.6241  0.1853  0.0571
14849TIP3    H165962   6.753   2.763   4.809 -1.3021 -1.0115  0.1220
14849TIP3    H265963   6.712   2.757   4.954 -3.2874 -2.1171 -0.4578
14850TIP3   OH265964   3.213   5.789   0.302 -0.8496 -0.4319 -0.0317
14850TIP3    H165965   3.234   5.741   0.381 -1.4023  1.7918  1.5547
14850TIP3    H265966   3.130   5.751   0.272 -1.0254 -0.7834  0.8855
14851TIP3   OH265967   4.844   2.145   3.284 -0.2314  0.1571  0.6281
14851TIP3    H165968   4.883   2.096   3.356  0.3734 -1.3755 -0.6766
14851TIP3    H265969   4.876   2.234   3.296  2.6798 -0.7405  0.3910
14852TIP3   OH265970   1.061   3.541  14.531 -0.4266  0.2101  0.2833
14852TIP3    H165971   1.109   3.460  14.515 -0.4277  0.4811 -1.1923
14852TIP3    H265972   0.973   3.524  14.495 -0.5109  0.7600  0.2197
14853TIP3   OH265973   4.438   3.250   2.663 -0.0066 -0.0482  0.0908
14853TIP3    H165974   4.382   3.216   2.734  0.4996  0.7228  0.8813
14853TIP3    H265975   4.472   3.172   2.620 -1.6824 -0.5474 -0.4220
14854TIP3   OH265976   4.162   1.004  14.234  0.7224 -0.2895  0.4226
14854TIP3    H165977   4.148   0.910  14.222 -0.7708 -0.2909  1.8420
14854TIP3    H265978   4.169   1.015  14.329  0.4286  1.0926  0.3006
14855TIP3   OH265979   5.222   3.948   3.271  0.0337  0.0124 -0.0459
14855TIP3    H165980   5.283   3.999   3.324  1.5514 -1.4177 -0.3273
14855TIP3    H265981   5.231   3.858   3.303 -0.8049 -0.4951 -1.1306
14856TIP3   OH265982   4.654   6.281   4.633 -0.1591 -0.2308 -1.0485
14856TIP3    H165983   4.627   6.211   4.691  0.8682  0.4906  0.3559
14856TIP3    H265984   4.572   6.318   4.599 -0.9288  0.5377  1.4232
14857TIP3   OH265985   1.239   1.449   6.668 -0.2452  0.3540  0.3716
14857TIP3    H165986   1.206   1.535   6.642  1.3389  0.6808 -0.7218
14857TIP3    H265987   1.165   1.406   6.711 -1.5988  1.5815 -0.6502
14858TIP3   OH265988   3.002   2.931  13.285  0.7747 -0.5405  0.3466
14858TIP3    H165989   3.032   3.021  13.278  0.5921 -0.4497  0.6763
14858TIP3    H265990   3.079   2.878  13.264  0.9778 -0.3075  0.4934
14859TIP3   OH265991   0.486   6.002   4.492  0.0684  0.0545 -0.0923
14859TIP3    H165992   0.439   5.986   4.410  0.3512 -1.2509 -0.0298
14859TIP3    H265993   0.575   6.024   4.464 -0.1951  1.0479 -0.1688
14860TIP3   OH265994   0.358   4.189  11.289  0.1127  0.1396  0.4096
14860TIP3    H165995   0.356   4.123  11.220  0.9429 -0.6691  1.1391
14860TIP3    H265996   0.367   4.272  11.242 -1.1011 -0.2149 -0.5293
14861TIP3   OH265997   4.233   3.149  12.090  0.5799 -0.4813 -0.0371
14861TIP3    H165998   4.208   3.133  11.999 -2.4613 -0.1433  0.6176
14861TIP3    H265999   4.324   3.176  12.086  0.5848 -0.6689 -2.9576
14862TIP3   OH266000   1.484   5.536   3.960 -0.0892  0.0042 -0.2853
14862TIP3    H166001   1.555   5.524   3.896  1.2432  0.4564  1.0384
14862TIP3    H266002   1.526   5.580   4.034 -2.0017  1.2524  0.1348
14863TIP3   OH266003   5.596   1.926   1.017 -1.0259 -0.1735  0.3251
14863TIP3    H166004   5.659   1.896   1.081 -1.8606 -0.9162  0.8228
14863TIP3    H266005   5.619   1.880   0.936 -1.6736 -1.4119  0.8232
14864TIP3   OH266006   6.236   4.622   4.263  0.8683 -0.2029 -0.2479
14864TIP3    H166007   6.271   4.622   4.352 -1.1462  1.7499  0.6573
14864TIP3    H266008   6.173   4.550   4.262  1.5803 -0.8339 -0.4267
14865TIP3   OH266009   6.322   3.157   5.179  0.1016 -0.0811 -0.8274
14865TIP3    H166010   6.379   3.142   5.255 -1.3512  0.9256  0.5155
14865TIP3    H266011   6.373   3.124   5.105  1.6403 -0.9579  0.5421
14866TIP3   OH266012   5.500   0.137   2.715 -0.2272 -0.1315  0.2686
14866TIP3    H166013   5.528   0.110   2.803 -0.7454  0.2382  0.5462
14866TIP3    H266014   5.422   0.085   2.698 -0.3155  0.0373  0.1579
14867TIP3   OH266015   1.330   4.503   0.375 -0.1047 -0.5698  0.3864
14867TIP3    H166016   1.354   4.460   0.456  0.0149 -1.0437  0.1001
14867TIP3    H266017   1.397   4.571   0.363  0.5626 -1.2796  0.0692
14868TIP3   OH266018   0.124   4.488  13.006 -0.0319  0.6999  0.2341
14868TIP3    H166019   0.209   4.509  13.043 -1.5478  1.3570  3.7500
14868TIP3    H266020   0.112   4.395  13.024 -0.8965  1.0832  1.7456
14869TIP3   OH266021   0.805   3.837   1.717 -0.3679  0.5604 -0.2084
14869TIP3    H166022   0.881   3.871   1.763 -0.6302  0.7766  0.0735
14869TIP3    H266023   0.835   3.755   1.677 -0.3995 -0.1270  1.1524
14870TIP3   OH266024   4.030   3.577  16.950 -0.0684 -0.2685  0.2416
14870TIP3    H166025   3.935   3.575  16.941 -0.2336  0.4748  1.6254
14870TIP3    H266026   4.047   3.651  17.009  1.3684 -0.4036  0.0293
14871TIP3   OH266027   3.485   4.562  11.449 -0.0376 -0.2971 -0.2400
14871TIP3    H166028   3.494   4.550  11.543  1.8845 -2.1253 -0.5723
14871TIP3    H266029   3.462   4.474  11.416 -0.7672  0.3274 -1.4855
14872TIP3   OH266030   4.906   4.463  14.473 -0.0928  0.3478  0.3809
14872TIP3    H166031   4.908   4.424  14.385  1.2898  2.9656 -0.8314
14872TIP3    H266032   4.986   4.432  14.515  0.1183  0.4790  0.0775
14873TIP3   OH266033   4.997   6.240   0.117 -0.1111  0.2669  0.3414
14873TIP3    H166034   5.023   6.224   0.026  0.2724  1.7223  0.1607
14873TIP3    H266035   4.988   6.153   0.155  2.3900 -0.3590 -0.3210
14874TIP3   OH266036   5.652   5.643  17.056  0.1527 -0.3720 -0.4942
14874TIP3    H166037   5.606   5.581  17.000  0.2567 -0.5676 -0.3627
14874TIP3    H266038   5.619   5.729  17.029 -2.1070 -0.6197  1.1991
14875TIP3   OH266039   2.681   3.015   3.623 -0.1803 -0.1337 -0.1865
14875TIP3    H166040   2.760   3.055   3.586 -0.8369  0.4464 -0.9872
14875TIP3    H266041   2.714   2.950   3.686  0.9202  1.4131  0.9028
14876TIP3   OH266042   6.248   2.012  16.476  0.1692  0.0223 -0.2679
14876TIP3    H166043   6.183   1.943  16.462 -0.2899  0.4741 -0.4021
14876TIP3    H266044   6.258   2.053  16.390  1.3254 -0.6323 -0.4587
14877TIP3   OH266045   5.160   5.193   4.936  0.2149  0.2169 -0.6909
14877TIP3    H166046   5.146   5.105   4.972 -0.5333  0.4352 -0.4252
14877TIP3    H266047   5.157   5.250   5.013  2.1461  0.3395 -0.6814
14878TIP3   OH266048   3.005   5.883  16.027  0.1387 -0.0802 -0.0766
14878TIP3    H166049   2.922   5.835  16.027  0.9179 -1.5583  1.6281
14878TIP3    H266050   2.981   5.973  16.048 -1.2086 -0.0153 -1.7293
14879TIP3   OH266051   4.723   0.095   5.426 -0.3543 -0.1337 -0.8001
14879TIP3    H166052   4.660   0.077   5.357 -1.9610 -0.5993  0.7082
14879TIP3    H266053   4.732   0.012   5.473 -1.4127  0.8127  1.1808
14880TIP3   OH266054   6.049   2.488  14.700  0.3369 -0.1690 -0.1154
14880TIP3    H166055   6.099   2.526  14.628  2.2674 -1.6166  0.3716
14880TIP3    H266056   6.108   2.493  14.775 -0.9991 -0.2124  0.9713
14881TIP3   OH266057   2.129   2.647  16.565 -0.0301  0.3184 -0.4699
14881TIP3    H166058   2.131   2.737  16.596  0.0235 -0.1790  1.0744
14881TIP3    H266059   2.095   2.597  16.639  1.3618 -1.1212 -0.7359
14882TIP3   OH266060   6.193   1.752   0.141 -0.2584  0.0838  0.1772
14882TIP3    H166061   6.279   1.711   0.153  1.0628  2.1794 -1.3556
14882TIP3    H266062   6.133   1.699   0.194  2.0651 -1.0845  1.8141
14883TIP3   OH266063   6.638   1.015  14.439 -0.0433  0.3823  0.1842
14883TIP3    H166064   6.696   1.089  14.458  0.4649  0.3654 -1.2211
14883TIP3    H266065   6.695   0.938  14.441 -0.1626  0.2730 -0.4128
14884TIP3   OH266066   5.550   2.493  13.330  0.6517 -0.4717  0.0277
14884TIP3    H166067   5.544   2.568  13.272  0.9913 -1.0256 -0.7369
14884TIP3    H266068   5.644   2.484  13.349  0.5347 -0.2051  0.7975
14885TIP3   OH266069   4.518   3.693   3.345 -0.1007 -0.0447  0.4448
14885TIP3    H166070   4.571   3.712   3.268 -1.3093 -0.5598 -0.5405
14885TIP3    H266071   4.513   3.777   3.391  0.5981  0.2766 -0.0343
14886TIP3   OH266072   4.873   4.163   1.686 -0.7103  0.1767 -0.5192
14886TIP3    H166073   4.799   4.102   1.694 -0.3254 -0.4048 -1.2560
14886TIP3    H266074   4.918   4.135   1.606  0.0908  0.7668 -0.2808
14887TIP3   OH266075   6.285   5.869   1.102  0.0945  0.0161 -0.1080
14887TIP3    H166076   6.247   5.805   1.163  0.0972  0.4902  0.3970
14887TIP3    H266077   6.210   5.905   1.056  0.1114 -0.5176 -0.5667
14888TIP3   OH266078   3.706   0.716  16.950  0.0986 -0.0888 -0.5998
14888TIP3    H166079   3.790   0.751  16.981  0.3177 -1.4305  0.4021
14888TIP3    H266080   3.640   0.771  16.993  0.4324 -1.0646  1.2799
14889TIP3   OH266081   0.144   5.041  17.289 -0.2729  0.1414 -0.6932
14889TIP3    H166082   0.173   4.992  17.212 -0.1656 -0.3365 -0.3544
14889TIP3    H266083   0.092   4.978  17.339  0.6110  0.0859  0.2009
14890TIP3   OH266084   5.206   6.253  11.353 -0.4134 -0.3146  0.2592
14890TIP3    H166085   5.147   6.183  11.324  1.7296 -1.6497 -1.1137
14890TIP3    H266086   5.270   6.261  11.283  0.5901  1.6490  1.3313
14891TIP3   OH266087   2.412   5.237  11.254  0.4753  0.2863 -0.4493
14891TIP3    H166088   2.469   5.312  11.239  0.7814 -0.1157 -1.3773
14891TIP3    H266089   2.463   5.162  11.224  0.3510 -0.3562  0.8763
14892TIP3   OH266090   0.202   6.104   4.626  0.8278 -0.6989 -0.8521
14892TIP3    H166091   0.179   6.012   4.643  1.6181 -0.8915 -0.7719
14892TIP3    H266092   0.290   6.100   4.589  0.8861  0.0346 -0.8076
14893TIP3   OH266093   3.045   5.109   1.623 -0.4271 -0.4686 -0.0694
14893TIP3    H166094   3.025   5.071   1.537  1.5199  1.9761 -1.7631
14893TIP3    H266095   3.140   5.103   1.630 -0.3793  1.0263  1.0611
14894TIP3   OH266096   4.745   2.575   5.712  0.1500 -0.1528  0.0585
14894TIP3    H166097   4.656   2.577   5.747  0.2856  1.4913  0.3941
14894TIP3    H266098   4.735   2.550   5.620 -0.5736 -0.7613  0.2960
14895TIP3   OH266099   4.100   6.170   0.954 -0.1547 -0.2194  0.4148
14895TIP3    H166100   4.165   6.099   0.951  0.7750  0.4715  2.4555
14895TIP3    H266101   4.151   6.249   0.940 -0.4647  0.3508  2.2402
14896TIP3   OH266102   4.079   5.344  15.394  0.1461  0.5580  0.5871
14896TIP3    H166103   4.071   5.251  15.416  1.1338 -0.0961 -1.5120
14896TIP3    H266104   3.989   5.377  15.393 -0.2269 -0.3936  1.2161
14897TIP3   OH266105   5.432   5.493  14.047  0.3962  0.0290 -0.2051
14897TIP3    H166106   5.383   5.554  13.991 -0.3051 -0.0223  0.3363
14897TIP3    H266107   5.378   5.484  14.125  1.1483 -0.2572  0.2887
14898TIP3   OH266108   3.828   0.311   3.143 -0.3801 -0.0449  0.2956
14898TIP3    H166109   3.769   0.248   3.101 -0.3310  1.0543 -1.5232
14898TIP3    H266110   3.771   0.364   3.198 -0.9860  0.4792 -0.8113
14899TIP3   OH266111   6.424   4.270  16.788  0.0634  0.5570 -0.0428
14899TIP3    H166112   6.436   4.308  16.875 -1.9360  1.3182 -0.0570
14899TIP3    H266113   6.338   4.300  16.760 -1.3940 -3.3875 -0.3754
14900TIP3   OH266114   1.927   2.580   5.078  0.1927 -0.4389 -0.7472
14900TIP3    H166115   1.978   2.640   5.132  0.2011  0.1463 -1.3976
14900TIP3    H266116   1.836   2.604   5.093  0.2159  0.0209 -1.3372
14901TIP3   OH266117   3.901   4.076  10.804 -0.2921  0.0653 -0.4074
14901TIP3    H166118   3.938   4.022  10.734  0.0334  1.0601 -1.0135
14901TIP3    H266119   3.857   4.013  10.861 -0.2291 -0.8070 -1.2882
14902TIP3   OH266120   6.581   5.666  15.462  0.0486 -0.4360 -0.2717
14902TIP3    H166121   6.631   5.592  15.426 -0.7441 -0.7859 -0.6673
14902TIP3    H266122   6.621   5.743  15.423  0.1436 -0.7232 -0.7446
14903TIP3   OH266123   5.602   3.890  15.994  0.6856  0.6378  0.1903
14903TIP3    H166124   5.606   3.795  15.982 -0.7386  0.6189 -0.2082
14903TIP3    H266125   5.517   3.907  16.034  0.8189  1.7739  0.0436
14904TIP3   OH266126   5.950   4.729  14.521  0.1560 -0.0681 -0.2346
14904TIP3    H166127   5.869   4.759  14.479 -0.1098 -0.3726  0.0514
14904TIP3    H266128   5.955   4.780  14.602 -0.1230 -0.5481  0.0912
14905TIP3   OH266129   3.534   4.759  13.666 -0.4349  0.1959 -0.2242
14905TIP3    H166130   3.546   4.664  13.670 -2.2983 -0.0424  2.0235
14905TIP3    H266131   3.593   4.793  13.733 -1.7240  0.3036  0.9088
14906TIP3   OH266132   0.598   6.147   5.938  0.4042  0.1061 -0.4767
14906TIP3    H166133   0.564   6.217   5.884  1.7521  0.6644 -0.6248
14906TIP3    H266134   0.686   6.175   5.962  0.5600 -1.0306  0.3758
14907TIP3   OH266135   0.624   5.949  15.032  0.2953  0.1791 -0.6836
14907TIP3    H166136   0.604   5.965  15.125 -0.7109  2.7164 -1.2710
14907TIP3    H266137   0.690   6.014  15.010 -0.3288  0.3963 -2.0278
14908TIP3   OH266138   3.642   1.775  15.361 -0.1466 -0.3491  0.4270
14908TIP3    H166139   3.601   1.847  15.315  2.0746  0.2398 -0.7859
14908TIP3    H266140   3.692   1.816  15.432  1.4242 -0.5988 -0.4895
14909TIP3   OH266141   4.796   3.900   0.651  0.5896  0.2891 -0.0778
14909TIP3    H166142   4.836   3.986   0.662 -0.0829  0.6268 -0.2188
14909TIP3    H266143   4.795   3.886   0.557  0.4150  0.2647 -0.0728
14910TIP3   OH266144   2.729   5.050  12.485 -0.6667  0.9685 -0.2655
14910TIP3    H166145   2.637   5.051  12.461 -0.6811  2.1943 -0.2329
14910TIP3    H266146   2.773   5.092  12.411 -0.0627 -0.0556 -0.5060
14911TIP3   OH266147   5.848   5.214  16.040 -0.3133  0.4370 -0.4437
14911TIP3    H166148   5.828   5.275  16.112  1.8684 -0.1267  0.7165
14911TIP3    H266149   5.894   5.268  15.975  0.1756  0.3755 -0.1516
14912TIP3   OH266150   1.948   5.215  12.808 -0.6908 -0.2797  0.4051
14912TIP3    H166151   1.855   5.192  12.812 -0.3125 -2.1255 -0.4248
14912TIP3    H266152   1.993   5.131  12.807  1.0244  0.5934  1.1020
14913TIP3   OH266153   3.256   5.679  14.908 -0.1255 -0.5171  0.0393
14913TIP3    H166154   3.339   5.727  14.906 -0.7810  0.6215 -0.7774
14913TIP3    H266155   3.257   5.625  14.828  0.2794 -1.3347  0.5769
14914TIP3   OH266156   3.090   6.357   3.687  0.8312  0.1273 -0.6338
14914TIP3    H166157   3.031   6.429   3.709 -0.8067 -0.9702 -1.3193
14914TIP3    H266158   3.120   6.378   3.598  0.5825  0.0991 -0.7240
14915TIP3   OH266159   1.516   2.330  12.803 -0.0238  0.1927 -0.1302
14915TIP3    H166160   1.459   2.358  12.731 -1.1481  1.7412  1.2760
14915TIP3    H266161   1.522   2.235  12.793  0.6521  0.4401 -2.7999
14916TIP3   OH266162   0.708   3.095   4.791 -0.6108  0.4576  0.0996
14916TIP3    H166163   0.692   3.112   4.699 -1.9990  1.2632  0.4591
14916TIP3    H266164   0.676   3.006   4.805 -1.3360  0.6994  0.0094
14917TIP3   OH266165   2.131   6.137   3.776 -0.1962  0.2147 -0.0143
14917TIP3    H166166   2.189   6.075   3.732 -0.1226 -1.6440  2.4998
14917TIP3    H266167   2.178   6.220   3.772  1.1527 -0.5385 -0.8179
14918TIP3   OH266168   2.974   0.034  17.152 -0.3464 -0.2144  0.1032
14918TIP3    H166169   3.028   0.017  17.229  0.2123  1.8907  0.2386
14918TIP3    H266170   3.037   0.040  17.080 -0.3561  1.8167  0.1925
14919TIP3   OH266171   3.376   4.143   0.122  0.2005  0.6772  0.7935
14919TIP3    H166172   3.465   4.111   0.136  0.1184  0.3922  0.6734
14919TIP3    H266173   3.364   4.137   0.027 -0.8128 -1.6316  1.0121
14920TIP3   OH266174   3.976   4.216   4.549 -0.0586 -0.0489  0.5587
14920TIP3    H166175   3.914   4.211   4.476 -0.1897  0.1464  0.6549
14920TIP3    H266176   4.051   4.163   4.521 -0.9246 -1.6124  1.1063
14921TIP3   OH266177   1.725   3.317   0.539 -0.7634 -0.7139  0.2638
14921TIP3    H166178   1.659   3.253   0.513 -1.0295 -0.0492 -0.7634
14921TIP3    H266179   1.691   3.401   0.508  1.0539 -0.4875 -1.3132
14922TIP3   OH266180   0.305   1.601   3.118  0.0420 -0.1972  0.0705
14922TIP3    H166181   0.230   1.555   3.081  0.4294 -1.0491  0.3241
14922TIP3    H266182   0.277   1.693   3.124 -0.6151 -0.3368 -0.7617
14923TIP3   OH266183   5.725   1.806  17.385  0.7572 -0.2818  0.4479
14923TIP3    H166184   5.757   1.858  17.458  1.4962 -0.9876  0.6463
14923TIP3    H266185   5.804   1.786  17.334  0.2310  0.3801 -0.6686
14924TIP3   OH266186   4.812   0.454  11.627 -0.2348  0.1500  0.3582
14924TIP3    H166187   4.848   0.526  11.678  0.2744  1.8612 -2.1882
14924TIP3    H266188   4.884   0.424  11.572 -1.3332  0.1831 -1.1870
14925TIP3   OH266189   2.755   3.772   0.574  0.3307 -0.1929  0.1114
14925TIP3    H166190   2.669   3.770   0.531  1.6220 -0.1311 -2.6602
14925TIP3    H266191   2.752   3.698   0.635 -1.2127 -1.0433 -0.9245
14926TIP3   OH266192   6.100   0.106   5.987  0.0767 -0.3630  0.4451
14926TIP3    H166193   6.188   0.091   5.952  0.1886 -0.8819  0.9411
14926TIP3    H266194   6.101   0.067   6.074 -0.5587 -0.1113  0.5750
14927TIP3   OH266195   3.307   1.665  14.658 -0.3222  0.0138  0.0723
14927TIP3    H166196   3.312   1.739  14.718 -0.2945  0.0389  0.0389
14927TIP3    H266197   3.398   1.645  14.637 -0.3220 -0.1406  0.2179
14928TIP3   OH266198   0.509   6.375   3.510 -0.1199  0.3192  0.0398
14928TIP3    H166199   0.540   6.460   3.543  1.4045  0.3911 -1.4223
14928TIP3    H266200   0.560   6.310   3.559  0.7506  0.3643 -0.7801
14929TIP3   OH266201   2.016   1.923  16.311  0.6120  0.1558 -0.2740
14929TIP3    H166202   1.958   1.920  16.387  2.0149  0.0689  0.8389
14929TIP3    H266203   1.968   1.876  16.243 -1.8240  2.4738 -0.3140
14930TIP3   OH266204   0.190   2.510  11.400  0.4390  0.1701 -0.0694
14930TIP3    H166205   0.282   2.491  11.417  0.2678 -0.8153 -0.1619
14930TIP3    H266206   0.192   2.578  11.332  1.1230 -1.0328 -1.3219
14931TIP3   OH266207   1.119   6.648   3.829  0.3599 -0.6520 -0.4151
14931TIP3    H166208   1.054   6.615   3.768 -1.0039 -0.5865  0.9353
14931TIP3    H266209   1.166   6.571   3.860 -2.5091 -1.4790  2.3878
14932TIP3   OH266210   2.655   1.889  17.527  0.0236 -0.3326 -0.2008
14932TIP3    H166211   2.729   1.829  17.536 -0.3579 -1.1358 -1.9799
14932TIP3    H266212   2.681   1.947  17.456 -0.3298  0.5451  0.3760
14933TIP3   OH266213   4.336   0.062  12.150  0.1961 -0.8087  0.0717
14933TIP3    H166214   4.354  -0.032  12.144 -0.8947 -1.1419  1.4354
14933TIP3    H266215   4.342   0.082  12.243  1.1467  0.6509 -0.2807
14934TIP3   OH266216   6.132   4.976  14.935 -0.2291  0.2665  0.7054
14934TIP3    H166217   6.216   5.021  14.947 -0.0700  0.0625  0.3623
14934TIP3    H266218   6.067   5.046  14.932  0.0396  0.4968 -0.0312
14935TIP3   OH266219   1.655   5.265   6.132  0.2920 -0.0042 -0.0963
14935TIP3    H166220   1.573   5.307   6.155  1.3939  1.1829  1.9181
14935TIP3    H266221   1.630   5.178   6.100 -1.6780 -0.2414  1.8813
14936TIP3   OH266222   2.886   1.919   4.262 -0.0858 -0.0639  0.6685
14936TIP3    H166223   2.933   1.836   4.272 -0.6480 -0.5454 -0.5259
14936TIP3    H266224   2.801   1.904   4.304 -0.6526 -0.5146 -0.6116
14937TIP3   OH266225   2.070   6.004  13.179 -0.0464  0.0137  0.6460
14937TIP3    H166226   2.136   6.068  13.154 -0.3260  1.0311  2.3428
14937TIP3    H266227   2.108   5.960  13.256 -1.3061  0.5935  1.6276
14938TIP3   OH266228   3.238   3.710   4.315 -0.7054  0.2896  0.7233
14938TIP3    H166229   3.154   3.668   4.295 -0.3726 -0.7778  1.4589
14938TIP3    H266230   3.278   3.652   4.379  1.3465 -0.1517 -0.8502
14939TIP3   OH266231   5.479   4.307   5.440 -0.1281 -0.3026 -0.2456
14939TIP3    H166232   5.455   4.216   5.461  3.0680 -0.5907  3.1215
14939TIP3    H266233   5.542   4.299   5.368 -2.0507 -0.3682 -2.0208
14940TIP3   OH266234   5.516   2.164   0.119 -0.2022 -0.2727  0.2009
14940TIP3    H166235   5.559   2.241   0.154 -2.0246  0.6209  0.5865
14940TIP3    H266236   5.454   2.197   0.054 -0.5168 -1.4726 -0.1506
14941TIP3   OH266237   1.278   4.637   3.663  0.0172 -0.3281 -0.2024
14941TIP3    H166238   1.254   4.613   3.574  0.7202  2.2457 -1.1695
14941TIP3    H266239   1.196   4.666   3.704  0.2232  2.2928 -1.4058
14942TIP3   OH266240   2.399   3.690   0.871  0.1396  0.2578 -0.3897
14942TIP3    H166241   2.358   3.764   0.914 -0.3311  0.7750 -1.6811
14942TIP3    H266242   2.346   3.675   0.793  2.0873  0.6422 -1.8685
14943TIP3   OH266243   2.470   0.844   3.517  0.3024 -0.5044 -0.0773
14943TIP3    H166244   2.565   0.832   3.517  0.6699  1.8376 -0.9976
14943TIP3    H266245   2.447   0.852   3.609  0.8134 -1.9919  0.2222
14944TIP3   OH266246   5.614   4.735   1.466 -0.1956  0.1309 -1.3759
14944TIP3    H166247   5.684   4.794   1.436 -1.6880  1.4718 -2.3901
14944TIP3    H266248   5.571   4.783   1.537  1.5432 -1.8530  1.1819
14945TIP3   OH266249   0.422   2.666  12.443 -0.5351 -0.0058 -0.0313
14945TIP3    H166250   0.354   2.725  12.410 -0.5931  0.1749  0.4040
14945TIP3    H266251   0.494   2.674  12.381 -1.4422 -1.2772 -1.3197
14946TIP3   OH266252   4.923   1.401  17.385 -0.4376  0.1005 -0.3548
14946TIP3    H166253   4.966   1.399  17.300 -2.9584  0.2166 -1.7218
14946TIP3    H266254   4.975   1.463  17.437  0.6535  0.6930 -2.0796
14947TIP3   OH266255   0.274   2.289   0.123 -0.1237  0.8348 -0.4766
14947TIP3    H166256   0.345   2.337   0.079  0.3844 -0.2237 -0.8468
14947TIP3    H266257   0.241   2.350   0.188  1.7053  1.0630  0.2914
14948TIP3   OH266258   1.456   3.528  17.164  0.1194 -0.8512 -0.2643
14948TIP3    H166259   1.526   3.540  17.229 -1.4432 -1.5492  1.6567
14948TIP3    H266260   1.384   3.491  17.214 -1.1820 -1.4267 -2.4553
14949TIP3   OH266261   1.425   0.565  16.912 -0.1347  0.1034 -0.1032
14949TIP3    H166262   1.497   0.534  16.857  0.5287  0.9027  0.2951
14949TIP3    H266263   1.445   0.657  16.929  0.3989 -0.3911  2.5302
14950TIP3   OH266264   6.315   1.107   0.269  0.1379  0.0731 -0.0226
14950TIP3    H166265   6.331   1.198   0.246 -0.8391 -0.3331 -2.6648
14950TIP3    H266266   6.299   1.108   0.364  2.3717  2.2581  0.4107
14951TIP3   OH266267   3.561   1.052   3.539  0.0033  0.2548 -0.2633
14951TIP3    H166268   3.500   1.067   3.466 -1.6122 -0.3071  0.9052
14951TIP3    H266269   3.510   1.073   3.617  1.7708  1.1146  0.7256
14952TIP3   OH266270   4.173   0.837   6.176 -0.5318 -0.8913  0.6484
14952TIP3    H166271   4.236   0.827   6.247 -1.0598 -2.3644  0.9538
14952TIP3    H266272   4.092   0.866   6.218 -0.2138  0.5125  0.3224
14953TIP3   OH266273   4.931   0.233  16.242  0.2861 -0.3259  0.5750
14953TIP3    H166274   4.890   0.210  16.326  1.5353 -2.1167  0.7613
14953TIP3    H266275   5.001   0.294  16.267 -0.1190  0.1251  0.6489
14954TIP3   OH266276   0.324   0.194  15.130  0.0569 -0.2347 -0.0485
14954TIP3    H166277   0.276   0.269  15.094  0.3352 -0.2779 -0.5172
14954TIP3    H266278   0.381   0.232  15.197  3.1988  0.6490 -2.9829
14955TIP3   OH266279   0.697   1.121   5.861  0.4985 -0.1306 -0.3360
14955TIP3    H166280   0.736   1.208   5.849  1.1524 -0.2534  0.6854
14955TIP3    H266281   0.611   1.138   5.898  0.0289  0.1127 -1.5002
14956TIP3   OH266282   3.372   0.422   2.303 -0.4891 -0.2567  0.1715
14956TIP3    H166283   3.394   0.467   2.385  0.9568 -1.5357  0.5346
14956TIP3    H266284   3.358   0.493   2.240  3.4273  0.8350  0.2543
14957TIP3   OH266285   2.106   1.267  15.378 -0.1024 -0.2661  0.1419
14957TIP3    H166286   2.112   1.184  15.330 -0.8421 -0.2869  0.0759
14957TIP3    H266287   2.083   1.332  15.311  2.1715  0.3392 -0.1382
14958TIP3   OH266288   1.658   5.142  16.875 -0.3823  0.1328 -0.4886
14958TIP3    H166289   1.632   5.197  16.949  1.5687  1.1063 -0.4583
14958TIP3    H266290   1.590   5.075  16.870 -1.7842  1.3883  0.7184
14959TIP3   OH266291   0.258   3.990   5.615 -0.2531 -0.3346 -0.2042
14959TIP3    H166292   0.302   4.026   5.693  0.8751 -0.6353 -0.6757
14959TIP3    H266293   0.183   3.941   5.650 -1.2811  1.6412  0.5116
14960TIP3   OH266294   3.676   3.833   0.109 -0.3325 -0.1048 -0.1561
14960TIP3    H166295   3.713   3.804   0.025 -0.1462 -0.0527 -0.0919
14960TIP3    H266296   3.669   3.753   0.161  1.6678  0.1579  0.6131
14961TIP3   OH266297   0.829   2.415  12.291 -0.2324 -0.1850 -0.3276
14961TIP3    H166298   0.841   2.350  12.360 -2.5765  0.5360  0.8646
14961TIP3    H266299   0.756   2.469  12.321 -1.2431  0.2839 -3.3127
14962TIP3   OH266300   4.101   1.163  15.338  0.0715 -0.4529 -0.1967
14962TIP3    H166301   4.178   1.178  15.283 -0.3052 -0.2178 -0.6678
14962TIP3    H266302   4.027   1.168  15.277 -0.6948  3.3938  0.8290
14963TIP3   OH266303   3.692   2.415   0.003  0.0419 -0.3798  0.2999
14963TIP3    H166304   3.669   2.508   0.000 -0.6491 -0.4620  1.9902
14963TIP3    H266305   3.785   2.413  -0.021  0.1265  0.7829  0.4462
14964TIP3   OH266306   0.715   4.172  13.681 -0.2636  0.5693  0.0576
14964TIP3    H166307   0.770   4.214  13.747 -1.4459  0.3042  1.2625
14964TIP3    H266308   0.770   4.102  13.645 -0.0583 -0.2467  1.8358
14965TIP3   OH266309   3.915   5.012   3.648 -0.0620  0.2863  0.0728
14965TIP3    H166310   3.949   5.042   3.732  0.0380  1.8780 -0.5117
14965TIP3    H266311   3.944   5.078   3.585 -0.0717 -0.9043 -1.2365
14966TIP3   OH266312   2.262   4.989   4.252 -0.0395 -0.6961 -0.0679
14966TIP3    H166313   2.171   4.990   4.222  0.5282 -1.2481 -1.9856
14966TIP3    H266314   2.278   5.078   4.284 -0.7865 -0.0699 -1.3290
14967TIP3   OH266315   2.035   0.658  12.397 -0.0519  0.0480 -0.5405
14967TIP3    H166316   2.083   0.699  12.325 -1.0371  0.0252 -1.2361
14967TIP3    H266317   1.973   0.599  12.354 -0.9211  0.3221  0.2923
14968TIP3   OH266318   3.691   1.111  16.296 -0.3950  0.1436 -0.2158
14968TIP3    H166319   3.727   1.043  16.353  1.5008  0.2240 -1.2507
14968TIP3    H266320   3.610   1.073  16.261 -0.4405 -0.7459  0.8000
14969TIP3   OH266321   4.588   0.330  13.745  0.1978  0.4726  0.0580
14969TIP3    H166322   4.659   0.395  13.741 -1.6370  2.6212 -4.1404
14969TIP3    H266323   4.613   0.264  13.680 -0.3255 -0.3181  0.6562
14970TIP3   OH266324   2.658   6.643   4.050 -0.0711 -0.2554  0.6042
14970TIP3    H166325   2.647   6.695   4.130  1.5235  0.4368  0.4084
14970TIP3    H266326   2.750   6.617   4.051 -0.3216 -1.2218 -0.4282
14971TIP3   OH266327   6.701   0.180  14.852 -0.9040  0.4868 -0.4386
14971TIP3    H166328   6.739   0.250  14.905 -1.5222  0.5169 -0.0174
14971TIP3    H266329   6.624   0.221  14.810 -1.3717  0.0231 -0.0474
14972TIP3   OH266330   5.307   2.846   4.380  0.0380 -0.1957 -0.5523
14972TIP3    H166331   5.368   2.772   4.378  0.5133  0.2061 -1.7868
14972TIP3    H266332   5.233   2.817   4.327 -0.9401 -0.7310  1.0483
14973TIP3   OH266333   1.137   1.455   2.505 -0.3510  0.2658 -0.0776
14973TIP3    H166334   1.068   1.390   2.489 -0.3452  0.6711 -2.0122
14973TIP3    H266335   1.137   1.467   2.600 -1.7817 -0.9973  0.1253
14974TIP3   OH266336   3.485   5.606   5.901 -0.3541 -0.2514  0.3655
14974TIP3    H166337   3.477   5.650   5.986 -0.8854 -0.5614  0.4795
14974TIP3    H266338   3.497   5.677   5.838 -1.6575  0.0985  0.4872
14975TIP3   OH266339   4.868   4.644   5.429  0.0075 -0.1567 -0.1492
14975TIP3    H166340   4.821   4.562   5.439 -0.2904 -0.1340 -1.2319
14975TIP3    H266341   4.824   4.688   5.356  2.0029 -0.3733 -1.5808
14976TIP3   OH266342   1.417   4.935  14.068  0.2481  0.2411 -0.7730
14976TIP3    H166343   1.475   4.861  14.048 -0.2163 -0.4272  0.2570
14976TIP3    H266344   1.404   4.978  13.984 -0.3876 -1.5051 -1.6308
14977TIP3   OH266345   4.480   0.195   1.234 -0.2683  0.3584  0.3492
14977TIP3    H166346   4.479   0.121   1.173 -1.6473  0.0729  0.6795
14977TIP3    H266347   4.485   0.273   1.178 -1.5129  0.0972 -0.1426
14978TIP3   OH266348   3.828   6.050   2.516  0.1266 -0.2030 -0.0704
14978TIP3    H166349   3.778   5.989   2.462  0.5490  0.2881 -1.0484
14978TIP3    H266350   3.919   6.021   2.507  0.4678  1.1134 -1.3620
14979TIP3   OH266351   2.690   2.881  11.831 -0.9276  0.1922 -0.1610
14979TIP3    H166352   2.739   2.826  11.770 -1.3143 -1.1609  0.7128
14979TIP3    H266353   2.598   2.859  11.813 -1.0195 -1.0362  1.6097
14980TIP3   OH266354   4.739   5.855   2.440  0.9245  0.1406  0.3347
14980TIP3    H166355   4.785   5.812   2.368 -0.7656  1.8662 -1.9192
14980TIP3    H266356   4.648   5.829   2.430  0.4489  1.3873  1.0921
14981TIP3   OH266357   1.034   4.835  12.356  0.3979 -0.4515 -0.1770
14981TIP3    H166358   1.027   4.930  12.361 -0.2419 -0.5068  0.0509
14981TIP3    H266359   1.099   4.819  12.287  0.6286  0.1459 -0.1057
14982TIP3   OH266360   3.775   1.504   4.234  0.6604 -0.1120 -0.0445
14982TIP3    H166361   3.740   1.572   4.177  1.9817 -0.8288 -1.8071
14982TIP3    H266362   3.820   1.553   4.303  0.4383  0.8081 -0.5313
14983TIP3   OH266363   2.033   2.894  13.068  0.0366 -0.0829  0.3440
14983TIP3    H166364   2.118   2.861  13.097  1.5214  0.5593 -2.9128
14983TIP3    H266365   2.041   2.904  12.974 -2.8760  2.3135  0.1871
14984TIP3   OH266366   2.936   4.720   3.245  0.2132 -0.0241  0.0815
14984TIP3    H166367   2.949   4.715   3.150  1.0560 -1.6683  0.2489
14984TIP3    H266368   3.024   4.727   3.281  0.0823 -1.6034  0.8133
14985TIP3   OH266369   1.499   2.492  16.570 -0.2487  0.1055  0.2112
14985TIP3    H166370   1.410   2.459  16.554 -1.1092  1.4302  1.9840
14985TIP3    H266371   1.512   2.482  16.664  0.5874  2.0670  0.3378
14986TIP3   OH266372   6.151   5.849  10.743 -0.3703 -0.5896  0.1758
14986TIP3    H166373   6.130   5.941  10.759  1.2111 -0.2201  0.2581
14986TIP3    H266374   6.188   5.818  10.825  1.1227 -0.6795 -0.5005
14987TIP3   OH266375   6.212   4.928   2.888  0.0289  0.1630 -0.1805
14987TIP3    H166376   6.123   4.923   2.924 -0.3711  1.9813 -0.7929
14987TIP3    H266377   6.217   4.854   2.828  0.9786 -3.4960  3.8768
14988TIP3   OH266378   1.531   5.866   0.511 -0.0137  0.3147 -0.0783
14988TIP3    H166379   1.466   5.881   0.443  0.6957  0.8626 -0.6416
14988TIP3    H266380   1.505   5.783   0.551 -0.3885 -0.0532 -1.0687
14989TIP3   OH266381   3.105   3.137  11.129 -0.0382 -0.3020  0.2956
14989TIP3    H166382   3.086   3.228  11.109 -0.4751 -0.6563 -1.0131
14989TIP3    H266383   3.021   3.101  11.159 -0.1226 -0.5129 -0.1779
14990TIP3   OH266384   4.139   5.692  10.748 -0.1177 -0.2212  0.1680
14990TIP3    H166385   4.079   5.619  10.764  1.9759 -1.9937  0.4172
14990TIP3    H266386   4.227   5.653  10.754  1.2123  2.7165  2.4973
14991TIP3   OH266387   6.169   5.899  14.343 -0.0661 -0.3199 -0.2426
14991TIP3    H166388   6.186   5.986  14.381 -1.4003  0.9854 -2.3969
14991TIP3    H266389   6.150   5.917  14.251 -1.7468 -2.7662 -0.4615
14992TIP3   OH266390   1.547   4.681  17.055  0.3996 -0.9245 -0.1463
14992TIP3    H166391   1.493   4.657  17.130  1.8026  0.9199  1.5523
14992TIP3    H266392   1.484   4.707  16.988 -0.8778 -2.3729  0.4226
14993TIP3   OH266393   4.144   3.065  11.166  0.5152  0.3288  0.3298
14993TIP3    H166394   4.143   3.159  11.180 -1.6346  0.5814 -1.1763
14993TIP3    H266395   4.231   3.047  11.130  0.6229  1.8729 -0.2317
14994TIP3   OH266396   4.521   0.312   5.018 -0.3900 -0.4391  0.1081
14994TIP3    H166397   4.564   0.393   4.990 -0.6772 -0.2969  0.0739
14994TIP3    H266398   4.490   0.272   4.937 -0.5022 -0.4377  0.1497
14995TIP3   OH266399   5.671   0.899  14.948 -0.2182  0.5260 -0.3055
14995TIP3    H166400   5.758   0.892  14.986 -0.1399  1.4121 -0.2970
14995TIP3    H266401   5.611   0.888  15.023 -0.1060  0.1981 -0.2652
14996TIP3   OH266402   5.041   3.812  14.940  0.2472 -0.0874 -0.0530
14996TIP3    H166403   5.137   3.812  14.943  0.2306  1.2306  1.5483
14996TIP3    H266404   5.020   3.751  14.869  2.2519 -0.6901 -0.2012
14997TIP3   OH266405   0.659   5.379  14.473  0.4072 -0.3473  0.8310
14997TIP3    H166406   0.611   5.444  14.524  1.1327  0.5777  0.3671
14997TIP3    H266407   0.750   5.390  14.499  0.9275  0.7561 -1.2479
14998TIP3   OH266408   3.166   1.535   3.637 -0.2670  0.1462 -0.4110
14998TIP3    H166409   3.078   1.504   3.616 -0.1166 -2.1084  1.8532
14998TIP3    H266410   3.223   1.483   3.581 -0.2907  1.5644 -1.8333
14999TIP3   OH266411   5.811   6.488   0.161 -0.1888  0.4533 -0.0715
14999TIP3    H166412   5.791   6.411   0.215  2.4442  1.2544  2.2745
14999TIP3    H266413   5.878   6.458   0.100  0.7034  0.7669  0.7210
15000TIP3   OH266414   4.598   4.849  12.366 -0.1077  0.2284 -0.4281
15000TIP3    H166415   4.606   4.914  12.436 -0.2227  0.5745 -0.7364
15000TIP3    H266416   4.530   4.789  12.397  1.4535 -0.9918  0.8304
15001TIP3   OH266417   6.127   6.229   1.612  0.4592 -0.2780  0.4747
15001TIP3    H166418   6.181   6.299   1.649  2.0775 -0.7463 -0.8861
15001TIP3    H266419   6.182   6.150   1.619 -0.6130 -1.0575  0.3173
15002TIP3   OH266420   2.540   5.706  16.411  0.3122  0.0882  0.1240
15002TIP3    H166421   2.576   5.717  16.499  0.8404  0.3925 -0.1250
15002TIP3    H266422   2.564   5.617  16.386  0.1131 -0.0169  0.3126
15003TIP3   OH266423   0.989   5.638   5.653 -0.5489  0.1200  0.3431
15003TIP3    H166424   0.994   5.630   5.748 -1.8794  0.4811  0.4564
15003TIP3    H266425   0.982   5.732   5.637  0.0259  0.0889 -0.1435
15004TIP3   OH266426   1.741   1.281   1.336 -0.8633 -0.1545  0.0974
15004TIP3    H166427   1.684   1.259   1.410 -0.9521 -2.3562 -0.5531
15004TIP3    H266428   1.684   1.329   1.276 -1.0200  0.8986  1.0553
15005TIP3   OH266429   4.318   3.898   3.725 -0.3144  0.2594  0.2953
15005TIP3    H166430   4.380   3.929   3.658 -0.5955  1.5752  0.6210
15005TIP3    H266431   4.373   3.858   3.792  0.1572  0.9902  0.3557
15006TIP3   OH266432   3.654   3.077  15.069  0.0557 -0.3386 -0.9154
15006TIP3    H166433   3.718   3.019  15.028  1.1459 -0.4550  0.8500
15006TIP3    H266434   3.596   3.018  15.117 -0.5868 -0.1501 -1.4646
15007TIP3   OH266435   3.660   3.770   1.489  1.2381 -0.6877 -0.0549
15007TIP3    H166436   3.649   3.696   1.548  0.4467 -0.5831 -0.0701
15007TIP3    H266437   3.735   3.746   1.434  1.5222 -1.0980  0.5050
15008TIP3   OH266438   2.294   3.691   0.025 -0.4155  0.2044  0.1353
15008TIP3    H166439   2.271   3.707   0.117 -2.4295 -0.2408 -0.2449
15008TIP3    H266440   2.352   3.764   0.002  2.0264 -0.8801  2.3449
15009TIP3   OH266441   3.731   1.020  16.713 -0.2594  0.1661  0.3931
15009TIP3    H166442   3.706   1.073  16.789 -0.7794 -0.9789  1.0391
15009TIP3    H266443   3.688   0.936  16.727  0.5904 -0.4526 -0.5937
15010TIP3   OH266444   1.762   0.636   2.065 -0.4848  0.6301 -0.3037
15010TIP3    H166445   1.803   0.677   1.989 -3.1717  2.8977 -0.7217
15010TIP3    H266446   1.726   0.554   2.031 -0.8506  1.1732 -1.2744
15011TIP3   OH266447   0.235   6.234  16.555 -0.4823 -0.1099 -0.0855
15011TIP3    H166448   0.302   6.191  16.503 -1.9153  0.7303 -2.8594
15011TIP3    H266449   0.271   6.320  16.575  0.6773 -0.9660  1.7368
15012TIP3   OH266450   6.037   0.062  17.626 -0.1700 -0.1049  0.1409
15012TIP3    H166451   5.941   0.056  17.618 -0.3305 -1.3142  2.2581
15012TIP3    H266452   6.053   0.153  17.652 -0.2487  1.4956 -4.5618
15013TIP3   OH266453   2.563   2.491   3.599 -0.2263  0.2030 -0.3311
15013TIP3    H166454   2.579   2.418   3.659  0.9760  0.8213  0.1324
15013TIP3    H266455   2.609   2.467   3.519 -0.7580 -0.0357 -0.5724
15014TIP3   OH266456   5.534   4.597  15.897  0.3323  0.6982 -0.2758
15014TIP3    H166457   5.549   4.580  15.804 -0.1844  2.6843 -0.7663
15014TIP3    H266458   5.571   4.683  15.912 -0.1020  0.6470  1.2326
15015TIP3   OH266459   2.620   5.529  12.550  0.3633  0.0423  0.0822
15015TIP3    H166460   2.714   5.532  12.534  0.2254  0.7859 -0.7473
15015TIP3    H266461   2.595   5.621  12.558 -0.0169 -0.2099  2.1627
15016TIP3   OH266462   4.760   0.115   0.694 -0.2665  0.1766  0.6511
15016TIP3    H166463   4.821   0.188   0.697  0.5714 -0.4309 -0.5973
15016TIP3    H266464   4.815   0.038   0.679 -0.9373 -1.0051  3.5778
15017TIP3   OH266465   5.868   5.910  16.919  0.5654  0.2564 -0.2463
15017TIP3    H166466   5.843   6.002  16.916 -1.4937 -0.2607 -0.8172
15017TIP3    H266467   5.862   5.881  16.828  1.2774 -0.4221 -0.0842
15018TIP3   OH266468   5.763   3.346   0.129 -0.0175  0.2499  0.2518
15018TIP3    H166469   5.782   3.269   0.076  2.0084 -0.6253  2.0914
15018TIP3    H266470   5.849   3.378   0.156 -0.9041  1.8946  1.3030
15019TIP3   OH266471   4.443   5.032  16.811  0.5901 -0.1184  0.3877
15019TIP3    H166472   4.460   4.952  16.861  2.3361 -0.0947 -0.0858
15019TIP3    H266473   4.431   5.001  16.721 -0.9156 -0.0184  0.5358
15020TIP3   OH266474   6.515   0.514  13.192 -0.8663 -0.3645  0.5464
15020TIP3    H166475   6.558   0.505  13.277 -0.7866  1.7118  0.7669
15020TIP3    H266476   6.516   0.425  13.156  0.9370 -0.9257  1.8176
15021TIP3   OH266477   6.242   2.546  11.428 -0.0268 -0.2151 -0.0922
15021TIP3    H166478   6.171   2.496  11.390 -0.6447 -0.1063  0.8728
15021TIP3    H266479   6.247   2.626  11.376 -1.6223  0.4608  0.7135
15022TIP3   OH266480   4.687   3.607  11.745 -0.4467 -0.3741  0.1092
15022TIP3    H166481   4.643   3.651  11.818 -0.3630 -0.0663 -0.0258
15022TIP3    H266482   4.619   3.550  11.708 -0.3748 -0.8421  0.6796
15023TIP3   OH266483   1.648   0.795  12.057  0.0388 -0.4220  0.3961
15023TIP3    H166484   1.678   0.805  12.147 -1.0393 -0.6666  0.7988
15023TIP3    H266485   1.607   0.879  12.035  1.0740 -0.0456 -0.1924
15024TIP3   OH266486   4.304   2.486  17.624 -0.3154  0.0183 -0.3761
15024TIP3    H166487   4.275   2.557  17.567  0.9243  1.5629  0.8037
15024TIP3    H266488   4.365   2.435  17.571  0.8237  1.4291 -0.4692
15025TIP3   OH266489   3.877   4.987  14.202 -0.6234 -0.0370  0.4948
15025TIP3    H166490   3.874   5.077  14.235  3.0590  0.5565 -0.2656
15025TIP3    H266491   3.849   4.933  14.276 -0.2569  1.6099  1.9074
15026TIP3   OH266492   3.123   3.015  11.636  0.4482  0.2377 -0.3646
15026TIP3    H166493   3.033   3.004  11.607  0.8434  0.8138 -1.8830
15026TIP3    H266494   3.142   2.936  11.687 -0.4380 -0.6048 -1.3031
15027TIP3   OH266495   2.125   6.002   5.582 -0.0032 -0.5148  0.0859
15027TIP3    H166496   2.162   6.090   5.574  1.7109 -1.1998 -0.0785
15027TIP3    H266497   2.171   5.964   5.657  0.0481 -1.5976 -0.4700
15028TIP3   OH266498   3.255   2.374   6.516  0.7404 -0.3495  0.6116
15028TIP3    H166499   3.198   2.435   6.562  1.0076 -0.7990  1.5662
15028TIP3    H266500   3.332   2.426   6.492 -0.6554  0.6665 -2.0557
15029TIP3   OH266501   1.890   4.619   1.597 -0.2149  0.6332  0.1892
15029TIP3    H166502   1.982   4.643   1.586 -0.5528  1.4015 -1.2791
15029TIP3    H266503   1.891   4.524   1.611  0.8298  0.7282  0.8723
15030TIP3   OH266504   0.045   1.005   0.088  0.5343 -0.4795  0.5026
15030TIP3    H166505   0.073   0.951   0.162 -3.5491  0.0879  2.7224
15030TIP3    H266506  -0.017   0.950   0.040  1.5590 -0.0873 -1.3689
15031TIP3   OH266507   5.745   1.837  14.092  0.1958 -0.0698 -0.1801
15031TIP3    H166508   5.759   1.767  14.155  0.8138 -0.1966 -0.4494
15031TIP3    H266509   5.700   1.795  14.018  2.7226 -0.7915 -1.4341
15032TIP3   OH266510   0.724   5.203  17.449  0.3844 -0.6664  0.3573
15032TIP3    H166511   0.758   5.117  17.475  0.1280 -0.4797  1.3314
15032TIP3    H266512   0.704   5.193  17.356 -0.2116 -1.8586  0.5924
15033TIP3   OH266513   3.787   0.102  15.849  0.1433  0.0303  0.0051
15033TIP3    H166514   3.763   0.161  15.921 -0.0459 -1.0387  0.8368
15033TIP3    H266515   3.849   0.040  15.888 -1.7582 -2.0403 -0.0889
15034TIP3   OH266516   3.406   6.434   0.885  0.3426  0.1834 -0.0067
15034TIP3    H166517   3.458   6.380   0.825 -0.2188  0.7849 -1.0580
15034TIP3    H266518   3.345   6.480   0.828  0.3041  1.3552  0.9614
15035TIP3   OH266519   5.588   1.843   2.903  0.1044  0.4922 -0.5393
15035TIP3    H166520   5.500   1.815   2.930  0.4220  1.8788  2.2125
15035TIP3    H266521   5.614   1.907   2.969  3.5966 -0.5688 -0.7285
15036TIP3   OH266522   1.089   4.216  11.805 -0.0608 -0.5215  0.2376
15036TIP3    H166523   1.153   4.175  11.864 -0.3591 -0.7983  0.3773
15036TIP3    H266524   1.007   4.170  11.824 -0.5420  0.5387  0.8193
15037TIP3   OH266525   1.940   3.176   2.958  0.3921  0.5104 -0.0765
15037TIP3    H166526   1.958   3.252   3.014  0.7936  0.0212  0.4690
15037TIP3    H266527   1.869   3.205   2.901  0.7535  1.4030 -0.0893
15038TIP3   OH266528   3.789   1.196   2.914  0.1148 -0.9318  0.3430
15038TIP3    H166529   3.874   1.153   2.912  0.2050 -0.7195 -0.7958
15038TIP3    H266530   3.800   1.274   2.860 -0.7555 -0.8172  0.3149
15039TIP3   OH266531   5.726   3.674   4.172  0.1255 -0.4893 -0.0295
15039TIP3    H166532   5.740   3.580   4.164 -0.5104 -0.5016 -1.4124
15039TIP3    H266533   5.634   3.686   4.146  0.0489  0.4534  0.6464
15040TIP3   OH266534   5.352   1.286  14.505  0.4855  0.0161 -0.0204
15040TIP3    H166535   5.441   1.291  14.539  0.9813 -0.0338 -1.2326
15040TIP3    H266536   5.319   1.375  14.511  0.2903 -0.1243  1.2263
15041TIP3   OH266537   5.945   1.130   0.741  0.1589  0.3807  0.0159
15041TIP3    H166538   5.935   1.163   0.830 -1.8730  2.7997 -0.9708
15041TIP3    H266539   5.921   1.204   0.685  0.9942 -1.1504 -2.5651
15042TIP3   OH266540   5.101   2.005  17.188  0.1502 -0.1207  0.0553
15042TIP3    H166541   5.030   2.065  17.211 -0.1554 -0.7954  0.9136
15042TIP3    H266542   5.059   1.935  17.139  0.0843 -0.8829  1.1644
15043TIP3   OH266543   0.216   1.663  12.235  0.2246  0.4264 -0.3908
15043TIP3    H166544   0.302   1.695  12.263 -0.1655  0.8697  0.3539
15043TIP3    H266545   0.154   1.726  12.272 -0.3444  0.9288 -2.1473
15044TIP3   OH266546   2.090   6.442   1.088  0.5083  0.0468 -0.4021
15044TIP3    H166547   2.049   6.493   1.017 -1.2569  0.0893  0.5917
15044TIP3    H266548   2.041   6.467   1.166 -1.3543 -4.0714 -0.0361
15045TIP3   OH266549   6.327   1.125   6.042 -0.3184 -0.0326 -0.5315
15045TIP3    H166550   6.281   1.198   6.001  0.1468  0.2746 -0.5082
15045TIP3    H266551   6.403   1.165   6.084 -0.2596 -0.4806 -0.2069
15046TIP3   OH266552   1.464   6.551  16.953 -0.2612  0.0067  0.0560
15046TIP3    H166553   1.396   6.512  17.008  0.4661 -0.2718  0.7610
15046TIP3    H266554   1.529   6.584  17.014  0.9547 -1.0185 -0.6583
15047TIP3   OH266555   0.931   1.292   2.831  0.6645 -0.4303  0.0411
15047TIP3    H166556   0.941   1.216   2.774 -0.5752 -0.2772 -0.4094
15047TIP3    H266557   1.008   1.290   2.888  2.5423 -0.0327 -2.2834
15048TIP3   OH266558   0.581   1.712  13.256 -0.0518  0.4404  1.4170
15048TIP3    H166559   0.537   1.796  13.239 -1.1103 -0.4189 -0.4030
15048TIP3    H266560   0.531   1.673  13.328 -0.9765  0.4178  0.7804
15049TIP3   OH266561   2.764   3.229  11.720  0.1294 -0.1091 -0.2861
15049TIP3    H166562   2.783   3.153  11.666 -1.6593  0.1019 -1.2911
15049TIP3    H266563   2.808   3.302  11.676 -0.5475 -0.0950 -0.9506
15050TIP3   OH266564   3.898   3.916   5.475  0.1661  0.0490 -0.0983
15050TIP3    H166565   3.861   4.002   5.456 -0.0322 -0.0700 -0.2489
15050TIP3    H266566   3.918   3.878   5.390 -1.3485 -0.7546 -0.1174
15051TIP3   OH266567   5.774   5.054   1.774  0.2274 -0.2112  0.1762
15051TIP3    H166568   5.703   5.112   1.747  0.1763  0.0894  0.9316
15051TIP3    H266569   5.813   5.098   1.850  0.0694 -1.2680  0.8867
15052TIP3   OH266570   3.802   6.670   1.934  0.2946  0.3080 -0.3984
15052TIP3    H166571   3.897   6.673   1.919  0.1857  0.7624 -1.0149
15052TIP3    H266572   3.778   6.579   1.914  0.8154 -0.2102  1.1701
15053TIP3   OH266573   2.678   5.330  13.666 -0.1803 -0.2855  0.0132
15053TIP3    H166574   2.611   5.266  13.642  0.4442 -0.8821 -0.1610
15053TIP3    H266575   2.702   5.372  13.583 -2.2547  1.9005  0.3755
15054TIP3   OH266576   4.268   4.880   3.702 -0.2245 -0.2355  0.0327
15054TIP3    H166577   4.278   4.959   3.648 -2.1193 -0.5557 -0.8846
15054TIP3    H266578   4.314   4.812   3.653  1.5938  0.2925  0.9283
15055TIP3   OH266579   4.814   3.020  16.559 -0.0547  0.1100 -0.3288
15055TIP3    H166580   4.872   2.966  16.505 -1.3006  1.0879 -2.8074
15055TIP3    H266581   4.873   3.066  16.618  1.1839 -2.6038  0.6912
15056TIP3   OH266582   4.143   2.192   5.780  0.3456  0.2801  0.5374
15056TIP3    H166583   4.109   2.130   5.845  1.0289  1.2049  1.8338
15056TIP3    H266584   4.237   2.174   5.777  0.5925  1.3667  1.1032
15057TIP3   OH266585   5.935   5.464   4.201  0.0847 -0.4270  0.2913
15057TIP3    H166586   5.956   5.380   4.161  1.6735  0.4952 -0.8986
15057TIP3    H266587   5.845   5.483   4.172  0.8496 -0.2241 -2.1404
15058TIP3   OH266588   6.223   2.383   1.701  0.2634 -0.0104  0.1400
15058TIP3    H166589   6.288   2.318   1.726  0.2517  0.4284  1.3676
15058TIP3    H266590   6.141   2.350   1.737  0.2197  0.5822  0.5954
15059TIP3   OH266591   6.560   0.954  13.821 -0.0410 -0.0873  0.1226
15059TIP3    H166592   6.464   0.953  13.831 -0.1632 -1.5953 -0.7918
15059TIP3    H266593   6.593   0.982  13.906 -1.2927  0.3900  0.4746
15060TIP3   OH266594   2.002   4.286   0.972 -0.4786  0.1282  0.0495
15060TIP3    H166595   1.944   4.213   0.951  0.2853 -0.6477  0.5650
15060TIP3    H266596   2.046   4.259   1.053  2.4291 -0.4581 -1.5601
15061TIP3   OH266597   6.152   5.215   3.892  0.1939 -0.0037  0.3992
15061TIP3    H166598   6.217   5.166   3.843 -1.8024  0.4009 -2.9939
15061TIP3    H266599   6.082   5.152   3.910 -0.1124  0.4115  0.6927
15062TIP3   OH266600   4.256   3.934  16.060  0.0015 -0.1242  0.0946
15062TIP3    H166601   4.161   3.943  16.057  0.1195  1.1790 -0.6026
15062TIP3    H266602   4.281   3.971  16.145 -0.2440 -2.3284  1.1963
15063TIP3   OH266603   5.246   1.094  15.484 -0.3792  0.0594 -0.2625
15063TIP3    H166604   5.237   1.135  15.397  1.7175  0.4902 -0.3369
15063TIP3    H266605   5.240   1.167  15.545  0.1030  0.0505 -0.1953
15064TIP3   OH266606   4.011   2.630  16.152  0.6375 -0.3249  0.3007
15064TIP3    H166607   4.024   2.555  16.209 -1.1815 -0.8347  0.1279
15064TIP3    H266608   3.938   2.678  16.192  0.6203  0.3713 -0.5286
15065TIP3   OH266609   3.475   6.391  16.169  0.0673 -0.2880 -0.5877
15065TIP3    H166610   3.553   6.336  16.177 -0.5532 -0.9660  1.3806
15065TIP3    H266611   3.506   6.472  16.129  2.1007  0.0371  1.4694
15066TIP3   OH266612   2.599   5.468   0.348 -0.3662 -0.0487 -0.3282
15066TIP3    H166613   2.512   5.500   0.324 -0.2323 -0.9060 -2.1719
15066TIP3    H266614   2.649   5.547   0.368 -1.1111  0.5878 -0.8865
15067TIP3   OH266615   0.597   2.515  13.787  0.0784  0.0776  0.2048
15067TIP3    H166616   0.521   2.458  13.780  0.4647 -0.6580  1.5580
15067TIP3    H266617   0.641   2.508  13.703  0.4103 -2.0822  0.5035
15068TIP3   OH266618   2.597   5.619   4.020  0.0965 -0.4877  0.5905
15068TIP3    H166619   2.550   5.664   4.090  0.1191  0.5854 -0.0503
15068TIP3    H266620   2.688   5.617   4.049 -0.1774 -1.8011  1.4476
15069TIP3   OH266621   1.945   5.299   6.462 -0.0251  0.0805 -0.0676
15069TIP3    H166622   1.938   5.206   6.439 -0.4399 -0.1717  1.0399
15069TIP3    H266623   1.859   5.336   6.440  0.6502  0.5852 -2.0523
15070TIP3   OH266624   1.046   0.542  12.861 -0.3947 -0.5290  0.0250
15070TIP3    H166625   1.041   0.590  12.944 -1.1516 -2.0649  0.9222
15070TIP3    H266626   1.086   0.604  12.800  0.5948  0.5166  1.6329
15071TIP3   OH266627   5.773   6.280   5.903  0.0832 -0.4474  0.6669
15071TIP3    H166628   5.783   6.258   5.810 -3.1837 -0.9806  0.3105
15071TIP3    H266629   5.755   6.374   5.903 -0.1134 -0.4841  0.7182
15072TIP3   OH266630   0.932   3.384   1.992 -0.0790 -0.4527  0.1813
15072TIP3    H166631   0.956   3.368   1.901  2.1719 -0.0848  0.6705
15072TIP3    H266632   0.929   3.479   1.999  0.8115 -0.4581  0.7301
15073TIP3   OH266633   1.722   4.944   2.596 -0.3986  0.5593 -0.1306
15073TIP3    H166634   1.654   5.011   2.605 -1.0560 -0.1700  0.5222
15073TIP3    H266635   1.765   4.943   2.681 -0.0323  0.5303 -0.3177
15074TIP3   OH266636   0.717   6.600  14.733 -0.7128 -0.5528  0.0884
15074TIP3    H166637   0.797   6.652  14.721 -0.7822 -0.0956  1.4938
15074TIP3    H266638   0.646   6.662  14.719 -0.7972 -0.3352  1.3729
15075TIP3   OH266639   3.128   1.864   1.237 -0.0694 -0.3580 -0.4440
15075TIP3    H166640   3.124   1.776   1.199  0.4691 -1.1900  1.3534
15075TIP3    H266641   3.221   1.888   1.229  0.0849 -0.6186  0.4797
15076TIP3   OH266642   0.919   1.502  15.765  0.7339  0.3450  0.3687
15076TIP3    H166643   0.855   1.431  15.758 -0.4093  1.2472  1.1427
15076TIP3    H266644   0.866   1.581  15.765  2.0018  1.2283 -0.6987
15077TIP3   OH266645   6.094   2.897  14.026  0.1025 -0.3924 -0.2231
15077TIP3    H166646   6.091   2.814  14.075 -3.7363 -0.5801 -0.5019
15077TIP3    H266647   6.129   2.960  14.089 -2.1361 -1.1806  1.9528
15078TIP3   OH266648   4.930   0.750   0.647 -0.1093 -0.2933  0.4032
15078TIP3    H166649   4.851   0.785   0.687  1.6467  2.2769  1.8522
15078TIP3    H266650   4.916   0.759   0.553 -1.8113 -0.6281  0.6036
15079TIP3   OH266651   1.231   0.577  14.088  0.0039  1.1790 -0.0188
15079TIP3    H166652   1.293   0.640  14.123  0.6377 -0.0829  1.2164
15079TIP3    H266653   1.150   0.593  14.137 -0.1105  1.6143 -0.3444
15080TIP3   OH266654   4.697   4.370  16.983  0.2286 -0.1346 -0.0557
15080TIP3    H166655   4.779   4.325  17.005 -1.4354 -2.5824  1.7475
15080TIP3    H266656   4.639   4.300  16.953 -1.3075  1.4789 -1.0074
15081TIP3   OH266657   0.244   6.672   5.539 -0.0414 -0.1222  0.1990
15081TIP3    H166658   0.207   6.587   5.564  2.9335 -1.4066  0.7246
15081TIP3    H266659   0.270   6.661   5.448 -0.3944  0.5214  0.0191
15082TIP3   OH266660   3.774   4.999  14.486 -0.4459  0.2438  0.0777
15082TIP3    H166661   3.686   5.034  14.494 -1.1654 -0.6314 -2.7429
15082TIP3    H266662   3.825   5.045  14.552 -2.9088  1.0275  1.5573
15083TIP3   OH266663   2.899   1.227   3.823  0.6832 -0.0555  0.1070
15083TIP3    H166664   2.810   1.210   3.854  1.3328 -1.7380  1.2335
15083TIP3    H266665   2.889   1.252   3.732 -0.9590  0.0714  0.2930
15084TIP3   OH266666   2.884   1.799  17.445 -0.3240  0.1774 -0.2596
15084TIP3    H166667   2.918   1.778  17.532  1.6236 -0.1402 -1.0326
15084TIP3    H266668   2.931   1.879  17.420 -1.3220  0.6190 -0.7836
15085TIP3   OH266669   6.659   0.062   5.147  0.1460  0.3308  0.3517
15085TIP3    H166670   6.656   0.079   5.242 -0.5568 -3.1178  1.0830
15085TIP3    H266671   6.568   0.071   5.118 -0.3401 -2.2619  0.8642
15086TIP3   OH266672   0.655   2.969   5.084  0.3239 -0.0483  0.7982
15086TIP3    H166673   0.657   2.951   4.990 -0.2119  0.1533  0.7427
15086TIP3    H266674   0.677   3.062   5.091 -0.5386  0.1701  0.7901
15087TIP3   OH266675   2.068   4.931   3.089  0.1707 -0.0232  0.3743
15087TIP3    H166676   2.061   4.989   3.013 -0.0438  1.8548  1.7528
15087TIP3    H266677   1.978   4.925   3.122  0.2924 -0.6843  0.5914
15088TIP3   OH266678   2.236   4.797   6.167 -0.3134  0.6882  0.2481
15088TIP3    H166679   2.217   4.890   6.156 -1.1510  0.4182 -0.6679
15088TIP3    H266680   2.191   4.773   6.248  0.4332  1.2039  0.8364
15089TIP3   OH266681   3.287   5.582  17.588 -0.5751 -0.2949  0.4524
15089TIP3    H166682   3.201   5.553  17.557 -0.3608 -0.5374  0.0701
15089TIP3    H266683   3.324   5.504  17.631  0.7491 -1.2215 -2.1441
15090TIP3   OH266684   2.993   6.082   5.510  0.1643  0.1306 -0.3062
15090TIP3    H166685   2.903   6.116   5.513  1.0793  2.8104 -0.0715
15090TIP3    H266686   2.987   6.004   5.455 -2.3523  0.0499 -0.0325
15091TIP3   OH266687   3.802   1.628  14.931  0.4806  0.1817 -0.2055
15091TIP3    H166688   3.893   1.603  14.950  0.9896  1.5276 -0.7089
15091TIP3    H266689   3.803   1.724  14.933 -1.0584  0.2043  0.2916
15092TIP3   OH266690   0.547   0.563   2.187 -0.3422  0.2264  0.1718
15092TIP3    H166691   0.581   0.589   2.101 -0.2410  0.5016  0.2932
15092TIP3    H266692   0.625   0.544   2.239 -0.3596  0.9148  0.4690
15093TIP3   OH266693   0.986   3.520  12.860  0.1729 -0.0141  0.2343
15093TIP3    H166694   1.049   3.449  12.850 -0.6685 -0.5772 -1.6685
15093TIP3    H266695   1.035   3.590  12.902  2.1347 -0.3531 -1.3378
15094TIP3   OH266696   2.099   5.102  17.373  0.0172  0.3142 -0.1302
15094TIP3    H166697   2.100   5.081  17.466  1.7725  2.3220  0.3658
15094TIP3    H266698   2.012   5.137  17.357 -0.7495 -1.2367  0.4075
15095TIP3   OH266699   4.529   0.432   3.808 -0.2256  0.0221  0.5443
15095TIP3    H166700   4.624   0.439   3.798 -0.2177  0.8590  1.0868
15095TIP3    H266701   4.496   0.416   3.720  0.4925 -1.3007  0.4890
15096TIP3   OH266702   3.882   2.694  14.837 -0.4459 -0.1090  0.1030
15096TIP3    H166703   3.796   2.657  14.856  0.0082 -0.6392  1.1686
15096TIP3    H266704   3.868   2.789  14.839 -0.8519 -0.1756  1.0762
15097TIP3   OH266705   0.901   6.183  12.875  0.5265 -0.2114 -0.1015
15097TIP3    H166706   0.906   6.090  12.850 -1.1251 -0.4133  0.1648
15097TIP3    H266707   0.976   6.223  12.834  0.9268 -1.5654 -0.7571
15098TIP3   OH266708   1.947   4.113  15.783  0.1537  0.0318 -0.5086
15098TIP3    H166709   1.951   4.160  15.700  1.4576  3.7531  1.4588
15098TIP3    H266710   2.038   4.093  15.804 -0.2623 -2.1707 -0.5182
15099TIP3   OH266711   3.970   2.265  15.723 -0.4944 -0.3723  0.3784
15099TIP3    H166712   3.992   2.270  15.816 -2.3690 -0.9215  0.9072
15099TIP3    H266713   4.053   2.273  15.678  0.5104 -0.4876  2.1152
15100TIP3   OH266714   0.131   4.957  13.142  0.5038 -0.1879  0.7572
15100TIP3    H166715   0.175   4.897  13.203  2.4106  0.6709  0.2877
15100TIP3    H266716   0.127   4.909  13.060  2.3705  0.3756  0.2770
15101TIP3   OH266717   1.484   6.598   1.915  0.4616 -0.0785  0.1547
15101TIP3    H166718   1.572   6.635   1.904 -0.2888  2.3452  1.4591
15101TIP3    H266719   1.429   6.652   1.858 -0.3471 -0.8297  0.2156
15102TIP3   OH266720   4.915   6.280  13.496 -0.6100  0.0523 -0.2820
15102TIP3    H166721   4.863   6.200  13.501 -2.0284  0.9725  0.5743
15102TIP3    H266722   4.857   6.348  13.531  0.5753  1.4413 -0.9202
15103TIP3   OH266723   1.963   5.163  16.204  0.4108 -0.2313  0.2483
15103TIP3    H166724   1.876   5.200  16.217  0.7443  0.0315  2.0013
15103TIP3    H266725   1.958   5.119  16.119 -1.8255 -1.3469  0.8818
15104TIP3   OH266726   0.765   2.451   6.179 -0.3252  0.0248  0.3404
15104TIP3    H166727   0.815   2.533   6.181 -2.3790  1.3367  1.2590
15104TIP3    H266728   0.712   2.454   6.259  1.6475 -3.6538  2.0075
15105TIP3   OH266729   1.092   5.568  12.225 -0.5996  0.1751 -0.2252
15105TIP3    H166730   1.009   5.593  12.267 -0.9531 -1.2879  0.0087
15105TIP3    H266731   1.066   5.538  12.137 -0.1598  0.8518 -0.5959
15106TIP3   OH266732   3.662   5.043  14.005 -0.2097  0.6287  0.3692
15106TIP3    H166733   3.719   5.046  14.082 -0.6902 -1.6625  0.8639
15106TIP3    H266734   3.699   4.974  13.950 -2.2341 -0.6884  0.5415
15107TIP3   OH266735   0.778   3.174  12.178  0.1026  0.5034  0.4005
15107TIP3    H166736   0.841   3.124  12.229 -0.2516  1.0298  1.3679
15107TIP3    H266737   0.701   3.117  12.173 -0.2863  0.9171  1.4701
15108TIP3   OH266738   2.454   0.060   6.934  0.3144  0.6365 -0.3580
15108TIP3    H166739   2.526   0.088   6.878 -0.2073  1.2378 -0.7419
15108TIP3    H266740   2.466   0.108   7.016  0.7952  0.1319 -0.1257
15109TIP3   OH266741   4.068   0.513  13.707 -0.3019 -0.3996  0.6425
15109TIP3    H166742   4.155   0.551  13.694 -0.6255 -0.1192 -0.8235
15109TIP3    H266743   4.085   0.424  13.737  0.5182 -0.6116 -0.3980
15110TIP3   OH266744   1.029   3.828   4.113  0.5781 -0.1120 -0.8284
15110TIP3    H166745   1.072   3.744   4.130 -0.7411 -0.9566 -1.4831
15110TIP3    H266746   1.070   3.859   4.032  0.9258 -0.2180 -0.6966
15111TIP3   OH266747   1.489   2.625   6.038  0.5992  0.0767  0.1969
15111TIP3    H166748   1.448   2.545   6.005 -0.0281  0.6244 -0.4055
15111TIP3    H266749   1.460   2.693   5.977  0.9696  0.7921  0.8016
15112TIP3   OH266750   5.076   0.260   2.756  0.5324  0.9637 -0.0720
15112TIP3    H166751   5.055   0.333   2.697  2.1009 -0.0076 -1.9898
15112TIP3    H266752   5.153   0.291   2.805 -0.6059  1.6669  1.3440
15113TIP3   OH266753   4.521   1.819   3.262  0.2781 -0.4112  0.1248
15113TIP3    H166754   4.605   1.818   3.215 -0.1433 -1.9012 -0.6533
15113TIP3    H266755   4.455   1.821   3.192 -0.3489 -1.8685  0.6310
15114TIP3   OH266756   0.699   1.049   6.355 -0.4607  0.4513 -0.4658
15114TIP3    H166757   0.711   1.033   6.448  1.1062  0.8838 -0.5648
15114TIP3    H266758   0.751   0.981   6.312 -1.0601  0.3399 -1.0451
15115TIP3   OH266759   1.979   2.388  13.696 -0.3762 -0.0438  0.8268
15115TIP3    H166760   2.046   2.343  13.749 -0.4074 -0.2995  0.6532
15115TIP3    H266761   1.905   2.327  13.696 -0.4862  0.0913  0.7414
15116TIP3   OH266762   3.996   2.973  14.546 -0.4749  0.2192  0.5182
15116TIP3    H166763   4.041   2.975  14.462 -0.7182  0.0002  0.3822
15116TIP3    H266764   3.918   2.919  14.531 -0.7256  0.5018  0.7779
15117TIP3   OH266765   5.373   0.499  15.052  0.1200  0.4141 -0.2769
15117TIP3    H166766   5.426   0.422  15.072 -2.2584 -1.1183  0.4356
15117TIP3    H266767   5.354   0.538  15.137 -1.6048 -0.2936 -0.3003
15118TIP3   OH266768   6.638   1.077   1.017  0.4741  0.5446 -0.1300
15118TIP3    H166769   6.661   1.013   1.085 -0.4538 -2.1754 -2.1619
15118TIP3    H266770   6.722   1.112   0.988  1.0425  0.1503  0.9827
15119TIP3   OH266771   4.370   1.203  11.049  0.4796  0.0414  0.1179
15119TIP3    H166772   4.436   1.263  11.014  0.7206  0.3113  0.9876
15119TIP3    H266773   4.416   1.119  11.058  0.4096 -0.0340 -0.2433
15120TIP3   OH266774   0.383   2.382  16.607  0.6624  0.0528  0.1814
15120TIP3    H166775   0.478   2.374  16.599  0.5741 -1.4657  0.3029
15120TIP3    H266776   0.357   2.305  16.658 -0.6093  0.5916  0.3880
15121TIP3   OH266777   1.219   5.352  14.007  0.1616  0.3666 -0.6455
15121TIP3    H166778   1.197   5.260  13.994  1.1925  0.0929 -0.5785
15121TIP3    H266779   1.153   5.400  13.958 -0.1479 -0.4252 -1.0212
15122TIP3   OH266780   1.204   2.798   4.722  0.1181  0.2885 -0.4214
15122TIP3    H166781   1.279   2.851   4.696 -0.3073  0.4982 -1.2807
15122TIP3    H266782   1.128   2.855   4.707 -0.2714 -0.1915 -0.3250
15123TIP3   OH266783   2.680   6.439   5.831 -0.1091 -0.6846 -0.5442
15123TIP3    H166784   2.693   6.494   5.754  1.2105  1.1176  0.8822
15123TIP3    H266785   2.640   6.497   5.896  2.2003 -1.0049  1.3333
15124TIP3   OH266786   5.402   2.514   5.027  0.2421  0.5239  0.5042
15124TIP3    H166787   5.497   2.510   5.036  0.3658  0.7099 -0.5786
15124TIP3    H266788   5.379   2.433   4.981 -0.2850 -0.1536  1.9143
15125TIP3   OH266789   5.854   4.271   6.730  0.3270 -0.8562  0.2151
15125TIP3    H166790   5.816   4.358   6.725  1.6909 -0.2677 -0.1583
15125TIP3    H266791   5.783   4.216   6.763 -1.6132 -0.2694 -2.6555
15126TIP3   OH266792   0.765   2.813  11.039  0.9550  0.0536  0.6454
15126TIP3    H166793   0.854   2.783  11.055  1.0518 -0.3415 -0.5469
15126TIP3    H266794   0.773   2.876  10.967  0.3560  0.5610  1.0092
15127TIP3   OH266795   6.487   6.104  13.104 -0.7590 -0.3008 -0.2183
15127TIP3    H166796   6.572   6.075  13.136 -1.5035  0.1767  2.4515
15127TIP3    H266797   6.463   6.177  13.161 -3.3723 -1.0631 -0.1825
15128TIP3   OH266798   2.789   0.419  13.212  0.2451  0.4026 -0.0692
15128TIP3    H166799   2.839   0.494  13.245  0.0714 -0.7275  3.1227
15128TIP3    H266800   2.853   0.348  13.207 -0.0763  0.1549 -0.6877
15129TIP3   OH266801   1.002   3.483  16.533  0.5252 -0.4773 -0.2698
15129TIP3    H166802   1.095   3.482  16.555  1.6815  1.7730 -4.1175
15129TIP3    H266803   0.976   3.575  16.541 -1.0869 -0.8911 -0.3297
15130TIP3   OH266804   2.762   0.882   4.062  0.2538 -0.4520  0.1977
15130TIP3    H166805   2.762   0.811   3.997  1.0502  1.0130 -1.4813
15130TIP3    H266806   2.753   0.962   4.010 -0.1127  0.7348  1.9990
15131TIP3   OH266807   2.256   2.460  13.097  0.1400 -0.5733  0.3849
15131TIP3    H166808   2.319   2.515  13.142 -0.8696  3.1169 -2.2015
15131TIP3    H266809   2.310   2.396  13.050  2.0224  1.7850 -0.9152
15132TIP3   OH266810   5.498   1.160   2.367 -0.0025  0.6304 -0.2005
15132TIP3    H166811   5.420   1.212   2.347  1.3817  2.9299  0.0705
15132TIP3    H266812   5.569   1.206   2.323  1.5291 -0.1977  1.2971
15133TIP3   OH266813   6.598   1.087  11.542 -0.3109  0.1779  0.0570
15133TIP3    H166814   6.654   1.151  11.498 -0.1398 -0.2099 -0.2981
15133TIP3    H266815   6.555   1.040  11.471 -0.3986 -0.1333  0.3135
15134TIP3   OH266816   1.167   5.122  13.600 -0.8081 -0.1397  0.0005
15134TIP3    H166817   1.087   5.144  13.553 -0.2770  1.0921 -0.3702
15134TIP3    H266818   1.154   5.157  13.688  0.9299  4.0830 -1.1834
15135TIP3   OH266819   5.607   5.606   0.731  0.0045  0.2689  0.3835
15135TIP3    H166820   5.536   5.545   0.751 -0.1668  0.8594  1.7430
15135TIP3    H266821   5.672   5.589   0.799 -0.7252  2.5986  1.7935
15136TIP3   OH266822   4.444   2.964  14.372  0.3824 -0.4715 -0.6244
15136TIP3    H166823   4.369   2.950  14.431  0.8160 -0.3764 -0.0438
15136TIP3    H266824   4.433   2.898  14.303 -0.6575  0.0447 -0.9760
15137TIP3   OH266825   3.136   4.297  10.691  0.3062  0.1851 -0.2505
15137TIP3    H166826   3.058   4.336  10.651  0.1615  0.8493  0.6362
15137TIP3    H266827   3.209   4.329  10.637  0.2070  1.8983  0.5618
15138TIP3   OH266828   1.416   1.840   5.138 -0.3595 -0.2856  0.6631
15138TIP3    H166829   1.399   1.776   5.069  2.8752 -0.8496  0.2563
15138TIP3    H266830   1.478   1.902   5.100  0.4148  0.2065  2.6013
15139TIP3   OH266831   2.495   1.560  11.009  0.1826  0.3668 -0.6793
15139TIP3    H166832   2.560   1.497  11.042 -1.2031 -0.3638  0.8175
15139TIP3    H266833   2.475   1.530  10.920 -0.0692 -1.0385 -0.1746
15140TIP3   OH266834   4.598   5.841  12.996 -0.0482  0.3517  0.4609
15140TIP3    H166835   4.670   5.898  12.970 -1.7872  2.6130  0.2606
15140TIP3    H266836   4.551   5.824  12.914 -0.0300 -0.6795  0.6603
15141TIP3   OH266837   0.840   0.466  16.463  0.4640  0.4709  0.0766
15141TIP3    H166838   0.814   0.374  16.453  1.2034  0.3592 -0.8886
15141TIP3    H266839   0.758   0.512  16.481  0.3265 -0.6707  2.8809
15142TIP3   OH266840   2.943   3.608   0.067  0.9049  0.1006  0.6140
15142TIP3    H166841   2.922   3.699   0.045  0.8374 -0.0970 -0.1742
15142TIP3    H266842   2.941   3.562  -0.017  0.2684 -0.7642  1.0888
15143TIP3   OH266843   3.881   1.321  14.718  0.5740 -0.0474  0.0873
15143TIP3    H166844   3.790   1.304  14.742  0.2724 -0.9361 -1.5509
15143TIP3    H266845   3.923   1.235  14.718  0.8944  0.0852 -1.0857
15144TIP3   OH266846   1.705   1.437   4.971  0.1860 -0.0573  0.4509
15144TIP3    H166847   1.699   1.437   4.876  0.2116 -2.4981  0.3753
15144TIP3    H266848   1.617   1.456   5.001  0.0039 -0.0541 -0.0806
15145TIP3   OH266849   3.656   4.015  14.172  0.1244 -0.1591  0.3717
15145TIP3    H166850   3.568   4.009  14.210  0.6543  1.5092  2.0189
15145TIP3    H266851   3.664   4.105  14.142  0.7354 -0.7222 -1.2678
15146TIP3   OH266852   5.622   0.460  14.624  0.3752  0.6131  0.1260
15146TIP3    H166853   5.607   0.386  14.683 -1.0469  0.5651 -0.2541
15146TIP3    H266854   5.551   0.522  14.644  0.0972  0.7739 -1.2383
15147TIP3   OH266855   5.128   0.141  17.055  0.1287 -0.1091  0.2676
15147TIP3    H166856   5.095   0.105  17.137 -1.9786  0.9389 -0.0722
15147TIP3    H266857   5.113   0.071  16.991  0.6810 -0.4817  0.5395
15148TIP3   OH266858   6.366   4.240   2.907  0.1145  0.4019  0.1146
15148TIP3    H166859   6.385   4.293   2.829  0.8197 -0.1081 -0.0689
15148TIP3    H266860   6.330   4.158   2.872 -0.0158  0.3584  0.3487
15149TIP3   OH266861   5.673   1.339   6.941 -0.2241  0.4504 -0.1081
15149TIP3    H166862   5.649   1.432   6.942 -1.2249  0.2081  0.3294
15149TIP3    H266863   5.679   1.317   6.848 -2.0510  0.4772 -0.2680
15150TIP3   OH266864   3.343   1.773   1.862  0.0271 -0.0940 -0.2380
15150TIP3    H166865   3.344   1.809   1.951  0.4474  0.5909 -0.5156
15150TIP3    H266866   3.250   1.767   1.841 -0.0603  1.3881 -0.3958
15151TIP3   OH266867   4.449   5.325   5.535 -0.4768 -0.3061  0.0043
15151TIP3    H166868   4.388   5.359   5.469  1.0656  1.2039 -0.7050
15151TIP3    H266869   4.471   5.402   5.588  2.9095 -0.1044 -1.4698
15152TIP3   OH266870   6.027   4.116  12.560 -0.2858 -0.7037  0.5946
15152TIP3    H166871   6.114   4.077  12.552  1.3085  2.5963  0.0934
15152TIP3    H266872   6.025   4.184  12.492 -2.6951  0.3036  1.5623
15153TIP3   OH266873   0.342   3.401  14.522 -0.2074  0.2345  0.3031
15153TIP3    H166874   0.384   3.487  14.516 -1.3847  0.7696 -0.6276
15153TIP3    H266875   0.299   3.401  14.608 -1.3429  1.1221 -0.2538
15154TIP3   OH266876   2.381   1.413   0.571  0.2677  0.5564 -0.2010
15154TIP3    H166877   2.329   1.459   0.505 -0.9778 -0.0545  0.3127
15154TIP3    H266878   2.322   1.402   0.646  0.7488 -1.1833 -0.0180
15155TIP3   OH266879   4.390   4.385  14.303  0.2879 -0.6314  0.3854
15155TIP3    H166880   4.481   4.387  14.334  0.8326 -0.9745 -1.0876
15155TIP3    H266881   4.351   4.310  14.348  0.4675  0.0117  1.6612
15156TIP3   OH266882   2.112   2.544  11.624 -0.6144 -0.5468  0.6378
15156TIP3    H166883   2.108   2.537  11.528 -0.6488  1.8664  0.4169
15156TIP3    H266884   2.155   2.463  11.651  1.0858 -0.4933 -1.5801
15157TIP3   OH266885   6.597   1.889   5.892 -0.2432 -0.2290 -0.4276
15157TIP3    H166886   6.567   1.804   5.924 -2.2368 -0.0482 -1.6547
15157TIP3    H266887   6.588   1.884   5.797  2.5568  0.3331 -0.8162
15158TIP3   OH266888   2.496   3.865   2.150 -0.3951  0.0421  0.7006
15158TIP3    H166889   2.405   3.844   2.128  0.1192 -3.9326  1.6920
15158TIP3    H266890   2.548   3.811   2.090  1.3845  2.0811  0.2900
15159TIP3   OH266891   5.759   3.069   0.330 -0.6702  0.4678  0.8012
15159TIP3    H166892   5.712   3.123   0.266  0.7779 -0.7622 -1.4579
15159TIP3    H266893   5.851   3.090   0.315 -0.2076 -1.0496  1.3544
15160TIP3   OH266894   1.312   5.748   2.301  0.7255  0.5679 -0.7268
15160TIP3    H166895   1.328   5.823   2.358 -0.6948  1.4992 -1.4956
15160TIP3    H266896   1.338   5.672   2.353  2.0867  1.5619  0.1095
15161TIP3   OH266897   3.684   1.562   0.532 -0.2991 -0.0300  0.0087
15161TIP3    H166898   3.685   1.644   0.482 -0.9828  0.6413  1.0601
15161TIP3    H266899   3.771   1.524   0.517 -0.1784  0.5982 -0.9548
15162TIP3   OH266900   1.261   5.235   1.230 -0.3220 -0.4759  0.0498
15162TIP3    H166901   1.230   5.280   1.309 -0.5882 -0.8284  0.1509
15162TIP3    H266902   1.341   5.281   1.206 -0.5685  0.0311  0.1687
15163TIP3   OH266903   1.494   4.531   6.112 -0.2106 -0.2815  0.0538
15163TIP3    H166904   1.489   4.438   6.137 -1.0857 -1.0987 -2.7219
15163TIP3    H266905   1.587   4.551   6.113 -0.0764 -0.7613  1.9141
15164TIP3   OH266906   0.871   2.690   3.888 -0.2976  0.2042  0.0116
15164TIP3    H166907   0.821   2.663   3.810 -0.1079 -0.0039 -0.0385
15164TIP3    H266908   0.947   2.736   3.852  0.3163 -0.7586  0.0284
15165TIP3   OH266909   6.374   6.098   1.536 -0.6210  0.4831  0.2402
15165TIP3    H166910   6.443   6.143   1.586  0.3133  0.4278 -0.9540
15165TIP3    H266911   6.384   6.131   1.447 -0.6981 -1.1706 -0.4173
15166TIP3   OH266912   0.509   1.657  13.571  0.0081 -0.0937  0.1213
15166TIP3    H166913   0.417   1.665  13.546  0.5099 -0.2490 -1.9615
15166TIP3    H266914   0.511   1.584  13.633 -1.1490 -0.8955 -0.7346
15167TIP3   OH266915   6.523   0.623   5.496  0.4052  0.5722  0.1087
15167TIP3    H166916   6.504   0.716   5.483 -0.2421  0.3281 -0.7566
15167TIP3    H266917   6.439   0.579   5.486  0.6619 -0.0930  0.7615
15168TIP3   OH266918   2.148   6.430   4.636 -0.3396  0.5306 -0.4705
15168TIP3    H166919   2.239   6.415   4.660 -0.6293  1.6538  1.5610
15168TIP3    H266920   2.110   6.343   4.627  0.4033  0.0364  0.9470
15169TIP3   OH266921   2.150   4.267   2.554 -0.1812 -0.4800 -0.4658
15169TIP3    H166922   2.097   4.272   2.634  0.6166  0.8560  0.0057
15169TIP3    H266923   2.225   4.323   2.572 -0.6674  0.9841 -2.6570
15170TIP3   OH266924   1.686   3.146   4.927  0.6844  0.1245  0.0004
15170TIP3    H166925   1.677   3.191   5.011  1.1726 -0.6700  0.4825
15170TIP3    H266926   1.745   3.073   4.945 -0.2505 -0.8397 -0.7175
15171TIP3   OH266927   5.560   3.606  14.059  0.3878  0.1017 -0.2781
15171TIP3    H166928   5.594   3.518  14.045  1.6632  0.7371 -1.4164
15171TIP3    H266929   5.471   3.603  14.023  0.2649 -0.8167  0.0647
15172TIP3   OH266930   4.182   0.577   4.016 -0.1238 -0.5432  0.3325
15172TIP3    H166931   4.207   0.493   3.977 -0.9911 -0.4355 -0.5215
15172TIP3    H266932   4.113   0.555   4.079  1.2350 -0.7092  1.8110
15173TIP3   OH266933   4.073   4.678  15.210 -0.6201 -0.0937  0.6513
15173TIP3    H166934   4.158   4.695  15.250 -0.6312  1.3488  0.1358
15173TIP3    H266935   4.058   4.584  15.223  0.3611 -0.0801  2.0557
15174TIP3   OH266936   2.027   6.249  12.137 -0.8294  0.0244 -0.3535
15174TIP3    H166937   2.114   6.208  12.132 -0.8794 -0.2281  0.7159
15174TIP3    H266938   2.044   6.339  12.163 -0.7988  0.4189 -1.6485
15175TIP3   OH266939   2.412   0.498  17.627  0.3965  0.4468  0.9532
15175TIP3    H166940   2.362   0.497  17.546  0.1213  4.9780  0.7815
15175TIP3    H266941   2.489   0.444  17.608 -2.3007 -3.4519 -0.1144
15176TIP3   OH266942   3.879   3.479   3.558 -0.2395  0.3983 -0.7545
15176TIP3    H166943   3.932   3.461   3.636  0.0432  0.3875 -0.9458
15176TIP3    H266944   3.795   3.436   3.575  0.7304 -2.0337 -1.6139
15177TIP3   OH266945   3.464   4.461   2.116  0.4631 -0.1490 -0.2686
15177TIP3    H166946   3.408   4.483   2.042  0.5871  0.8079 -0.0969
15177TIP3    H266947   3.447   4.369   2.133 -0.1921 -0.1626 -0.9571
15178TIP3   OH266948   5.918   4.512   3.623  0.1783 -0.2486  0.4717
15178TIP3    H166949   5.840   4.513   3.679  0.3800 -0.3415  0.7511
15178TIP3    H266950   5.895   4.571   3.551 -0.2672 -0.5057  0.3975
15179TIP3   OH266951   2.671   3.827   2.820 -0.7182  0.0619 -0.2914
15179TIP3    H166952   2.587   3.782   2.818 -0.2409 -0.8688  0.3027
15179TIP3    H266953   2.717   3.794   2.743 -0.3416 -0.5249  0.1821
15180TIP3   OH266954   0.832   6.058  13.583 -0.2662 -0.7252  0.3778
15180TIP3    H166955   0.876   6.071  13.499  0.1355  0.9676  0.7987
15180TIP3    H266956   0.784   5.976  13.573 -1.6801  0.2807 -2.1612
15181TIP3   OH266957   0.578   2.390  14.583  0.0437 -0.4872  0.2807
15181TIP3    H166958   0.505   2.434  14.627 -0.8892 -1.4443 -0.2720
15181TIP3    H266959   0.604   2.451  14.513 -1.7584 -1.0849 -0.9864
15182TIP3   OH266960   3.921   1.906  13.240  0.2095 -0.4353 -0.1060
15182TIP3    H166961   3.962   1.975  13.189  1.5799 -1.0243  0.1485
15182TIP3    H266962   3.889   1.843  13.175  0.0155 -0.1326 -0.3006
15183TIP3   OH266963   4.835   3.831  16.630 -0.0018  0.0632 -0.8298
15183TIP3    H166964   4.771   3.873  16.573 -1.6623  1.5785  1.9094
15183TIP3    H266965   4.907   3.894  16.636 -1.1396  1.3005  0.8962
15184TIP3   OH266966   2.619   6.110   2.234  0.4772  0.4401  0.0207
15184TIP3    H166967   2.705   6.150   2.247  0.6813  0.6393 -1.7624
15184TIP3    H266968   2.638   6.020   2.209  0.0913  0.0220  1.1462
15185TIP3   OH266969   1.715   0.831   0.801 -0.7037  0.0606  0.0012
15185TIP3    H166970   1.717   0.735   0.807  0.8228  0.1444  1.5457
15185TIP3    H266971   1.766   0.850   0.722  0.2039 -0.3821  0.4618
15186TIP3   OH266972   3.802   3.698  14.045  0.3115  0.8998 -0.3301
15186TIP3    H166973   3.848   3.623  14.007 -1.5498 -1.4455  1.7186
15186TIP3    H266974   3.863   3.734  14.109  0.0706 -1.1257  1.1583
15187TIP3   OH266975   4.489   5.872  11.932 -0.0151  0.4123  0.0624
15187TIP3    H166976   4.487   5.967  11.920 -1.4359  0.3027 -0.8299
15187TIP3    H266977   4.557   5.842  11.871  0.5876  0.8610  0.5002
15188TIP3   OH266978   1.070   2.124  16.279  0.0945  0.6032 -0.0300
15188TIP3    H166979   1.123   2.190  16.325 -0.9348  0.8831  0.7944
15188TIP3    H266980   1.134   2.058  16.251  0.7618  0.1733  2.2411
15189TIP3   OH266981   4.731   2.835   6.011 -0.3259  0.2992 -0.6678
15189TIP3    H166982   4.735   2.909   6.071 -1.3522 -1.7206  2.0886
15189TIP3    H266983   4.653   2.851   5.957 -0.0314  1.6017 -0.7271
15190TIP3   OH266984   0.378   1.138  15.082 -0.2971  0.0360 -0.4588
15190TIP3    H166985   0.423   1.220  15.103 -0.3961 -0.4735  2.1159
15190TIP3    H266986   0.429   1.071  15.128 -2.1889 -0.8678  0.4134
15191TIP3   OH266987   5.878   5.986  11.640  0.5880  0.4929  0.1511
15191TIP3    H166988   5.951   6.014  11.585  0.6030 -0.1753 -0.1804
15191TIP3    H266989   5.875   5.891  11.629 -0.8465  0.5949 -0.4927
15192TIP3   OH266990   1.781   0.064  15.819 -0.6844 -0.0168 -0.1724
15192TIP3    H166991   1.788  -0.030  15.836 -0.1900 -0.1019 -0.8191
15192TIP3    H266992   1.870   0.091  15.797 -0.2990  1.1029  2.4109
15193TIP3   OH266993   5.649   1.781   0.416 -0.0558 -0.5913 -0.7214
15193TIP3    H166994   5.554   1.790   0.430  0.2162 -0.7228  1.6378
15193TIP3    H266995   5.687   1.850   0.471  1.2566 -1.5141 -0.4423
15194TIP3   OH266996   6.434   5.723  13.529  0.0623 -0.1941 -0.6319
15194TIP3    H166997   6.481   5.772  13.461 -2.0352  0.4608 -1.6956
15194TIP3    H266998   6.483   5.742  13.609  0.9606  1.3757 -1.4880
15195TIP3   OH266999   1.135   6.031   5.130 -0.2735  0.1447  0.5169
15195TIP3    H167000   1.168   6.054   5.043 -0.9889  0.1222  0.2295
15195TIP3    H267001   1.212   6.030   5.186  0.0281  1.5288  0.1667
15196TIP3   OH267002   6.650   6.350   4.226 -0.1784  0.0507 -0.2622
15196TIP3    H167003   6.589   6.295   4.275  0.9380 -0.7936  0.2352
15196TIP3    H267004   6.655   6.431   4.276 -0.0096 -0.3310  0.3588
15197TIP3   OH267005   1.071   2.870   3.817 -0.3112  0.6040  0.8112
15197TIP3    H167006   1.154   2.825   3.834 -0.9248 -1.6242 -1.4570
15197TIP3    H267007   1.085   2.913   3.733 -1.8616 -1.1134 -0.3951
15198TIP3   OH267008   0.498   2.428   5.491 -0.0019 -0.3778  0.1169
15198TIP3    H167009   0.502   2.364   5.561 -2.4670 -2.7847 -1.7375
15198TIP3    H267010   0.523   2.379   5.412  0.7768  1.7205 -1.0415
15199TIP3   OH267011   2.206   2.102   5.223 -0.2456  0.7320  0.3074
15199TIP3    H167012   2.298   2.125   5.213 -0.3497  1.0098 -0.0696
15199TIP3    H267013   2.189   2.110   5.317  0.7688 -1.9169  0.8172
15200TIP3   OH267014   6.491   5.129  11.485  0.4256 -0.3984  0.1697
15200TIP3    H167015   6.462   5.206  11.534 -0.0146 -0.3358 -0.1861
15200TIP3    H267016   6.438   5.130  11.405  0.4086 -1.0804  0.1689
15201TIP3   OH267017   1.755   3.599  13.459  0.0398  0.3205  0.0614
15201TIP3    H167018   1.821   3.548  13.507 -0.4651 -0.0060  0.4275
15201TIP3    H267019   1.705   3.643  13.528  0.3099  1.1186 -0.2439
15202TIP3   OH267020   6.488   6.122  16.284 -0.0747 -0.5477 -0.0905
15202TIP3    H167021   6.437   6.151  16.209  0.0441 -1.1832 -0.4221
15202TIP3    H267022   6.508   6.030  16.266  1.1870 -0.3090  0.0352
15203TIP3   OH267023   2.445   4.860  13.933  0.3158  0.3120 -0.3335
15203TIP3    H167024   2.448   4.779  13.982  1.0609 -0.1910 -1.1778
15203TIP3    H267025   2.356   4.894  13.948 -0.1287 -0.8369 -0.2655
15204TIP3   OH267026   6.449   1.518   3.703 -0.3041  0.1105 -0.0931
15204TIP3    H167027   6.465   1.608   3.678  1.0643 -0.7517 -2.6737
15204TIP3    H267028   6.384   1.486   3.640  0.0821 -0.9999  0.0381
15205TIP3   OH267029   1.239   2.091   4.614  0.1182 -0.1605 -0.1538
15205TIP3    H167030   1.256   2.127   4.701  0.7107 -4.2640  1.6738
15205TIP3    H267031   1.144   2.078   4.611  0.1350 -0.3407  0.0601
15206TIP3   OH267032   6.596   4.504  17.450  0.0090 -0.2976  0.1913
15206TIP3    H167033   6.617   4.411  17.443 -0.1571 -0.3967  0.9351
15206TIP3    H267034   6.652   4.547  17.385 -1.2221 -1.0979 -1.4839
15207TIP3   OH267035   3.879   3.652   1.335  0.2941  0.6787 -0.0911
15207TIP3    H167036   3.957   3.681   1.383  0.5757 -0.5195  0.2169
15207TIP3    H267037   3.887   3.694   1.249  1.5559  0.1985 -0.2333
15208TIP3   OH267038   5.021   5.073  13.022  0.4710 -0.4209  0.2762
15208TIP3    H167039   4.926   5.067  13.011  0.5172 -1.1537  0.2647
15208TIP3    H267040   5.051   4.982  13.025  1.2355 -0.1992 -0.2541
15209TIP3   OH267041   0.265   1.575   4.653  0.0611 -0.1228 -0.3118
15209TIP3    H167042   0.338   1.537   4.703  0.8004 -1.5167 -2.3394
15209TIP3    H267043   0.250   1.514   4.581 -0.7213  1.9693 -2.0329
15210TIP3   OH267044   6.011   2.504   6.567 -0.4350  0.1496 -0.0175
15210TIP3    H167045   6.007   2.495   6.472 -0.6561 -0.8646  0.0783
15210TIP3    H267046   6.045   2.592   6.581  2.3400 -0.6427 -1.0889
15211TIP3   OH267047   5.739   3.169   4.948  0.3715  0.0604 -0.1905
15211TIP3    H167048   5.689   3.239   4.990  1.7303  1.1427 -0.3141
15211TIP3    H267049   5.674   3.119   4.899 -0.6074  1.4034 -0.3108
15212TIP3   OH267050   1.635   1.010  17.361  0.0733 -0.0987  0.2037
15212TIP3    H167051   1.636   1.009  17.265 -0.2384 -1.8397  0.1954
15212TIP3    H267052   1.726   0.994  17.387  0.2276  0.7559  0.2144
15213TIP3   OH267053   5.557   2.405  15.071 -0.2890 -0.0674  0.0671
15213TIP3    H167054   5.521   2.425  15.157  2.1197  1.9294  0.7186
15213TIP3    H267055   5.573   2.310  15.073 -0.7044 -0.1312  1.6156
15214TIP3   OH267056   0.372   2.669   5.451 -0.0591  0.0988 -0.6088
15214TIP3    H167057   0.425   2.735   5.407  1.0114 -0.7277 -0.6287
15214TIP3    H267058   0.428   2.591   5.452 -1.6120 -1.0854 -1.4182
15215TIP3   OH267059   1.299   2.453   4.141  0.0472 -0.2514 -0.1309
15215TIP3    H167060   1.230   2.497   4.190  0.2720  1.2062 -1.0738
15215TIP3    H267061   1.252   2.399   4.077 -0.2208 -0.6701  0.4100
15216TIP3   OH267062   4.810   5.800   3.339  0.4045  0.0485  0.3053
15216TIP3    H167063   4.740   5.735   3.340  0.2204  0.2227 -0.4829
15216TIP3    H267064   4.820   5.824   3.246  1.8857 -0.3743  0.3303
15217TIP3   OH267065   1.212   5.309  11.121 -0.0313 -0.8848 -0.2121
15217TIP3    H167066   1.303   5.333  11.102 -0.0778 -0.9579 -0.5278
15217TIP3    H267067   1.203   5.324  11.215  0.0426 -0.0024 -0.3402
15218TIP3   OH267068   2.906   5.232   5.720  0.0587 -0.1522 -0.2389
15218TIP3    H167069   2.956   5.313   5.735  2.3286 -1.9039  3.0479
15218TIP3    H267070   2.849   5.224   5.796 -0.0280 -1.6907 -0.4210
15219TIP3   OH267071   1.331   6.324   3.601  0.2623 -0.1170 -0.1541
15219TIP3    H167072   1.292   6.395   3.551 -0.5813  0.5235  1.3470
15219TIP3    H267073   1.299   6.244   3.560 -0.9931  0.3949 -0.2139
15220TIP3   OH267074   4.368   6.018   2.504  0.2280  0.4957  0.1137
15220TIP3    H167075   4.399   6.024   2.595  0.1858  0.2792  0.1430
15220TIP3    H267076   4.399   6.098   2.463  1.0742  0.1533  0.0661
15221TIP3   OH267077   1.566   4.737  14.796  0.6227 -0.6698 -0.1344
15221TIP3    H167078   1.606   4.822  14.780  0.1460 -0.3180  0.4727
15221TIP3    H267079   1.619   4.698  14.865  1.2338 -1.1569 -0.8612
15222TIP3   OH267080   2.139   2.178  15.448 -0.2868 -0.0061 -0.0841
15222TIP3    H167081   2.144   2.253  15.507  1.6432  0.2335 -0.4739
15222TIP3    H267082   2.098   2.211  15.369  1.2410  0.8922 -0.5470
15223TIP3   OH267083   0.283   1.074   3.244 -0.4987  0.1032  0.1151
15223TIP3    H167084   0.290   1.152   3.189 -1.1384 -1.3745 -2.1885
15223TIP3    H267085   0.208   1.092   3.301  0.6920  2.0153  1.1876
15224TIP3   OH267086   4.125   5.342  13.590 -0.2251  0.6866  0.2411
15224TIP3    H167087   4.037   5.318  13.619  0.3406  0.3741  1.7503
15224TIP3    H267088   4.153   5.411  13.650  1.3382 -0.6288  1.1205
15225TIP3   OH267089   3.729   4.253   1.706  0.2282  0.3215  0.1928
15225TIP3    H167090   3.746   4.159   1.708 -1.6404 -0.0909 -0.9768
15225TIP3    H267091   3.638   4.261   1.677  0.5178  2.5068 -0.3205
15226TIP3   OH267092   5.205   5.265   1.311 -0.0045 -0.1656 -0.3405
15226TIP3    H167093   5.255   5.321   1.252  1.2567 -0.5452  0.3529
15226TIP3    H267094   5.166   5.326   1.374  0.9664 -0.0072  0.1210
15227TIP3   OH267095   3.406   0.608   2.517 -0.1177  0.8599  0.7460
15227TIP3    H167096   3.406   0.558   2.598  0.1987  0.0768  0.2788
15227TIP3    H267097   3.332   0.668   2.524 -0.7680  0.0187  1.1358
15228TIP3   OH267098   5.314   4.743  17.076  0.1537 -0.0223  0.1980
15228TIP3    H167099   5.232   4.748  17.124  0.0556 -0.2262  0.0510
15228TIP3    H267100   5.356   4.828  17.091  0.0948 -0.0633  0.5907
15229TIP3   OH267101   3.161   0.889   6.768 -0.2252  0.0256 -0.6123
15229TIP3    H167102   3.165   0.823   6.836  2.2562  1.9150  1.2401
15229TIP3    H267103   3.208   0.851   6.694  0.5081 -0.5901  0.1528
15230TIP3   OH267104   5.841   4.397  15.823  0.1870 -0.1917 -0.3820
15230TIP3    H167105   5.910   4.333  15.839  0.1600  0.4365  2.9684
15230TIP3    H267106   5.876   4.453  15.753  1.9246 -1.4548 -0.5844
15231TIP3   OH267107   2.502   1.660   0.143  0.0290 -0.7516  0.2714
15231TIP3    H167108   2.575   1.627   0.091 -0.7242 -2.1145  0.0108
15231TIP3    H267109   2.424   1.623   0.100 -0.7229 -0.3702  1.2713
15232TIP3   OH267110   5.617   3.995   2.945  0.2329  0.0826 -0.3394
15232TIP3    H167111   5.692   3.996   3.004 -0.2593 -0.9954  0.3357
15232TIP3    H267112   5.650   3.956   2.864  0.3532 -0.6162  0.0398
15233TIP3   OH267113   0.731   2.885  14.599 -0.5779 -0.3653 -0.0570
15233TIP3    H167114   0.657   2.944  14.602 -0.1000  0.2304  0.1850
15233TIP3    H267115   0.770   2.898  14.513 -0.0945  0.1548  0.2312
15234TIP3   OH267116   4.226   2.786  13.762  0.7189 -0.3930  0.0289
15234TIP3    H167117   4.280   2.731  13.706  1.7810  1.4498 -0.8293
15234TIP3    H267118   4.277   2.795  13.843  0.5052 -0.7238  0.2029
15235TIP3   OH267119   1.736   0.615  16.422  0.2788  0.1410 -0.2954
15235TIP3    H167120   1.752   0.667  16.500  0.1342  0.2032 -0.3058
15235TIP3    H267121   1.642   0.624  16.406  0.2786 -0.0050 -0.3816
15236TIP3   OH267122   4.341   3.319   0.824  0.4466  0.2464  0.0333
15236TIP3    H167123   4.276   3.252   0.806  1.5202 -0.7397 -0.2885
15236TIP3    H267124   4.347   3.370   0.743 -1.2005  1.5078  0.6481
15237TIP3   OH267125   2.384   4.242   1.075 -0.9843  0.0123  0.1284
15237TIP3    H167126   2.328   4.314   1.103  0.1324  1.2298 -0.7010
15237TIP3    H267127   2.346   4.214   0.992 -0.8858  0.2304  0.0113
15238TIP3   OH267128   0.741   5.567   2.146  0.6914 -0.0513  0.1912
15238TIP3    H167129   0.678   5.537   2.212 -0.0657  2.2118  0.5953
15238TIP3    H267130   0.703   5.539   2.062 -1.0128  1.4198  0.4086
15239TIP3   OH267131   2.291   0.518  11.826  0.4327  0.2782  0.2642
15239TIP3    H167132   2.252   0.531  11.740  1.5224 -1.6492 -0.5873
15239TIP3    H267133   2.224   0.473  11.877  0.3930 -0.1229 -0.1418
15240TIP3   OH267134   0.916   4.527   2.896  0.6833 -0.3272  0.2658
15240TIP3    H167135   0.906   4.465   2.969 -1.2304  0.5402  0.8026
15240TIP3    H267136   0.864   4.488   2.825  0.8717 -0.1669  0.0387
15241TIP3   OH267137   1.038   5.738   4.771 -0.3324 -0.6060  0.0161
15241TIP3    H167138   1.070   5.648   4.779 -1.0431 -0.8147  0.7971
15241TIP3    H267139   0.952   5.729   4.730 -1.0323 -0.4450  1.3730
15242TIP3   OH267140   4.294   6.583  16.389 -1.0419  0.0225  0.5748
15242TIP3    H167141   4.377   6.553  16.351 -0.1755  2.1938  0.6089
15242TIP3    H267142   4.302   6.559  16.482  0.2622  1.5101  0.8969
15243TIP3   OH267143   1.724   3.616   1.174  0.0188  0.1555  0.1258
15243TIP3    H167144   1.658   3.564   1.129  1.1706 -0.2513 -1.1454
15243TIP3    H267145   1.797   3.555   1.189 -0.4482  0.1578  2.9446
15244TIP3   OH267146   5.487   4.366  13.088 -0.1169 -0.0928 -0.9671
15244TIP3    H167147   5.506   4.313  13.165  2.1644  2.5650  0.4688
15244TIP3    H267148   5.403   4.408  13.108  0.7212  1.0147  0.4380
15245TIP3   OH267149   1.627   3.947   5.449 -0.4527  0.0021  0.2360
15245TIP3    H167150   1.696   3.928   5.513  0.5684  0.0375 -0.8228
15245TIP3    H267151   1.659   4.023   5.401 -1.1590 -0.0843 -0.3862
15246TIP3   OH267152   4.607   3.682   0.416  0.3646  0.3493  0.1412
15246TIP3    H167153   4.549   3.627   0.363 -1.4476  0.9774  1.3564
15246TIP3    H267154   4.672   3.622   0.451  1.1767 -0.1955 -2.1350
15247TIP3   OH267155   2.417   5.921   1.930  0.4926  0.1758 -0.0434
15247TIP3    H167156   2.348   5.855   1.932  0.6562  0.0312  1.0387
15247TIP3    H267157   2.482   5.891   1.994  0.0931  1.8820  1.2342
15248TIP3   OH267158   1.172   3.090   1.728  0.6261  0.0255  0.3942
15248TIP3    H167159   1.103   3.146   1.692  0.2596 -1.5290 -1.5225
15248TIP3    H267160   1.144   3.072   1.817 -0.6922  0.6041  0.1255
15249TIP3   OH267161   5.726   4.155  17.054 -0.0714 -0.7212 -0.5925
15249TIP3    H167162   5.782   4.125  17.126  1.1561 -2.3201 -2.1170
15249TIP3    H267163   5.674   4.226  17.092  0.7005 -1.3219  1.7803
15250TIP3   OH267164   4.213   0.410  11.737 -0.7366  0.1640 -0.2042
15250TIP3    H167165   4.142   0.350  11.759 -0.8190  0.2940 -0.1131
15250TIP3    H267166   4.283   0.354  11.702  0.2011 -0.3172  2.2467
15251TIP3   OH267167   6.249   4.813   2.557 -0.2267  0.1957 -0.2383
15251TIP3    H167168   6.273   4.905   2.545 -1.3013  0.3475 -1.4882
15251TIP3    H267169   6.158   4.816   2.585  0.2591 -0.4557  1.5191
15252TIP3   OH267170   3.153   5.421  11.056 -0.4847  0.0634 -0.0728
15252TIP3    H167171   3.182   5.332  11.039 -1.0954 -0.0561 -0.4994
15252TIP3    H267172   3.234   5.470  11.069 -0.1617 -0.8542  1.8498
15253TIP3   OH267173   5.685   5.633  15.832 -0.2603 -0.2615 -0.4946
15253TIP3    H167174   5.767   5.667  15.797  1.1382 -1.1855  1.6494
15253TIP3    H267175   5.676   5.546  15.791 -0.9362  0.3874 -1.7763
15254TIP3   OH267176   1.281   3.926   0.251 -0.1194 -0.0793  0.1889
15254TIP3    H167177   1.227   3.961   0.180 -1.1842  1.5247  1.7036
15254TIP3    H267178   1.360   3.980   0.249 -0.4523  0.4330  0.6403
15255TIP3   OH267179   5.785   4.621  16.968  0.1724 -0.3205  0.2954
15255TIP3    H167180   5.706   4.619  16.914 -1.6229 -1.4513  2.7503
15255TIP3    H267181   5.758   4.666  17.048  1.4599 -2.2039  1.8891
15256TIP3   OH267182   3.080   2.019   6.783  0.0547 -0.7749  0.2312
15256TIP3    H167183   3.097   2.067   6.864  0.6057 -1.2300  0.3926
15256TIP3    H267184   3.164   2.020   6.736 -0.5244  0.4262 -0.8547
15257TIP3   OH267185   2.237   5.985   3.148 -0.4050  0.5844  0.6137
15257TIP3    H167186   2.287   6.013   3.223  0.2554 -0.2457  0.5006
15257TIP3    H267187   2.302   5.961   3.082 -0.9477  2.6616 -0.7932
15258TIP3   OH267188   6.708   0.394  12.861  0.4666 -0.3380 -0.5552
15258TIP3    H167189   6.644   0.464  12.854  0.4105 -0.1595  1.3246
15258TIP3    H267190   6.791   0.433  12.832  0.2670  0.2403 -0.3533
15259TIP3   OH267191   4.358   6.253  16.663  0.5729 -0.7844  0.5409
15259TIP3    H167192   4.341   6.163  16.635  1.4062 -0.7391 -0.1389
15259TIP3    H267193   4.453   6.259  16.670  0.5142 -0.0311  0.8583
15260TIP3   OH267194   6.055   3.771  14.273 -0.0304 -0.1118 -0.0716
15260TIP3    H167195   6.086   3.765  14.363 -0.3413  2.0099  0.2147
15260TIP3    H267196   6.023   3.683  14.254 -1.2322 -0.2953  2.3637
15261TIP3   OH267197   3.205   1.872   4.980 -0.1995 -0.4467  0.2437
15261TIP3    H167198   3.174   1.963   4.984  0.4209 -0.2548  0.8184
15261TIP3    H267199   3.127   1.821   4.956 -0.9462  0.0382  1.5468
15262TIP3   OH267200   0.789   0.935   4.816 -0.2512 -0.1857 -0.5123
15262TIP3    H167201   0.866   0.902   4.771 -0.3314 -0.2254 -0.6216
15262TIP3    H267202   0.823   0.979   4.893 -0.0513  0.6880 -1.0922
15263TIP3   OH267203   3.264   6.529  16.606  0.6380  0.4479 -0.0511
15263TIP3    H167204   3.249   6.604  16.549  0.0447  1.1640  1.0033
15263TIP3    H267205   3.185   6.477  16.599  0.7462  0.3043 -0.2155
15264TIP3   OH267206   6.671   6.374  12.315 -0.4306  0.3246 -0.0208
15264TIP3    H167207   6.629   6.337  12.392 -1.2984  1.4711  0.0775
15264TIP3    H267208   6.714   6.454  12.347  0.6129 -0.0589 -0.4121
15265TIP3   OH267209   0.717   1.725  14.781  0.0535  0.3725  0.1484
15265TIP3    H167210   0.699   1.698  14.691 -0.7582  0.9602  0.1303
15265TIP3    H267211   0.802   1.769  14.776  1.2537 -1.8023  0.1205
15266TIP3   OH267212   2.291   6.173   1.338 -0.2721 -0.3155 -0.2256
15266TIP3    H167213   2.362   6.176   1.403  0.5953 -1.9576 -1.0328
15266TIP3    H267214   2.223   6.120   1.379  0.3015 -1.4057 -0.6436
15267TIP3   OH267215   0.349   3.724   5.336  0.0249 -0.3410 -0.2002
15267TIP3    H167216   0.343   3.819   5.337 -0.7796 -0.3840  0.3999
15267TIP3    H267217   0.370   3.702   5.245  0.2566  0.4089 -0.3312
15268TIP3   OH267218   3.078   3.675   1.012  0.3458 -0.4170  0.0287
15268TIP3    H167219   3.012   3.737   0.980 -0.6130 -1.0594  0.6896
15268TIP3    H267220   3.059   3.593   0.967  0.1696 -0.8234  0.8164
15269TIP3   OH267221   4.635   0.717  16.441  0.5713 -0.0203 -0.0679
15269TIP3    H167222   4.681   0.736  16.358  1.0286 -1.7439 -0.2375
15269TIP3    H267223   4.621   0.623  16.439  0.1389 -0.0089  1.6124
15270TIP3   OH267224   6.307   0.865   1.966 -0.2277 -0.4069 -0.5454
15270TIP3    H167225   6.211   0.856   1.961 -0.2577  0.0992 -0.9695
15270TIP3    H267226   6.338   0.834   1.881 -0.0332 -0.3309 -0.5012
15271TIP3   OH267227   3.456   2.843   6.339  0.3313 -0.1741 -0.1037
15271TIP3    H167228   3.474   2.750   6.323 -1.7425 -0.7044  0.4499
15271TIP3    H267229   3.453   2.851   6.434 -1.4050  0.0311 -0.1520
15272TIP3   OH267230   3.596   4.182   5.464 -0.0754 -0.6277  0.1352
15272TIP3    H167231   3.691   4.189   5.479  0.3697  1.6609 -2.6506
15272TIP3    H267232   3.589   4.152   5.373 -1.9015  1.7423 -0.6015
15273TIP3   OH267233   2.871   0.960   1.483  0.5004 -0.4437  0.2063
15273TIP3    H167234   2.822   1.030   1.526 -0.4027 -0.6151 -0.4988
15273TIP3    H267235   2.947   1.004   1.444 -0.7549  0.4236 -1.3965
15274TIP3   OH267236   2.870   5.449  11.069  0.0250 -0.3308 -0.6238
15274TIP3    H167237   2.905   5.455  11.157 -1.5216 -4.5256  0.5212
15274TIP3    H267238   2.933   5.394  11.021 -0.4500 -0.3070 -1.3016
15275TIP3   OH267239   1.738   4.305  15.715 -0.4833  0.1605 -0.0668
15275TIP3    H167240   1.811   4.243  15.715  0.7857  1.5919 -1.1663
15275TIP3    H267241   1.712   4.311  15.807  0.0298 -1.2008  0.1948
15276TIP3   OH267242   0.694   2.680   3.654 -0.5608  0.3394  0.0470
15276TIP3    H167243   0.612   2.683   3.704 -0.9390  0.9402 -0.5933
15276TIP3    H267244   0.713   2.587   3.644 -1.1179  0.2000  0.2668
15277TIP3   OH267245   5.597   4.550   5.611  0.5017  0.1360 -0.1846
15277TIP3    H167246   5.578   4.631   5.660  1.9453  1.4652 -1.7256
15277TIP3    H267247   5.516   4.500   5.618 -1.0190  2.3811 -0.4249
15278TIP3   OH267248   2.080   5.121  15.205  0.3781 -0.0824  0.0102
15278TIP3    H167249   2.002   5.066  15.208  1.8725 -2.4240 -1.1617
15278TIP3    H267250   2.146   5.073  15.255  0.9024  2.2243  1.6678
15279TIP3   OH267251   4.205   1.592   0.721  0.1194  0.2087 -0.4902
15279TIP3    H167252   4.111   1.596   0.707  0.0951 -0.9183 -0.7962
15279TIP3    H267253   4.231   1.509   0.681  1.3237  0.7481 -0.8774
15280TIP3   OH267254   5.274   1.852  11.791 -1.2281  0.1994 -0.5108
15280TIP3    H167255   5.239   1.941  11.786  1.5084  1.4376  0.5131
15280TIP3    H267256   5.200   1.799  11.821 -2.2399  2.6710  1.8420
15281TIP3   OH267257   1.712   5.945  16.896 -0.3417 -0.4419 -0.4106
15281TIP3    H167258   1.804   5.967  16.886 -0.4611 -0.4123 -1.5528
15281TIP3    H267259   1.712   5.861  16.943  0.1798  0.7282  1.8008
15282TIP3   OH267260   3.696   1.547  15.183 -0.4098  0.4598  0.2219
15282TIP3    H167261   3.729   1.579  15.099  2.8750 -0.8847  0.8522
15282TIP3    H267262   3.671   1.627  15.230  0.1065  1.4370 -1.0972
15283TIP3   OH267263   5.807   1.524   2.603 -0.4991 -0.5840 -1.1423
15283TIP3    H167264   5.767   1.570   2.677 -1.3203 -1.6992 -0.8685
15283TIP3    H267265   5.899   1.550   2.606 -1.1944  2.5437 -2.1457
15284TIP3   OH267266   0.330   5.252  16.267  0.1134 -0.3995 -0.1444
15284TIP3    H167267   0.410   5.257  16.215  0.0164 -1.3764 -0.3925
15284TIP3    H267268   0.308   5.344  16.284  1.3573 -0.1120  0.0531
15285TIP3   OH267269   1.113   2.904  13.148  0.1089 -0.2579  0.2942
15285TIP3    H167270   1.074   2.895  13.235  2.5529 -0.7293  1.4248
15285TIP3    H267271   1.084   2.826  13.100  0.0367 -0.8332  1.2502
15286TIP3   OH267272   1.465   5.780  14.343 -0.2176 -0.2015 -0.0410
15286TIP3    H167273   1.389   5.833  14.370  0.2972 -0.5212  2.2100
15286TIP3    H267274   1.539   5.824  14.384  0.5992 -0.9200 -0.7387
15287TIP3   OH267275   5.247   0.457   3.529  0.3016  0.0583  0.2056
15287TIP3    H167276   5.210   0.494   3.609  1.2881  2.5549 -0.3827
15287TIP3    H267277   5.327   0.413   3.558  0.2256  0.2433  0.7090
15288TIP3   OH267278   2.924   4.926   3.612  1.0189  0.0364 -0.3384
15288TIP3    H167279   2.918   4.963   3.700  3.6614  0.5170 -0.2603
15288TIP3    H267280   2.930   4.832   3.626 -0.5343 -0.0733 -0.1907
15289TIP3   OH267281   3.417   6.658  15.174 -0.4587  0.3085 -0.0381
15289TIP3    H167282   3.458   6.653  15.260 -1.9478 -0.2763  0.6681
15289TIP3    H267283   3.355   6.585  15.172 -0.0061 -0.0840 -1.8591
15290TIP3   OH267284   6.552   5.026   0.481 -0.0682  0.0130 -0.0507
15290TIP3    H167285   6.485   5.036   0.414 -1.0780  1.1124  1.0855
15290TIP3    H267286   6.504   5.011   0.562  1.1321 -1.3317  0.4504
15291TIP3   OH267287   4.923   5.051  16.312  0.0791 -0.1505  0.5659
15291TIP3    H167288   5.001   5.106  16.325  0.1416  0.0891 -0.6927
15291TIP3    H267289   4.901   5.062  16.219 -2.6861  1.4375  1.2886
15292TIP3   OH267290   0.535   1.902   3.092  0.0160 -0.1164  0.0998
15292TIP3    H167291   0.555   1.948   3.011 -0.1873 -0.1118  0.0512
15292TIP3    H267292   0.527   1.810   3.066 -1.8113  0.0840 -0.2209
15293TIP3   OH267293   1.567   0.671   0.593  0.1957  0.1010 -0.1812
15293TIP3    H167294   1.591   0.640   0.680  1.1597 -0.4385 -0.6286
15293TIP3    H267295   1.632   0.633   0.534  0.4527  1.6394 -0.9623
15294TIP3   OH267296   5.899   4.058  13.719  0.6966  0.7405 -0.5027
15294TIP3    H167297   5.841   4.043  13.644  0.9764 -2.4797 -0.2135
15294TIP3    H267298   5.840   4.073  13.793  0.3574  1.1766 -0.8575
15295TIP3   OH267299   2.201   6.482   1.345  0.3120  0.0295 -0.2728
15295TIP3    H167300   2.197   6.401   1.293 -1.6059  0.4460 -0.8320
15295TIP3    H267301   2.230   6.453   1.431 -2.1708 -1.6046  0.1106
15296TIP3   OH267302   6.111   5.477  13.048 -0.2726 -0.0653 -1.0325
15296TIP3    H167303   6.097   5.514  13.136  1.9262 -0.2054 -0.5672
15296TIP3    H267304   6.162   5.397  13.063  1.0198  0.4344 -2.4636
15297TIP3   OH267305   2.051   0.310  14.724  0.0985  0.1710  0.0904
15297TIP3    H167306   2.107   0.241  14.688  0.2783  1.0376 -1.3841
15297TIP3    H267307   2.007   0.269  14.798  2.8611 -0.4758  1.5120
15298TIP3   OH267308   4.871   2.102   0.837 -0.2554 -0.6891 -0.3400
15298TIP3    H167309   4.851   2.180   0.784 -1.7198 -0.9153 -0.1691
15298TIP3    H267310   4.911   2.137   0.916 -1.9763  0.0294  0.2577
15299TIP3   OH267311   5.588   2.966  12.337 -0.5224  0.4923 -0.1314
15299TIP3    H167312   5.659   3.008  12.385  0.0570 -0.7352  0.1180
15299TIP3    H267313   5.563   2.891  12.391 -0.1835 -0.6404 -1.4926
15300TIP3   OH267314   6.707   0.930   2.609 -0.0040 -0.0566  0.2820
15300TIP3    H167315   6.774   0.953   2.672 -1.2435 -1.7454  2.3667
15300TIP3    H267316   6.663   0.854   2.647 -4.2727  1.9594 -0.0152
15301TIP3   OH267317   3.009   4.382  11.932  0.0454  0.0712  0.1482
15301TIP3    H167318   3.043   4.293  11.918  1.5230  0.7110 -0.5123
15301TIP3    H267319   2.975   4.409  11.847 -1.1007 -0.1310  0.5331
15302TIP3   OH267320   3.926   5.979   4.457 -0.2271 -0.2607  0.2433
15302TIP3    H167321   3.915   6.045   4.525  1.8601  0.1003  0.2861
15302TIP3    H267322   3.965   5.904   4.502  1.1090 -0.0416 -0.5026
15303TIP3   OH267323   4.277   3.426  14.165 -0.8823 -0.1470  0.0138
15303TIP3    H167324   4.281   3.382  14.250 -0.8289 -1.2881 -0.5567
15303TIP3    H267325   4.367   3.456  14.150 -0.2069 -2.3474 -0.8232
15304TIP3   OH267326   0.884   1.015  17.330  0.7693 -0.8342  0.4219
15304TIP3    H167327   0.888   1.025  17.235 -0.2147  0.8258  0.5154
15304TIP3    H267328   0.962   1.058  17.363  0.0410  0.5104  0.4516
15305TIP3   OH267329   5.882   1.014   0.364 -0.6666  0.3312 -0.0846
15305TIP3    H167330   5.821   1.054   0.426 -0.5342  1.0669 -0.4246
15305TIP3    H267331   5.836   1.016   0.280 -0.2073  0.8263 -0.3301
15306TIP3   OH267332   2.892   1.784   5.334 -0.7132 -0.2178  0.7980
15306TIP3    H167333   2.866   1.875   5.324  1.4533  0.5305  1.4626
15306TIP3    H267334   2.835   1.736   5.273 -2.8467  1.3559  1.4515
15307TIP3   OH267335   1.126   2.030  12.271 -0.4066 -0.0010 -0.4674
15307TIP3    H167336   1.127   2.023  12.176 -0.8030  1.3000 -0.5786
15307TIP3    H267337   1.201   2.084  12.293  0.0083 -0.7451  0.0208
15308TIP3   OH267338   6.344   4.156  13.716 -0.4755 -0.6441 -0.3966
15308TIP3    H167339   6.276   4.115  13.663 -0.2527  1.3316 -2.3370
15308TIP3    H267340   6.377   4.085  13.773 -2.9858 -2.0218 -0.5449
15309TIP3   OH267341   1.144   6.616  15.465  0.7003 -0.0844  0.9210
15309TIP3    H167342   1.114   6.563  15.392  0.7678  1.1051 -0.0079
15309TIP3    H267343   1.215   6.565  15.505  0.3782 -0.9364  0.4289
15310TIP3   OH267344   0.562   5.592   3.422 -0.3264 -0.1628 -0.2506
15310TIP3    H167345   0.525   5.673   3.458  2.5336  0.4833  1.5352
15310TIP3    H267346   0.601   5.618   3.339 -0.5743 -0.0320 -0.3287
15311TIP3   OH267347   0.816   0.277   2.536  0.5864  0.1126 -0.3271
15311TIP3    H167348   0.747   0.249   2.596 -0.8392  2.0340 -0.9880
15311TIP3    H267349   0.897   0.262   2.584 -0.3612 -0.8231  1.0521
15312TIP3   OH267350   2.088   0.352  16.289  0.0624  0.3363  0.2530
15312TIP3    H167351   2.172   0.308  16.277  0.1287  0.5167  0.0326
15312TIP3    H267352   2.026   0.303  16.236 -0.0550 -0.0243  0.7152
15313TIP3   OH267353   5.029   4.602  16.322  0.0139  0.0659 -0.4391
15313TIP3    H167354   4.998   4.670  16.381  1.3102  1.4801 -1.3237
15313TIP3    H267355   4.999   4.629  16.235  0.4580 -0.5222 -0.7888
15314TIP3   OH267356   0.672   2.137   1.401 -0.4699  0.0276 -0.1120
15314TIP3    H167357   0.602   2.122   1.464 -0.5320  1.6167  0.2273
15314TIP3    H267358   0.751   2.103   1.444 -0.7198 -0.0335  0.2977
15315TIP3   OH267359   5.736   2.526   6.722 -0.2169  0.4695 -0.2092
15315TIP3    H167360   5.753   2.520   6.816  0.5825  1.2318 -0.2984
15315TIP3    H267361   5.664   2.464   6.707  0.1554 -0.2225  0.7728
15316TIP3   OH267362   1.360   2.911  16.401  0.2722  0.1873 -0.2811
15316TIP3    H167363   1.280   2.899  16.350  1.1694  0.8502 -1.9208
15316TIP3    H267364   1.333   2.897  16.492 -1.4617 -0.6710 -0.8852
15317TIP3   OH267365   5.467   1.008  10.896 -0.4828  0.0432  0.2058
15317TIP3    H167366   5.517   1.090  10.905 -1.6567  0.7836  0.1920
15317TIP3    H267367   5.525   0.941  10.933  0.3587  0.9332  0.5569
15318TIP3   OH267368   2.035   3.362  13.434  0.1087  0.1278  0.1537
15318TIP3    H167369   2.039   3.279  13.482  1.6343 -0.5899 -1.1028
15318TIP3    H267370   1.966   3.348  13.369 -0.6328  0.3972  0.8666
15319TIP3   OH267371   2.954   0.502  11.720  0.7263  0.5304 -0.2159
15319TIP3    H167372   2.963   0.597  11.720  0.8276  0.5226  0.0193
15319TIP3    H267373   2.970   0.476  11.629 -0.7049  0.8605 -0.5899
15320TIP3   OH267374   2.704   3.237  17.544 -0.2837  0.4839  0.4519
15320TIP3    H167375   2.776   3.176  17.559  0.3386  1.0529 -0.1597
15320TIP3    H267376   2.672   3.216  17.457 -0.3886  0.7092  0.4348
15321TIP3   OH267377   2.329   3.400  15.954 -0.1960 -0.2265 -0.1260
15321TIP3    H167378   2.376   3.473  15.993  0.0584 -0.5235  0.1326
15321TIP3    H267379   2.280   3.438  15.881  0.8536 -0.0024 -0.7342
15322TIP3   OH267380   4.255   1.917  13.179  0.7540 -0.3955 -0.4720
15322TIP3    H167381   4.202   1.916  13.259 -0.0383 -1.5404 -0.9854
15322TIP3    H267382   4.331   1.971  13.201 -0.0688  0.3390  0.6470
15323TIP3   OH267383   0.788   4.584  17.456  0.3621 -0.9064  0.1373
15323TIP3    H167384   0.753   4.664  17.496 -1.5594 -0.9880 -1.2346
15323TIP3    H267385   0.754   4.585  17.366  1.2771 -2.6793 -0.2797
15324TIP3   OH267386   2.179   5.318  12.224 -0.4739  0.5242  0.2620
15324TIP3    H167387   2.158   5.335  12.315 -0.7403 -1.2128  0.5664
15324TIP3    H267388   2.095   5.327  12.178 -0.4216  0.9825  0.2565
15325TIP3   OH267389   4.685   1.399   1.687  0.5510 -0.0873 -0.1302
15325TIP3    H167390   4.772   1.437   1.696  0.3916 -0.0012  1.3083
15325TIP3    H267391   4.694   1.310   1.722  0.1672 -0.2424 -0.4207
15326TIP3   OH267392   5.908   1.820   6.655 -1.1753  0.1550  0.4557
15326TIP3    H167393   5.843   1.788   6.717 -0.1822 -2.1233  0.4113
15326TIP3    H267394   5.951   1.741   6.622  0.1065  1.4587 -1.1716
15327TIP3   OH267395   1.586   5.392   2.444  0.3906 -0.0832  0.1593
15327TIP3    H167396   1.585   5.363   2.352 -1.8091 -0.8424  0.3689
15327TIP3    H267397   1.658   5.455   2.448  0.6326 -0.1222 -2.0520
15328TIP3   OH267398   4.791   3.299  14.378  0.2105 -0.0793 -0.4831
15328TIP3    H167399   4.834   3.222  14.416 -0.3129 -0.0997  0.0779
15328TIP3    H267400   4.849   3.372  14.400  0.3137 -0.2026 -0.3459
15329TIP3   OH267401   2.184   5.323   6.601 -0.0553 -0.8611  0.3455
15329TIP3    H167402   2.111   5.374   6.567 -0.0010 -1.2328 -0.3486
15329TIP3    H267403   2.256   5.387   6.610 -0.7307 -0.2713  2.0308
15330TIP3   OH267404   3.878   4.742   3.080  0.2693  0.2672  0.3624
15330TIP3    H167405   3.882   4.833   3.109  1.4480  0.0072  1.0858
15330TIP3    H267406   3.885   4.691   3.161  0.6616 -0.4647 -0.1221
15331TIP3   OH267407   0.192   5.704  16.119  0.1082  0.0019  0.2370
15331TIP3    H167408   0.154   5.678  16.035  2.0554 -1.1223 -0.3643
15331TIP3    H267409   0.283   5.727  16.098  0.0618  1.7905  1.7184
15332TIP3   OH267410   0.459   0.092   5.650  0.1932 -0.5946  0.2233
15332TIP3    H167411   0.377   0.053   5.622  0.1239 -0.9454  0.8836
15332TIP3    H267412   0.439   0.130   5.736  0.9348 -1.4839  0.8169
15333TIP3   OH267413   1.874   4.890  13.680 -0.3254  0.2618 -0.7182
15333TIP3    H167414   1.830   4.917  13.760  0.9205  2.8681 -0.8265
15333TIP3    H267415   1.821   4.927  13.610  1.1568  2.1648 -0.8927
15334TIP3   OH267416   5.317   4.606  15.613  0.6247 -0.2913 -0.2903
15334TIP3    H167417   5.318   4.551  15.691  0.3529  1.9269  1.3845
15334TIP3    H267418   5.232   4.588  15.572  0.1509 -0.4686  0.7341
15335TIP3   OH267419   1.597   5.174   6.909 -0.4879  0.0123 -0.4665
15335TIP3    H167420   1.636   5.230   6.843 -0.3987  1.3297  0.6553
15335TIP3    H267421   1.506   5.203   6.915 -0.2181  0.6764  0.7419
15336TIP3   OH267422   6.541   4.707   1.965 -0.5349  0.5338 -0.3363
15336TIP3    H167423   6.527   4.763   1.889 -1.3103  1.5999  0.5510
15336TIP3    H267424   6.480   4.740   2.031 -0.7640 -1.1459  0.3468
15337TIP3   OH267425   2.997   0.358   4.716 -0.2250 -0.0921  0.6498
15337TIP3    H167426   3.048   0.325   4.641 -0.3502 -2.0941  1.3896
15337TIP3    H267427   2.906   0.343   4.692 -0.2564 -1.1172  1.3123
15338TIP3   OH267428   6.395   4.544   3.100 -0.0779  0.0712  0.4669
15338TIP3    H167429   6.321   4.509   3.051 -2.0720  1.8834  1.9473
15338TIP3    H267430   6.449   4.588   3.035  0.3463 -2.1877 -0.8012
15339TIP3   OH267431   4.348   1.358   3.387 -0.3606  0.0416  0.3152
15339TIP3    H167432   4.379   1.437   3.430 -0.9512 -0.0796  0.9749
15339TIP3    H267433   4.396   1.287   3.430 -0.3786 -0.0169  0.2381
15340TIP3   OH267434   1.275   2.833  17.414 -0.0317 -0.1148 -0.0479
15340TIP3    H167435   1.271   2.739  17.432  0.4239  0.0679  1.1656
15340TIP3    H267436   1.204   2.870  17.466  0.9923  0.3950  1.0335
15341TIP3   OH267437   6.112   1.826  16.973 -0.6090  0.7186 -0.2496
15341TIP3    H167438   6.201   1.808  17.004 -0.5503  1.4392  0.0168
15341TIP3    H267439   6.095   1.758  16.908 -0.7602 -0.9071  1.3995
15342TIP3   OH267440   1.822   2.843   1.657  0.1994  0.1810 -0.1122
15342TIP3    H167441   1.830   2.802   1.571 -0.9562 -1.9701  0.7377
15342TIP3    H267442   1.909   2.832   1.697 -0.0507 -1.4417  0.0513
15343TIP3   OH267443   3.096   5.567   4.022 -0.3571 -0.5844  0.3819
15343TIP3    H167444   3.152   5.600   3.951 -0.2410 -2.7173 -0.5757
15343TIP3    H267445   3.019   5.624   4.019 -0.0552 -0.1919 -1.0245
15344TIP3   OH267446   1.326   0.811  13.071 -0.6207 -0.3409 -0.4965
15344TIP3    H167447   1.420   0.823  13.082 -1.0001  1.0573  1.7895
15344TIP3    H267448   1.299   0.885  13.016 -0.9803  2.1421  2.7403
15345TIP3   OH267449   6.267   3.821   6.865  0.5575 -0.6958 -0.2432
15345TIP3    H167450   6.303   3.787   6.783  1.1254 -1.7728  0.4338
15345TIP3    H267451   6.209   3.752   6.896 -0.8899  0.3614 -0.5101
15346TIP3   OH267452   3.654   6.266  15.946  0.5416 -0.6564  0.1496
15346TIP3    H167453   3.694   6.224  16.023 -2.5336 -0.0314  2.2552
15346TIP3    H267454   3.690   6.354  15.946  0.1974 -0.4967  1.2228
15347TIP3   OH267455   2.523   4.628  17.115  0.3282  0.0971  0.1288
15347TIP3    H167456   2.435   4.616  17.080  0.3287  1.2346 -0.3218
15347TIP3    H267457   2.573   4.553  17.084 -0.7628 -1.1888  1.3802
15348TIP3   OH267458   4.929   1.335   3.656 -0.1563  0.6266 -0.3672
15348TIP3    H167459   4.861   1.335   3.723  1.8714 -0.4802  1.8490
15348TIP3    H267460   4.885   1.364   3.577 -3.0538  0.4525  1.0609
15349TIP3   OH267461   3.073   3.014  13.763 -0.0906  0.3069  0.3322
15349TIP3    H167462   2.985   2.976  13.756 -0.0988  0.4705 -0.5576
15349TIP3    H267463   3.061   3.093  13.816 -0.4407  0.2075  0.4045
15350TIP3   OH267464   3.526   4.490   2.664  0.0958  0.2463 -0.4393
15350TIP3    H167465   3.456   4.479   2.600  0.3697  1.4188 -0.9683
15350TIP3    H267466   3.513   4.578   2.699 -0.6093 -0.6906  1.8430
15351TIP3   OH267467   6.599   0.303   0.230 -0.1464  0.3278  0.3943
15351TIP3    H167468   6.551   0.343   0.158  1.8559  0.4149 -0.9748
15351TIP3    H267469   6.629   0.377   0.283  0.1997  0.4088  0.0901
15352TIP3   OH267470   0.084   5.898  17.543 -0.1524  0.2500  1.1416
15352TIP3    H167471   0.077   5.986  17.508  3.5753 -0.2867 -1.5424
15352TIP3    H267472   0.088   5.910  17.638 -1.2177  2.7577  0.9258
15353TIP3   OH267473   3.758   0.540  14.719  0.2051  0.2817  0.0401
15353TIP3    H167474   3.784   0.499  14.636  0.5774 -0.8321  0.6761
15353TIP3    H267475   3.702   0.474  14.761  0.9191  0.3555  1.1563
15354TIP3   OH267476   0.924   1.138   5.573  0.1107  0.1961  0.7360
15354TIP3    H167477   0.844   1.153   5.624  0.5731  1.1812  1.2020
15354TIP3    H267478   0.970   1.069   5.621 -0.3790 -0.2711  0.5467
15355TIP3   OH267479   4.612   2.192  15.133  0.2381  0.4074  0.1262
15355TIP3    H167480   4.570   2.267  15.091  2.1264  1.3151 -0.2421
15355TIP3    H267481   4.701   2.222  15.153  0.4088 -1.0898  1.8169
15356TIP3   OH267482   5.483   5.365  15.009  0.1503  0.6194 -0.0723
15356TIP3    H167483   5.505   5.338  15.098 -0.5349  0.5990  0.0947
15356TIP3    H267484   5.387   5.371  15.008  0.1373  0.4608 -0.8510
15357TIP3   OH267485   3.312   4.925  13.682  0.3163  0.1839  0.4404
15357TIP3    H167486   3.389   4.875  13.657  0.4443 -0.0464  1.2530
15357TIP3    H267487   3.337   5.016  13.669  0.6948  0.1047  0.6081
15358TIP3   OH267488   2.831   0.659  15.794  0.3116 -0.8039 -0.1741
15358TIP3    H167489   2.819   0.606  15.873 -0.3252  0.0481  0.3190
15358TIP3    H267490   2.744   0.695  15.776  0.8550  0.5864 -0.1148
15359TIP3   OH267491   1.924   0.554   3.381  0.5236  0.3126  1.0898
15359TIP3    H167492   1.919   0.484   3.315  0.2679  0.6147  0.7850
15359TIP3    H267493   2.010   0.593   3.368 -0.5405  2.2025 -0.9728
15360TIP3   OH267494   1.721   2.289  13.796 -0.6742 -0.3937  0.4915
15360TIP3    H167495   1.672   2.308  13.716 -0.4638 -0.3839  0.3655
15360TIP3    H267496   1.741   2.375  13.833  0.3715 -0.3458 -0.1361
15361TIP3   OH267497   0.474   2.851   2.224 -0.5847 -0.0109 -0.3447
15361TIP3    H167498   0.484   2.763   2.189 -0.4063  0.4048 -1.3480
15361TIP3    H267499   0.455   2.906   2.148 -0.3707  0.8716  0.2236
15362TIP3   OH267500   6.576   6.086  11.204 -0.2070 -0.3013 -0.3335
15362TIP3    H167501   6.529   6.122  11.280 -1.4791 -2.2770 -0.1268
15362TIP3    H267502   6.513   6.027  11.162  1.7339 -2.2479 -0.6671
15363TIP3   OH267503   4.062   3.604   5.909  0.1854 -0.0385 -0.6369
15363TIP3    H167504   4.145   3.564   5.938  0.3603 -0.3477 -1.5177
15363TIP3    H267505   4.044   3.672   5.974  0.3488 -0.9554  0.4060
15364TIP3   OH267506   3.033   4.438  12.791 -0.4710 -0.4431  0.3306
15364TIP3    H167507   3.037   4.393  12.875 -1.8574 -0.6256  0.3282
15364TIP3    H267508   3.098   4.393  12.737 -1.9988 -2.7267  0.2388
15365TIP3   OH267509   3.330   1.144  16.694 -0.2316  0.5845  0.4433
15365TIP3    H167510   3.418   1.184  16.692  1.1831 -2.1410 -2.9495
15365TIP3    H267511   3.346   1.053  16.718 -2.8500  0.8832  4.1091
15366TIP3   OH267512   5.371   2.323  17.392 -0.5530 -0.3329 -0.6269
15366TIP3    H167513   5.369   2.352  17.483 -0.5210 -0.7355 -0.4921
15366TIP3    H267514   5.464   2.308  17.374 -0.5508 -0.1642 -0.7548
15367TIP3   OH267515   2.041   4.004   1.532 -0.5890 -0.5475  0.2009
15367TIP3    H167516   2.102   3.966   1.469 -0.3219 -0.8294  0.6332
15367TIP3    H267517   1.958   4.008   1.484 -0.5694 -1.4624  0.0752
15368TIP3   OH267518   1.448   1.499   4.280 -0.5854 -0.2059 -0.4500
15368TIP3    H167519   1.497   1.579   4.300  1.5810 -1.2855 -1.0832
15368TIP3    H267520   1.362   1.512   4.320  0.7009  1.2128  2.0801
15369TIP3   OH267521   1.574   3.670   3.495  0.0525 -0.0832  0.6300
15369TIP3    H167522   1.666   3.669   3.467 -0.9878 -0.5276 -3.2612
15369TIP3    H267523   1.555   3.578   3.516  0.2077 -0.1669  0.4126
15370TIP3   OH267524   5.705   0.401   4.084  0.3852  0.4326 -0.2435
15370TIP3    H167525   5.722   0.436   3.996 -1.7438  2.7249  0.1437
15370TIP3    H267526   5.776   0.339   4.099  1.6175  1.0089 -3.0125
15371TIP3   OH267527   5.775   3.358  16.748  0.1194 -0.2717  0.4126
15371TIP3    H167528   5.782   3.439  16.697 -0.7457 -1.5391 -1.8333
15371TIP3    H267529   5.683   3.333  16.742  0.5253 -1.8446  0.3699
15372TIP3   OH267530   1.031   2.389  17.604  0.2368  0.2265 -0.0147
15372TIP3    H167531   0.974   2.406  17.528 -0.1928  0.5283  0.3697
15372TIP3    H267532   0.973   2.348  17.669  0.1550  1.6249  0.8301
15373TIP3   OH267533   4.931   5.962  16.975  0.1233  0.2286  0.0544
15373TIP3    H167534   4.878   6.033  16.938  2.9592  1.9256 -1.0867
15373TIP3    H267535   5.020   5.981  16.946  1.3882 -2.5529  1.6983
15374TIP3   OH267536   4.836   5.562  12.838 -0.4148  0.0790  0.3579
15374TIP3    H167537   4.792   5.610  12.908 -0.4792  1.0134 -0.3222
15374TIP3    H267538   4.907   5.515  12.883  0.1237  1.3977  0.9147
15375TIP3   OH267539   1.817   1.229  15.665 -0.1454  0.2237  0.4774
15375TIP3    H167540   1.913   1.229  15.665 -0.0971 -1.2341  2.1173
15375TIP3    H267541   1.793   1.262  15.752 -1.0949 -0.4025  0.4713
15376TIP3   OH267542   5.238   3.946   1.108  0.1179 -0.0812 -0.2697
15376TIP3    H167543   5.175   3.924   1.176  1.5416 -1.4388  0.6820
15376TIP3    H267544   5.244   4.042   1.111 -0.9831 -0.0196  0.4336
15377TIP3   OH267545   6.664   4.143  14.058  0.1568 -0.0533  0.3635
15377TIP3    H167546   6.575   4.108  14.063 -1.5059  3.6924  0.0103
15377TIP3    H267547   6.664   4.199  13.981  3.0858 -0.4087 -0.0134
15378TIP3   OH267548   4.087   3.919  12.553 -0.2268  0.1883 -0.2189
15378TIP3    H167549   4.100   3.885  12.465 -1.5201 -0.4514 -0.1935
15378TIP3    H267550   4.165   3.893  12.602  0.1863 -0.0398 -0.9989
15379TIP3   OH267551   2.323   3.768  14.162 -0.6157 -0.3183  0.4793
15379TIP3    H167552   2.236   3.795  14.131  0.1636  0.9510 -0.7494
15379TIP3    H267553   2.329   3.675  14.141 -1.2551 -0.1574 -0.4759
15380TIP3   OH267554   5.100   2.404  16.636  0.0080 -0.0891  0.2421
15380TIP3    H167555   5.138   2.337  16.578  1.5373  1.5442 -0.7518
15380TIP3    H267556   5.007   2.401  16.617 -0.1681 -2.7112  1.1012
15381TIP3   OH267557   3.180   0.077  16.455 -0.2181  0.4464 -0.2398
15381TIP3    H167558   3.208   0.169  16.448  0.8326  0.0996 -0.7590
15381TIP3    H267559   3.099   0.081  16.506  0.8211  1.4920  1.4333
15382TIP3   OH267560   3.961   1.854   4.793  0.1722  0.3163  0.4105
15382TIP3    H167561   3.937   1.927   4.850 -1.1047  0.2440 -0.0042
15382TIP3    H267562   4.039   1.885   4.747  0.4133  0.9024  1.1847
15383TIP3   OH267563   3.595   5.962   1.312 -0.1624 -0.2686 -0.4160
15383TIP3    H167564   3.592   5.933   1.220  1.5175 -0.4970 -0.4250
15383TIP3    H267565   3.672   6.017   1.317 -0.4980  0.1157  0.7824
15384TIP3   OH267566   5.025   2.475  12.762  0.0610  0.0062  0.0415
15384TIP3    H167567   5.016   2.387  12.726  0.5915  0.6609 -1.7998
15384TIP3    H267568   5.060   2.528  12.689 -1.3057  1.9909  0.7400
15385TIP3   OH267569   2.611   2.531   4.036  0.8877 -0.6004 -0.4673
15385TIP3    H167570   2.589   2.592   3.966  0.9014 -1.7174 -1.4797
15385TIP3    H267571   2.672   2.579   4.092 -2.0191  1.7086  1.0156
15386TIP3   OH267572   0.019   2.718   3.346  0.1463  0.1881 -0.7080
15386TIP3    H167573   0.083   2.787   3.332  0.3627 -0.0817 -1.0621
15386TIP3    H267574  -0.065   2.763   3.347  0.2747  0.4383 -1.0773
15387TIP3   OH267575   3.394   6.004  15.217  0.5502 -0.0194 -0.0710
15387TIP3    H167576   3.313   5.972  15.178  1.1385 -2.8667  0.7952
15387TIP3    H267577   3.370   6.029  15.306  0.2984  0.9585 -0.4030
15388TIP3   OH267578   3.257   0.599  12.620 -0.0438 -0.3855 -0.4646
15388TIP3    H167579   3.162   0.590  12.612 -0.0214 -0.1089 -1.1353
15388TIP3    H267580   3.281   0.662  12.552  0.6100 -0.3890 -0.2460
15389TIP3   OH267581   4.012   1.856  16.699 -0.3748  0.6409 -0.0856
15389TIP3    H167582   4.004   1.866  16.794 -2.0124  2.8543 -0.3806
15389TIP3    H267583   4.085   1.912  16.675 -0.5775  0.8348 -0.2464
15390TIP3   OH267584   3.327   2.581  13.852 -0.5987 -0.4272 -0.1405
15390TIP3    H167585   3.294   2.670  13.840  0.7831  0.1387  0.0112
15390TIP3    H267586   3.391   2.570  13.781  1.1374 -0.3105  1.3426
15391TIP3   OH267587   3.837   4.704  13.345 -0.5544 -0.1732  0.1865
15391TIP3    H167588   3.869   4.661  13.265  0.4541  0.4484  0.2426
15391TIP3    H267589   3.749   4.667  13.358 -0.1919 -1.3057 -0.4330
15392TIP3   OH267590   3.668   0.066   3.927  0.4949 -0.4882 -0.7853
15392TIP3    H167591   3.722   0.026   3.859  0.1225  0.7925 -1.8772
15392TIP3    H267592   3.702   0.156   3.934  0.0371 -0.3806  0.1926
15393TIP3   OH267593   2.006   5.747   0.380 -0.4939  0.5881 -0.0416
15393TIP3    H167594   1.991   5.842   0.374 -1.4994  0.4027 -0.7635
15393TIP3    H267595   2.062   5.736   0.457 -1.0635  1.6985  0.5546
15394TIP3   OH267596   0.315   2.414  12.337  0.1515  0.7124 -0.3820
15394TIP3    H167597   0.246   2.358  12.301  0.2922  0.7944 -0.7871
15394TIP3    H267598   0.288   2.430  12.427 -0.3335  0.7023 -0.5219
15395TIP3   OH267599   2.709   1.720  12.033 -0.5599  0.0169 -0.1994
15395TIP3    H167600   2.708   1.815  12.019  0.2139 -0.0423 -0.7088
15395TIP3    H267601   2.660   1.707  12.114  0.0197  0.9302  0.3077
15396TIP3   OH267602   6.066   6.617   1.406 -0.7961  0.0364  0.5070
15396TIP3    H167603   6.141   6.644   1.458 -0.4358 -0.4065  0.2262
15396TIP3    H267604   6.082   6.655   1.320 -1.1353  0.3418  0.5783
15397TIP3   OH267605   2.222   2.819   3.596 -0.2810 -0.3683 -0.1188
15397TIP3    H167606   2.166   2.895   3.579 -0.5422 -0.7174 -0.8703
15397TIP3    H267607   2.174   2.745   3.558 -0.1636 -0.9582  0.8664
15398TIP3   OH267608   1.080   6.352   6.590  0.4969 -0.1346  0.0881
15398TIP3    H167609   1.130   6.325   6.667  1.0684  1.6430  0.3854
15398TIP3    H267610   0.991   6.361   6.622  0.2676 -1.6669 -0.0416
15399TIP3   OH267611   3.590   1.488   5.641 -0.3061 -0.7529  0.4247
15399TIP3    H167612   3.635   1.404   5.642 -0.3793 -0.7954  0.1422
15399TIP3    H267613   3.592   1.517   5.732  2.0492  0.1940  0.1338
15400TIP3   OH267614   4.929   1.515   2.529  0.3078  0.1184 -0.0557
15400TIP3    H167615   4.901   1.458   2.601  0.0474 -0.1584 -0.3735
15400TIP3    H267616   4.923   1.460   2.451  1.5200  0.1074 -0.1720
15401TIP3   OH267617   3.757   3.576  14.874 -0.0141  0.1046 -0.2055
15401TIP3    H167618   3.822   3.629  14.828  0.9180  0.7501  1.7700
15401TIP3    H267619   3.770   3.487  14.840  2.6852 -0.0014  0.9006
15402TIP3   OH267620   1.369   5.287   5.007  0.2317 -0.2569  0.3438
15402TIP3    H167621   1.417   5.314   5.084 -0.1266 -1.1196  0.8895
15402TIP3    H267622   1.300   5.230   5.041  1.2627 -2.2672 -0.7590
15403TIP3   OH267623   0.796   3.489  14.451 -0.2224 -0.2833 -0.3442
15403TIP3    H167624   0.761   3.435  14.522 -0.3982 -0.1620 -0.3379
15403TIP3    H267625   0.718   3.525  14.408 -0.1454 -1.0212 -1.1133
15404TIP3   OH267626   0.787   6.086  11.823  0.0951 -0.5059 -0.3410
15404TIP3    H167627   0.782   6.173  11.861 -1.4131 -0.0039 -1.5998
15404TIP3    H267628   0.872   6.084  11.779 -0.4686  0.9259 -1.5909
15405TIP3   OH267629   2.293   2.980   5.307  0.1103  0.0644 -0.5820
15405TIP3    H167630   2.287   2.996   5.401  0.6721  0.0604 -0.5401
15405TIP3    H267631   2.206   2.951   5.282 -0.2051  0.6257 -0.1704
15406TIP3   OH267632   0.652   0.201   2.735 -0.1383  0.7416  0.4133
15406TIP3    H167633   0.601   0.157   2.667  0.8657 -1.5545  1.0583
15406TIP3    H267634   0.617   0.167   2.818  2.3356 -0.9570  0.8768
15407TIP3   OH267635   3.372   5.473   5.562  0.4402 -0.3147 -0.7458
15407TIP3    H167636   3.394   5.392   5.609  2.2033  0.3734 -0.3070
15407TIP3    H267637   3.455   5.501   5.524 -0.0412  1.5603 -0.4882
15408TIP3   OH267638   1.132   1.310   4.128  0.3167 -0.5398  0.0111
15408TIP3    H167639   1.227   1.303   4.127  0.3674  0.0399  0.4237
15408TIP3    H267640   1.103   1.233   4.178  0.6121 -0.3017  0.5585
15409TIP3   OH267641   6.615   0.080   2.305 -0.3258 -0.1590 -0.4467
15409TIP3    H167642   6.666   0.023   2.248  0.5936  0.5522 -0.3657
15409TIP3    H267643   6.681   0.128   2.356 -1.0488  1.1914 -0.7225
15410TIP3   OH267644   1.347   1.707   0.474  0.0635 -0.1400 -0.7744
15410TIP3    H167645   1.395   1.752   0.544 -0.8331 -2.0285  1.1849
15410TIP3    H267646   1.305   1.777   0.424 -0.5824  1.2744  1.5979
15411TIP3   OH267647   6.576   1.638   1.678 -0.1594 -0.5525  0.3134
15411TIP3    H167648   6.618   1.698   1.617 -1.4581  0.9945  0.8874
15411TIP3    H267649   6.489   1.674   1.692  0.2168 -0.5265  3.4206
15412TIP3   OH267650   1.527   6.649  15.332 -0.4444  0.0756  0.6705
15412TIP3    H167651   1.538   6.672  15.239  0.4490 -1.4574  0.3714
15412TIP3    H267652   1.570   6.720  15.379 -0.4515  0.6072 -0.1046
15413TIP3   OH267653   5.398   5.553   5.779 -0.0591  0.0128  0.1447
15413TIP3    H167654   5.470   5.500   5.815  0.1529  1.5499  2.1385
15413TIP3    H267655   5.400   5.534   5.685  1.8835 -1.2599  0.3703
15414TIP3   OH267656   5.945   2.920  12.252  0.9607 -0.0385 -0.0963
15414TIP3    H167657   6.036   2.891  12.254  0.3105 -2.2654  1.1319
15414TIP3    H267658   5.901   2.858  12.194  0.2074  1.0063 -0.6712
15415TIP3   OH267659   6.317   0.440  14.687  0.3338  0.0825  0.2749
15415TIP3    H167660   6.405   0.406  14.701  0.9453  1.4427 -0.1348
15415TIP3    H267661   6.327   0.535  14.689 -1.1500  0.2608  0.3376
15416TIP3   OH267662   4.230   3.675   4.047  0.3681 -0.0038 -0.0679
15416TIP3    H167663   4.307   3.701   3.997 -0.1786 -2.4848 -2.5174
15416TIP3    H267664   4.157   3.715   4.000 -0.2693 -3.4609 -2.3936
15417TIP3   OH267665   6.295   5.911   5.241 -0.5134  0.2028  0.0354
15417TIP3    H167666   6.208   5.879   5.264 -0.4390 -0.2035 -0.2387
15417TIP3    H267667   6.279   5.994   5.195 -0.7581  0.0997 -0.0641
15418TIP3   OH267668   0.491   6.263  14.346 -0.9461 -0.2134  0.5203
15418TIP3    H167669   0.406   6.267  14.391 -0.9366  0.0099  0.5195
15418TIP3    H267670   0.497   6.347  14.300 -0.3293  0.1423  1.2375
15419TIP3   OH267671   4.508   4.599  11.426  0.0078 -0.4203 -0.3735
15419TIP3    H167672   4.534   4.516  11.385 -2.0035 -0.9321 -0.7012
15419TIP3    H267673   4.581   4.620  11.484  0.7970 -2.1670 -0.6480
15420TIP3   OH267674   5.336   2.096  12.596  0.7341  0.0175  0.2369
15420TIP3    H167675   5.262   2.044  12.565 -1.7015 -0.7521  6.0021
15420TIP3    H267676   5.297   2.175  12.633  3.0694  0.7681  1.3036
15421TIP3   OH267677   0.644   5.269   5.896  0.2720 -0.7158 -0.2496
15421TIP3    H167678   0.627   5.341   5.835  2.8305  0.2154  0.0121
15421TIP3    H267679   0.614   5.191   5.850 -0.3264  0.2393 -1.5659
15422TIP3   OH267680   1.015   5.361   3.297  0.0297 -0.1156  0.2059
15422TIP3    H167681   1.054   5.445   3.273  0.9102 -0.1199  1.5700
15422TIP3    H267682   0.921   5.374   3.281  0.4809 -0.0962 -3.0689
15423TIP3   OH267683   0.399   5.210  17.468 -0.3912  0.0731 -0.2389
15423TIP3    H167684   0.347   5.179  17.394  0.3543  1.0463 -1.2035
15423TIP3    H267685   0.486   5.225  17.432  0.3967 -0.8158  1.1753
15424TIP3   OH267686   3.186   5.362   0.407 -0.1615  0.1437  0.4947
15424TIP3    H167687   3.247   5.434   0.394 -0.5777  0.7868  1.9110
15424TIP3    H267688   3.175   5.323   0.320  1.1970  0.8608 -0.0186
15425TIP3   OH267689   1.868   2.036  12.154  0.0047  0.0146  0.5591
15425TIP3    H167690   1.948   2.075  12.119  0.4963 -0.5951  0.9678
15425TIP3    H267691   1.823   2.001  12.077  0.4511 -0.1922  0.3815
15426TIP3   OH267692   2.047   5.045   4.125  0.3589 -0.6196  0.5972
15426TIP3    H167693   2.014   5.133   4.139 -0.1082 -0.8816  1.1896
15426TIP3    H267694   2.043   5.033   4.030  2.2729  0.6897  0.3040
15427TIP3   OH267695   3.146   0.804   1.082  0.2596 -0.1614 -0.1098
15427TIP3    H167696   3.059   0.780   1.112 -0.0763  0.3628 -0.6404
15427TIP3    H267697   3.133   0.885   1.032  1.1409  0.3175  0.3920
15428TIP3   OH267698   4.342   4.225   4.760  0.0241  0.1689 -0.2180
15428TIP3    H167699   4.384   4.295   4.811  1.4000 -0.3115 -0.6440
15428TIP3    H267700   4.318   4.159   4.824  0.7546  0.0531 -0.0574
15429TIP3   OH267701   6.519   2.404  13.019 -0.3894 -0.0554  0.6348
15429TIP3    H167702   6.447   2.349  12.989 -0.5578  0.5305 -0.0656
15429TIP3    H267703   6.586   2.342  13.049 -1.1810 -0.6091  1.3194
15430TIP3   OH267704   0.218   1.628  16.553 -0.1477 -0.9270  0.0333
15430TIP3    H167705   0.299   1.583  16.528 -0.4023 -0.6461 -1.3504
15430TIP3    H267706   0.149   1.581  16.506 -0.4132  0.9628 -1.6055
15431TIP3   OH267707   2.387   0.610  13.805 -0.2559  0.0799  0.0481
15431TIP3    H167708   2.437   0.689  13.787 -1.5997  1.3696  1.5871
15431TIP3    H267709   2.435   0.566  13.876  0.9430 -0.9956 -1.3641
15432TIP3   OH267710   4.123   2.386  16.261 -0.1705 -0.1202 -0.7059
15432TIP3    H167711   4.217   2.397  16.273 -0.0514 -1.0993 -0.6695
15432TIP3    H267712   4.099   2.317  16.323 -0.7446 -0.5211 -1.3596
15433TIP3   OH267713   4.996   0.299  12.858 -0.6486 -0.3289  0.5777
15433TIP3    H167714   5.070   0.315  12.917 -1.0376 -0.7025  1.1788
15433TIP3    H267715   5.016   0.215  12.817  1.6650  1.7204 -2.9910
15434TIP3   OH267716   4.866   5.748   0.676  0.1869 -0.4833  0.2525
15434TIP3    H167717   4.846   5.698   0.597  1.5085 -1.4213  0.4818
15434TIP3    H267718   4.809   5.712   0.743 -1.6865  0.9980 -0.4430
15435TIP3   OH267719   6.280   3.108   3.780  0.1895 -0.0960  0.0678
15435TIP3    H167720   6.224   3.030   3.786  0.0253 -0.0073 -0.2645
15435TIP3    H267721   6.366   3.078   3.809  0.8442 -1.1477 -2.6513
15436TIP3   OH267722   1.672   5.582   5.750 -0.7931 -0.2399 -0.4396
15436TIP3    H167723   1.598   5.524   5.733 -0.3538 -0.6180 -1.1030
15436TIP3    H267724   1.743   5.547   5.697 -0.1737  0.2056  0.0715
15437TIP3   OH267725   4.802   0.634  14.959  0.1784 -0.5028 -0.0495
15437TIP3    H167726   4.761   0.572  15.019  0.7059  0.0213  0.8910
15437TIP3    H267727   4.783   0.720  14.997 -0.0042 -0.1144 -0.9826
15438TIP3   OH267728   3.714   0.637  12.554  0.4871 -0.2290 -0.6595
15438TIP3    H167729   3.725   0.585  12.634 -0.8603 -1.2572 -1.0933
15438TIP3    H267730   3.798   0.629  12.509  1.4693  0.8274  0.8705
15439TIP3   OH267731   3.271   1.380  14.782  0.2504  0.5946 -0.1311
15439TIP3    H167732   3.237   1.403  14.696 -0.9300  0.9783  0.4023
15439TIP3    H267733   3.296   1.464  14.821 -0.0254  0.5266  0.2046
15440TIP3   OH267734   6.328   4.409  13.809  0.5579 -0.2793  0.3282
15440TIP3    H167735   6.325   4.316  13.784  2.8099 -0.5691  0.9442
15440TIP3    H267736   6.260   4.417  13.876 -0.3369 -1.2287 -0.4195
15441TIP3   OH267737   3.218   6.389  17.544 -0.1566  0.0236  0.0615
15441TIP3    H167738   3.264   6.320  17.593  0.4703  0.3057 -0.1157
15441TIP3    H267739   3.286   6.454  17.526 -0.4575  0.0878 -0.8855
15442TIP3   OH267740   5.625   2.045   3.085 -0.0246  0.5299 -0.1111
15442TIP3    H167741   5.619   2.093   3.167 -0.9280  0.2626 -0.0144
15442TIP3    H267742   5.681   2.100   3.030  0.4012  0.8186  0.5942
15443TIP3   OH267743   2.255   2.893  17.456  0.1256  0.0066 -0.1162
15443TIP3    H167744   2.309   2.901  17.535 -0.3344 -1.1602  0.3466
15443TIP3    H267745   2.172   2.934  17.481 -0.1348 -0.6619  0.1308
15444TIP3   OH267746   4.432   3.440   4.226 -0.4689  0.2450 -0.2011
15444TIP3    H167747   4.464   3.528   4.205  2.5734 -0.6096  0.3130
15444TIP3    H267748   4.470   3.421   4.311 -0.5093 -1.7869 -0.5943
15445TIP3   OH267749   2.042   4.743   5.322  0.2521  0.6878 -0.3148
15445TIP3    H167750   1.959   4.754   5.367  0.0737 -0.0477 -0.4449
15445TIP3    H267751   2.101   4.708   5.389 -0.1476 -0.8865 -0.7353
15446TIP3   OH267752   3.300   2.837  13.743  0.0468 -0.0204 -0.3981
15446TIP3    H167753   3.219   2.887  13.751 -0.5273 -1.0378  0.3030
15446TIP3    H267754   3.356   2.892  13.688 -2.0484 -0.4720 -3.1954
15447TIP3   OH267755   4.579   3.178  16.309 -0.2842  0.1731  0.4457
15447TIP3    H167756   4.564   3.220  16.393 -0.5101 -0.7676  0.8861
15447TIP3    H267757   4.520   3.102  16.309  0.6736 -0.5965  0.0048
15448TIP3   OH267758   4.469   5.744  11.299  0.0430 -0.0904 -0.0850
15448TIP3    H167759   4.549   5.696  11.321 -0.1067 -0.5953 -0.6258
15448TIP3    H267760   4.398   5.685  11.326 -0.2095  1.0548  2.0395
15449TIP3   OH267761   4.480   2.414  15.052 -0.7821 -0.1932 -0.2087
15449TIP3    H167762   4.419   2.445  14.985 -1.8521 -0.9582  0.3856
15449TIP3    H267763   4.441   2.441  15.135  0.6016  0.8692  0.1383
15450TIP3   OH267764   6.227   4.096  16.958 -0.1584  0.7558  0.3261
15450TIP3    H167765   6.134   4.110  16.944 -0.8830 -3.1703  0.1798
15450TIP3    H267766   6.265   4.100  16.870 -0.4917  0.6670  0.1749
15451TIP3   OH267767   4.432   0.828   2.502 -0.4543 -0.0697  0.2655
15451TIP3    H167768   4.417   0.826   2.597 -0.6125 -1.6787  0.2339
15451TIP3    H267769   4.373   0.761   2.467  0.9364 -0.8249 -0.7438
15452TIP3   OH267770   4.691   3.483  15.874  0.2864  0.3661  0.2999
15452TIP3    H167771   4.701   3.408  15.932  0.1217  0.5672  0.5909
15452TIP3    H267772   4.654   3.446  15.793  0.4313  0.0989  0.3540
15453TIP3   OH267773   3.617   4.507   3.906 -0.5268 -0.1540  0.5152
15453TIP3    H167774   3.602   4.444   3.835 -1.9756 -0.7422  1.3120
15453TIP3    H267775   3.674   4.573   3.867 -2.3875  0.2967 -1.6719
15454TIP3   OH267776   4.245   3.906   5.846 -0.0224  0.0727 -0.3096
15454TIP3    H167777   4.190   3.980   5.822  0.3579  0.2115 -0.7832
15454TIP3    H267778   4.192   3.829   5.826 -0.9703  0.2081  1.5197
15455TIP3   OH267779   1.029   5.070   4.703 -0.0956 -0.0282 -0.3639
15455TIP3    H167780   1.109   5.018   4.704  1.1277  1.7578  1.2984
15455TIP3    H267781   1.044   5.136   4.636 -0.1485  0.3620  0.0079
15456TIP3   OH267782   6.498   2.877  16.259 -0.6483  0.0161  0.5446
15456TIP3    H167783   6.430   2.819  16.293 -1.8097  1.2618  0.4535
15456TIP3    H267784   6.565   2.878  16.327 -0.2115 -2.0124  0.2073
15457TIP3   OH267785   4.236   1.076  15.570 -0.1711 -0.5223 -0.2066
15457TIP3    H167786   4.186   1.113  15.643 -0.0371  0.5362 -0.6235
15457TIP3    H267787   4.180   1.090  15.494  1.6029  2.8520 -1.0948
15458TIP3   OH267788   1.566   2.741  12.205 -0.1491  0.3764  0.0312
15458TIP3    H167789   1.488   2.795  12.219 -0.2375  0.7094 -1.5171
15458TIP3    H267790   1.638   2.804  12.204  0.6189 -0.1471  4.1080
15459TIP3   OH267791   4.837   3.354   1.083  0.3873  0.2646 -0.0991
15459TIP3    H167792   4.753   3.336   1.125 -0.3495  1.3325 -1.0501
15459TIP3    H267793   4.885   3.272   1.089 -0.8677 -0.4708  0.1475
15460TIP3   OH267794   0.036   1.560   4.901  0.1770 -0.2292 -0.2031
15460TIP3    H167795   0.080   1.530   4.821  2.2201  1.0964  0.3529
15460TIP3    H267796  -0.045   1.601   4.869 -0.6020 -2.4377 -1.2848
15461TIP3   OH267797   1.901   5.455   4.661 -0.4855  0.1123  0.0570
15461TIP3    H167798   1.818   5.502   4.670 -0.4897  0.0465  0.3783
15461TIP3    H267799   1.883   5.368   4.697 -0.0004  0.4240  1.0848
15462TIP3   OH267800   0.623   0.331  17.606  0.0756 -0.7389 -0.3904
15462TIP3    H167801   0.577   0.317  17.689 -1.0495  1.6394 -0.5446
15462TIP3    H267802   0.664   0.417  17.615  3.5504 -2.1833 -0.7806
15463TIP3   OH267803   4.385   0.983   0.607 -0.5568 -0.3689  0.1387
15463TIP3    H167804   4.432   1.040   0.546 -0.1030 -1.0656 -0.1652
15463TIP3    H267805   4.293   0.996   0.585 -0.3595 -1.5605 -1.5824
15464TIP3   OH267806   6.141   3.895  11.753 -0.4672  0.2735  0.0345
15464TIP3    H167807   6.085   3.925  11.681  0.8603 -0.1537 -1.2316
15464TIP3    H267808   6.172   3.976  11.794  0.3777  0.6129 -1.2026
15465TIP3   OH267809   6.654   5.464   5.313  0.3797 -0.1836 -0.1312
15465TIP3    H167810   6.607   5.381   5.309  1.2426 -0.6850 -0.2172
15465TIP3    H267811   6.723   5.455   5.247  0.6857  0.4710  0.0926
15466TIP3   OH267812   5.595   0.655  16.096 -0.1428 -0.4898 -0.1381
15466TIP3    H167813   5.520   0.656  16.037 -0.1498  0.8092 -0.1238
15466TIP3    H267814   5.593   0.740  16.139  1.4038 -0.3913 -0.2228
15467TIP3   OH267815   0.119   0.474  14.694  0.9347  0.2411  0.1743
15467TIP3    H167816   0.146   0.445  14.782  0.5504 -0.5054  0.0517
15467TIP3    H267817   0.162   0.412  14.635  1.6504  1.0807 -0.2055
15468TIP3   OH267818   6.103   1.333  16.220  0.2119 -0.3393 -0.1666
15468TIP3    H167819   6.166   1.399  16.249 -0.5855 -0.1034  1.0995
15468TIP3    H267820   6.090   1.351  16.127 -0.2274  1.5258  0.2115
15469TIP3   OH267821   2.419   1.457  13.891 -0.5027 -0.2214  0.3498
15469TIP3    H167822   2.345   1.476  13.832 -0.0186 -1.1445 -0.5834
15469TIP3    H267823   2.377   1.431  13.973 -1.1925  0.9752  0.4102
15470TIP3   OH267824   5.911   5.019   2.990  0.3413 -0.1539  1.0243
15470TIP3    H167825   5.842   4.988   2.932  0.2384  0.4321  0.8226
15470TIP3    H267826   5.931   5.107   2.959  2.5797 -1.0031 -0.1805
15471TIP3   OH267827   5.361   6.374   0.606  0.3444 -0.5435  0.0345
15471TIP3    H167828   5.362   6.280   0.586  1.1277 -0.4757 -0.2965
15471TIP3    H267829   5.453   6.397   0.617  0.2777  0.4901 -1.3276
15472TIP3   OH267830   0.960   3.969   3.125  0.2293 -0.5875  0.1105
15472TIP3    H167831   0.976   4.058   3.094  2.2577  0.1061  2.7499
15472TIP3    H267832   0.868   3.968   3.149 -0.2323  0.2337 -1.4780
15473TIP3   OH267833   5.931   0.171   4.559  0.1472  0.1491  0.5020
15473TIP3    H167834   5.981   0.102   4.514 -1.4163 -0.6538 -0.0921
15473TIP3    H267835   5.905   0.230   4.489 -2.0853 -0.9683  0.2956
15474TIP3   OH267836   2.012   5.316   2.646  0.4306 -0.0309 -0.6117
15474TIP3    H167837   1.986   5.227   2.624 -0.4434  0.0782 -0.0712
15474TIP3    H267838   2.048   5.351   2.565  0.6231 -0.8172 -0.8764
15475TIP3   OH267839   1.827   1.149   2.776 -0.1615 -0.3343  0.2828
15475TIP3    H167840   1.849   1.101   2.856 -1.7539 -1.3330  0.1776
15475TIP3    H267841   1.814   1.080   2.711  2.8516  0.4906 -1.4017
15476TIP3   OH267842   2.769   0.234   0.678 -0.1490 -0.1981  0.0368
15476TIP3    H167843   2.720   0.313   0.700 -2.2975 -1.7410  1.0936
15476TIP3    H267844   2.725   0.164   0.725  2.2743 -1.9362 -0.0704
15477TIP3   OH267845   1.742   4.242  16.025 -0.3997  0.0959  0.1412
15477TIP3    H167846   1.821   4.190  16.014  0.1812  1.0946 -0.4799
15477TIP3    H267847   1.677   4.179  16.059  0.3039 -1.0033 -0.4820
15478TIP3   OH267848   2.770   0.121   1.250  0.0767 -0.0152  0.3052
15478TIP3    H167849   2.818   0.052   1.297 -0.2896 -0.0841  0.5781
15478TIP3    H267850   2.706   0.153   1.313  0.4225  0.7677  0.2770
15479TIP3   OH267851   5.037   2.754  13.818  0.5404 -0.5020 -0.3392
15479TIP3    H167852   5.047   2.846  13.794  0.7130 -0.4897 -0.2197
15479TIP3    H267853   5.062   2.705  13.740 -0.7025 -0.4288 -0.8102
15480TIP3   OH267854   5.446   0.302  16.507 -0.1683  0.9241  0.0714
15480TIP3    H167855   5.530   0.330  16.472 -1.2974  1.3170 -2.5372
15480TIP3    H267856   5.410   0.380  16.550 -0.0182  1.2863 -0.4574
15481TIP3   OH267857   6.025   1.951  14.014  0.1932 -0.1939 -0.2630
15481TIP3    H167858   5.938   1.916  13.993 -0.2023  0.6414 -0.0773
15481TIP3    H267859   6.073   1.947  13.931  0.2297 -1.3160 -0.2083
15482TIP3   OH267860   5.793   5.478   0.913 -0.3736  0.0330  0.4956
15482TIP3    H167861   5.765   5.512   0.998  0.1393 -0.3563  0.8219
15482TIP3    H267862   5.886   5.499   0.908 -0.2921 -0.3866  0.2452
15483TIP3   OH267863   6.595   1.643   4.392  0.2010 -0.3202 -0.4539
15483TIP3    H167864   6.605   1.617   4.301 -0.7991  0.3697 -0.7744
15483TIP3    H267865   6.570   1.563   4.438 -1.2138 -0.2821 -1.1338
15484TIP3   OH267866   1.044   4.758   3.626 -0.6217  0.0864 -0.2080
15484TIP3    H167867   0.962   4.791   3.663 -1.0409 -0.5653 -0.5365
15484TIP3    H267868   1.025   4.742   3.534 -0.3022 -0.6067 -0.1678
15485TIP3   OH267869   2.653   2.769   6.105 -0.0013 -0.2478  0.4071
15485TIP3    H167870   2.620   2.695   6.054 -1.5212  0.1673  0.7322
15485TIP3    H267871   2.613   2.758   6.191  0.7261  0.2984  0.8219
15486TIP3   OH267872   4.552   4.153  16.484  0.8690  0.4871 -0.0979
15486TIP3    H167873   4.549   4.249  16.486 -0.6147  0.4626  1.3482
15486TIP3    H267874   4.632   4.131  16.532  2.3616  0.9684 -2.2191
15487TIP3   OH267875   5.639   4.446   0.743 -0.0304 -0.0714  0.2667
15487TIP3    H167876   5.601   4.447   0.831  0.2330  1.2440  0.3713
15487TIP3    H267877   5.564   4.428   0.686  0.1403 -3.5545  0.8592
15488TIP3   OH267878   6.031   4.549  12.083  0.1710 -0.0078 -0.2398
15488TIP3    H167879   6.122   4.561  12.055  0.0991  0.3759 -0.3093
15488TIP3    H267880   6.037   4.530  12.176  0.2718  0.8475 -0.0636
15489TIP3   OH267881   2.376   1.290   2.210  0.2440 -0.4234  0.5449
15489TIP3    H167882   2.373   1.347   2.133 -1.1580  1.7330  2.0803
15489TIP3    H267883   2.470   1.284   2.231  0.6545 -1.0044 -1.2203
15490TIP3   OH267884   1.156   1.333   2.225  0.2089  0.4914 -0.1910
15490TIP3    H167885   1.210   1.380   2.289 -0.9297  2.3629 -0.5237
15490TIP3    H267886   1.076   1.311   2.273 -0.1699  0.8690 -0.6395
15491TIP3   OH267887   4.633   6.603   3.146  0.1830 -0.8647 -0.8495
15491TIP3    H167888   4.718   6.619   3.185 -0.2035  1.0465 -0.6598
15491TIP3    H267889   4.595   6.531   3.197  0.1802  0.7404  1.5773
15492TIP3   OH267890   1.350   5.665   4.795 -0.1872 -0.0371 -0.8107
15492TIP3    H167891   1.319   5.575   4.804 -0.1108  0.0127 -0.0175
15492TIP3    H267892   1.350   5.681   4.700 -0.9671 -0.5976 -0.9078
15493TIP3   OH267893   2.826   0.223   2.597 -0.0513 -0.0765  0.2039
15493TIP3    H167894   2.827   0.129   2.583  1.5636 -0.3881  2.0153
15493TIP3    H267895   2.738   0.250   2.573 -0.4534 -1.9905 -0.6365
15494TIP3   OH267896   2.224   5.399   2.821  0.4816 -0.2677  0.4968
15494TIP3    H167897   2.269   5.324   2.860 -0.8466 -1.0009  0.7018
15494TIP3    H267898   2.150   5.360   2.774  0.9287  0.7604 -1.1175
15495TIP3   OH267899   6.108   2.806   0.491  0.0233  0.1998  0.4721
15495TIP3    H167900   6.031   2.863   0.491 -0.1827 -0.0158 -1.2011
15495TIP3    H267901   6.166   2.843   0.558 -1.2970  0.6739  1.3911
15496TIP3   OH267902   5.266   1.368  15.019 -0.4486 -0.2850  0.3130
15496TIP3    H167903   5.313   1.286  15.002 -1.0719 -0.7308  0.7128
15496TIP3    H267904   5.335   1.429  15.047  0.2770 -0.1701 -1.5813
15497TIP3   OH267905   1.310   2.046  16.671 -0.3881  0.0953 -0.1413
15497TIP3    H167906   1.232   2.020  16.721  1.3237 -0.6311  2.3589
15497TIP3    H267907   1.348   1.964  16.642  0.7605  0.2485  0.8557
15498TIP3   OH267908   5.498   3.856  10.943  0.1554 -0.4477 -0.5056
15498TIP3    H167909   5.560   3.927  10.926  0.5790 -0.9257 -0.9766
15498TIP3    H267910   5.426   3.872  10.882  1.2534 -1.6377 -2.2219
15499TIP3   OH267911   2.670   0.688  14.140  0.1159 -0.1977 -0.4899
15499TIP3    H167912   2.747   0.648  14.098  0.6239  1.1923 -0.9500
15499TIP3    H267913   2.700   0.775  14.164 -1.0695  0.0389  0.1534
15500TIP3   OH267914   6.311   4.303  14.141 -0.0386  0.7671 -0.1774
15500TIP3    H167915   6.221   4.275  14.152 -1.3041  4.8017  1.5748
15500TIP3    H267916   6.349   4.299  14.228  1.4535 -0.5895 -0.8371
15501TIP3   OH267917   5.079   0.546   4.480  0.2373 -0.2222 -0.1903
15501TIP3    H167918   5.019   0.594   4.424  0.3287 -0.3334 -0.3864
15501TIP3    H267919   5.023   0.500   4.542  0.1764  0.5520  0.3363
15502TIP3   OH267920   2.038   0.277   1.297  0.0823 -0.6698 -0.2265
15502TIP3    H167921   2.017   0.194   1.338  1.7328 -0.7253  0.5869
15502TIP3    H267922   2.007   0.343   1.359 -2.2166 -0.5728 -1.3509
15503TIP3   OH267923   2.345   1.188   6.295 -0.4731  0.1847  0.4976
15503TIP3    H167924   2.337   1.142   6.379  0.8709  1.1184  1.1589
15503TIP3    H267925   2.437   1.180   6.271 -1.0405 -1.0799 -1.5214
15504TIP3   OH267926   2.191   4.668  12.513  0.7260  0.6346 -0.3390
15504TIP3    H167927   2.129   4.603  12.480  1.4189 -0.4869  0.5095
15504TIP3    H267928   2.211   4.723  12.437  2.5291 -2.0480 -1.9597
15505TIP3   OH267929   3.820   1.891  14.945 -0.1728  0.1092 -0.3581
15505TIP3    H167930   3.742   1.945  14.930 -0.2862  0.5854  1.6713
15505TIP3    H267931   3.849   1.915  15.032  0.3435 -2.4375  0.2519
15506TIP3   OH267932   3.963   2.538   3.733 -0.3031 -0.3313 -0.3963
15506TIP3    H167933   3.886   2.547   3.677 -0.4813 -1.0721 -0.2796
15506TIP3    H267934   3.931   2.490   3.810  1.0407 -4.2233 -2.0320
15507TIP3   OH267935   1.501   2.394   5.723  0.7377 -0.5657  0.0068
15507TIP3    H167936   1.425   2.402   5.665  0.3009 -0.8095  0.5326
15507TIP3    H267937   1.465   2.362   5.806  1.6787 -2.9910 -0.4107
15508TIP3   OH267938   5.230   4.133   1.517  0.5072 -0.9470  0.4735
15508TIP3    H167939   5.316   4.109   1.483  0.2587 -0.7896 -0.2969
15508TIP3    H267940   5.198   4.200   1.457 -0.5775 -1.7293  0.1342
15509TIP3   OH267941   4.829   2.467  16.568  0.2597  0.2529  0.1088
15509TIP3    H167942   4.776   2.546  16.577  0.9073  0.5524  1.6988
15509TIP3    H267943   4.812   2.436  16.479 -0.1433  2.0767 -0.4860
15510TIP3   OH267944   3.428   1.270  13.697 -0.8941 -0.1822  0.8792
15510TIP3    H167945   3.412   1.178  13.673 -2.4907  0.5353 -1.0703
15510TIP3    H267946   3.359   1.319  13.652  0.9711  2.1764  0.3546
15511TIP3   OH267947   1.593   4.057  15.023  0.1959 -0.2702  0.3087
15511TIP3    H167948   1.587   4.034  15.116 -0.4738  0.5100  0.4701
15511TIP3    H267949   1.577   3.976  14.977  1.8267 -0.9665  0.8645
15512TIP3   OH267950   2.466   2.509  15.524  0.4526 -0.0130  0.1118
15512TIP3    H167951   2.544   2.484  15.573 -0.3368 -1.2604  0.7658
15512TIP3    H267952   2.497   2.577  15.463  1.6349  0.9006  1.6612
15513TIP3   OH267953   0.758   3.781  14.125  0.4109  0.2816  0.1312
15513TIP3    H167954   0.808   3.723  14.067  0.2186  0.8783 -0.6554
15513TIP3    H267955   0.799   3.772  14.210  0.8108 -0.4942 -0.1390
15514TIP3   OH267956   0.144   0.380   5.999  0.7309  0.2993  0.9117
15514TIP3    H167957   0.204   0.452   5.976 -1.6668  2.4623  0.9442
15514TIP3    H267958   0.131   0.389   6.093  1.2149 -0.9065  1.1119
15515TIP3   OH267959   1.454   6.398   5.387  0.1339  0.2113  0.1849
15515TIP3    H167960   1.498   6.313   5.380  1.6466  0.7423  2.2155
15515TIP3    H267961   1.482   6.446   5.309  2.2863  0.0899  0.8251
15516TIP3   OH267962   2.963   4.948   0.831 -0.4605  0.6660 -0.0905
15516TIP3    H167963   3.016   4.984   0.759 -0.2539  0.7520  0.1035
15516TIP3    H267964   2.893   5.012   0.843 -0.8529  0.3470 -0.6256
15517TIP3   OH267965   2.373   2.684  11.853  0.9248  0.2676 -0.1387
15517TIP3    H167966   2.405   2.595  11.868 -0.7503 -0.5600 -1.1482
15517TIP3    H267967   2.288   2.687  11.896  0.5132  1.0444 -0.9684
15518TIP3   OH267968   2.402   6.150   2.690  0.1489 -0.0450 -0.0116
15518TIP3    H167969   2.471   6.166   2.625  0.2309 -0.4909 -0.0386
15518TIP3    H267970   2.384   6.056   2.683 -1.5738  0.3204 -1.1021
15519TIP3   OH267971   2.589   1.595  16.078  0.1294  0.3566 -0.0104
15519TIP3    H167972   2.651   1.575  16.009  0.0688 -0.0262  0.0439
15519TIP3    H267973   2.640   1.644  16.143  0.0719  1.1337 -0.5397
15520TIP3   OH267974   1.296   2.588  12.881  0.9049 -0.2582  0.2208
15520TIP3    H167975   1.279   2.661  12.821  0.4478 -0.9493 -0.5091
15520TIP3    H267976   1.384   2.606  12.915  0.7795  0.6601  0.0998
15521TIP3   OH267977   5.715   6.113  13.908  0.6700 -0.8517  0.7284
15521TIP3    H167978   5.798   6.084  13.868  1.3385  1.9717 -0.1208
15521TIP3    H267979   5.659   6.135  13.834 -0.1605 -0.8882  1.3334
15522TIP3   OH267980   5.252   5.771   5.728 -0.1852  0.0829 -0.1780
15522TIP3    H167981   5.297   5.696   5.768  0.0002  0.3733  0.1668
15522TIP3    H267982   5.268   5.844   5.788  1.0904  0.8226 -1.3568
15523TIP3   OH267983   4.429   1.642  17.390 -0.5749 -0.0481 -0.1055
15523TIP3    H167984   4.516   1.604  17.377 -0.7041 -0.9733  1.4413
15523TIP3    H267985   4.434   1.729  17.350  0.9957 -0.1627 -0.2097
15524TIP3   OH267986   0.467   6.016  14.820 -0.3785  0.6681  0.6394
15524TIP3    H167987   0.513   5.956  14.879 -2.4290 -0.5564  1.0718
15524TIP3    H267988   0.460   5.968  14.738 -1.9693  0.2976  0.9651
15525TIP3   OH267989   0.434   4.864   0.184  0.0274  0.1450 -0.5014
15525TIP3    H167990   0.485   4.936   0.146 -0.6236  0.6931 -0.3614
15525TIP3    H267991   0.357   4.907   0.221 -0.7020 -0.7048 -1.0013
15526TIP3   OH267992   5.733   3.146  14.945 -0.1750  0.4371  0.0645
15526TIP3    H167993   5.771   3.200  14.875  1.0413  0.7904  0.9750
15526TIP3    H267994   5.760   3.189  15.026 -2.1365  0.4079  0.7720
15527TIP3   OH267995   2.337   3.218  13.433 -0.0803 -0.4147 -0.1528
15527TIP3    H167996   2.284   3.143  13.405  0.9310 -1.0373 -0.4661
15527TIP3    H267997   2.421   3.206  13.388  0.4775  0.3098  0.6522
15528TIP3   OH267998   1.882   0.735   4.824 -0.0250  0.3550  0.5381
15528TIP3    H167999   1.911   0.758   4.736 -2.5352  1.7855 -0.0055
15528TIP3    H268000   1.787   0.732   4.818 -0.2104 -1.0589  2.8782
15529TIP3   OH268001   1.166   0.565   3.513 -0.1823 -0.0365 -0.1288
15529TIP3    H168002   1.149   0.653   3.546 -0.8387  0.0516 -0.6698
15529TIP3    H268003   1.179   0.577   3.419 -0.6746 -0.5615 -0.2672
15530TIP3   OH268004   1.312   5.830   5.980  0.2257  0.1321  0.4006
15530TIP3    H168005   1.234   5.885   5.982  0.1809  0.1242 -0.5123
15530TIP3    H268006   1.372   5.877   5.921 -0.2884 -1.3763 -1.4285
15531TIP3   OH268007   5.065   6.199  13.945  0.8271 -0.4533  0.2560
15531TIP3    H168008   5.101   6.286  13.924  1.6653 -0.6803  0.6927
15531TIP3    H268009   5.127   6.138  13.905  1.4323 -0.8672  1.7811
15532TIP3   OH268010   4.116   0.132  16.982 -0.0255 -0.3450  0.5588
15532TIP3    H168011   4.102   0.169  16.895  0.6622 -1.9013 -0.2500
15532TIP3    H268012   4.027   0.121  17.018 -0.2757  1.0752  0.4085
15533TIP3   OH268013   4.895   5.582  11.496 -0.2344  0.0025  0.5622
15533TIP3    H168014   4.878   5.630  11.577  0.4017  0.4723  0.4222
15533TIP3    H268015   4.958   5.514  11.520  1.1412  1.1022  0.1643
15534TIP3   OH268016   0.910   5.766   2.109 -0.3785  0.7395 -0.1115
15534TIP3    H168017   0.846   5.695   2.107 -0.8030  1.1383 -0.8755
15534TIP3    H268018   0.953   5.757   2.195 -0.4085 -0.4393 -0.2033
15535TIP3   OH268019   4.226   0.619  15.597  0.9154 -0.5019  0.1811
15535TIP3    H168020   4.272   0.686  15.546  0.2751 -1.0956 -1.2267
15535TIP3    H268021   4.199   0.554  15.532  1.0746 -1.8744  1.4437
15536TIP3   OH268022   0.893   5.831  11.380  0.0372 -0.2477 -0.1785
15536TIP3    H168023   0.971   5.782  11.406  1.8790  1.3231 -2.3405
15536TIP3    H268024   0.875   5.890  11.453  0.4630 -1.0709  0.6029
15537TIP3   OH268025   6.213   0.763  13.653  0.1331  0.0454  0.6025
15537TIP3    H168026   6.308   0.767  13.643  0.0757  1.5082  0.4850
15537TIP3    H268027   6.184   0.711  13.579  0.7980  0.0550  0.3224
15538TIP3   OH268028   3.386   3.956   1.856  0.4223 -0.0213 -0.2534
15538TIP3    H168029   3.363   4.049   1.858 -0.5307 -0.2544  0.6532
15538TIP3    H268030   3.358   3.927   1.769  1.5282  0.7096 -0.8807
15539TIP3   OH268031   4.356   5.049  12.361 -0.1019 -0.2324  0.1875
15539TIP3    H168032   4.412   5.032  12.286  1.7660  1.7458  1.0166
15539TIP3    H268033   4.416   5.084  12.428 -2.2115  1.4157  1.3457
15540TIP3   OH268034   0.416   5.960   1.363  0.3939  0.2362 -0.0627
15540TIP3    H168035   0.468   6.038   1.383  0.5141  0.1216  0.0830
15540TIP3    H268036   0.435   5.900   1.436 -3.2230  1.7246  2.3877
15541TIP3   OH268037   3.728   0.620  15.152 -0.2465  0.4572  0.1567
15541TIP3    H168038   3.799   0.569  15.191 -0.4690  0.4369  0.5404
15541TIP3    H268039   3.674   0.555  15.106  0.6197  0.6171 -1.1394
15542TIP3   OH268040   5.498   4.662   4.429 -0.2296  1.2081 -0.0353
15542TIP3    H168041   5.522   4.754   4.438  1.1087  0.8745  0.0954
15542TIP3    H268042   5.569   4.615   4.472  0.8640 -0.0420 -2.9700
15543TIP3   OH268043   4.433   3.065   0.206  0.2769  0.3659  0.1232
15543TIP3    H168044   4.464   2.980   0.175  0.2882  0.5325 -0.3299
15543TIP3    H268045   4.350   3.046   0.249 -1.0980  0.4505 -2.3104
15544TIP3   OH268046   2.084   2.856  15.091  0.1586  0.2792  0.1838
15544TIP3    H168047   2.165   2.810  15.114 -0.8806 -2.3663 -0.9958
15544TIP3    H268048   2.106   2.905  15.012  1.1963  1.6102  1.2479
15545TIP3   OH268049   6.117   5.684  15.505 -0.4741 -0.1144 -0.2104
15545TIP3    H168050   6.178   5.728  15.445 -0.8248  1.2510  0.3998
15545TIP3    H268051   6.164   5.679  15.588 -1.2813  1.3133  0.3795
15546TIP3   OH268052   4.103   0.092   3.502  0.2457  0.1745  0.7725
15546TIP3    H168053   4.162   0.113   3.430  1.8577  0.6677  2.1603
15546TIP3    H268054   4.019   0.129   3.476  1.3663  2.5107  0.1866
15547TIP3   OH268055   4.983   4.067  14.798 -0.0541 -0.1395  0.6769
15547TIP3    H168056   4.985   3.978  14.832  0.9866  0.0659  1.1925
15547TIP3    H268057   5.070   4.081  14.762 -0.0737  0.8086  0.9712
15548TIP3   OH268058   2.475   1.936  16.751  0.1325  0.4298  0.2551
15548TIP3    H168059   2.380   1.939  16.748  0.0822 -0.6071  0.4698
15548TIP3    H268060   2.500   2.012  16.804 -0.8039 -1.5377  3.8549
15549TIP3   OH268061   4.485   3.394   3.650  0.3997  0.4305 -0.5443
15549TIP3    H168062   4.555   3.350   3.698  0.2111  1.8127  1.0876
15549TIP3    H268063   4.423   3.422   3.717 -1.8119 -0.8054 -1.9518
15550TIP3   OH268064   5.843   3.514  13.786 -0.0778 -0.0896 -0.0195
15550TIP3    H168065   5.848   3.473  13.872 -0.5643 -1.2167 -0.5071
15550TIP3    H268066   5.761   3.483  13.749 -1.5279  2.8969  0.3353
15551TIP3   OH268067   6.681   1.583  17.627 -0.1104 -0.4103 -0.1027
15551TIP3    H168068   6.652   1.603  17.538 -0.7699 -1.6661 -0.1844
15551TIP3    H268069   6.747   1.515  17.617 -0.1855 -0.5564  0.3742
15552TIP3   OH268070   3.470   3.620  15.751  0.3762 -0.3075 -0.7507
15552TIP3    H168071   3.474   3.532  15.787  1.4024 -0.5165 -1.3325
15552TIP3    H268072   3.452   3.676  15.827  0.6949 -0.9175 -0.2133
15553TIP3   OH268073   5.314   2.538  16.771 -0.1177 -0.1630  0.4078
15553TIP3    H168074   5.271   2.480  16.707 -1.6893  1.2273  0.1350
15553TIP3    H268075   5.295   2.498  16.856 -3.9423  1.4263  0.5118
15554TIP3   OH268076   3.007   3.189   1.050  0.4443 -0.2197 -0.1001
15554TIP3    H168077   2.925   3.230   1.023  0.6756  0.9327  0.8637
15554TIP3    H268078   3.074   3.255   1.032  1.3943 -1.6429 -2.1708
15555TIP3   OH268079   2.312   6.091   6.683  0.4552 -0.0250 -0.1294
15555TIP3    H168080   2.268   6.155   6.628  0.5442  0.4777  0.3757
15555TIP3    H268081   2.294   6.120   6.772  1.3143 -0.1447  0.0909
15556TIP3   OH268082   2.545   5.668  12.249 -0.0772 -0.3368 -0.1222
15556TIP3    H168083   2.484   5.660  12.176 -1.1306 -0.5173  0.7371
15556TIP3    H268084   2.630   5.683  12.209 -0.1649 -2.9057 -1.4849
15557TIP3   OH268085   4.343   4.154   3.262 -0.2044  0.1389 -0.3279
15557TIP3    H168086   4.274   4.142   3.327 -1.2175  3.2872 -0.6487
15557TIP3    H268087   4.298   4.149   3.178  0.2559  0.4948 -0.6048
15558TIP3   OH268088   2.195   3.660  15.385 -0.3898  0.4109  0.9321
15558TIP3    H168089   2.270   3.605  15.408 -1.6517 -0.9898  1.9186
15558TIP3    H268090   2.132   3.646  15.456 -2.9390 -1.0832 -1.4031
15559TIP3   OH268091   2.961   1.570  10.794  0.0852  0.5621 -0.2263
15559TIP3    H168092   2.986   1.661  10.778 -1.2673  1.0675  0.3954
15559TIP3    H268093   3.022   1.540  10.861  0.6643  0.9335 -0.5740
15560TIP3   OH268094   5.957   4.876  12.951 -0.0755 -0.2599 -0.0085
15560TIP3    H168095   5.975   4.787  12.923 -0.2185 -0.9512  1.9656
15560TIP3    H268096   5.862   4.884  12.949 -0.0987 -0.3785  0.4013
15561TIP3   OH268097   1.847   6.005   1.440 -0.2994  0.1469 -0.0179
15561TIP3    H168098   1.859   5.927   1.385 -1.7587 -0.7943  0.9309
15561TIP3    H268099   1.834   6.077   1.378  2.6971  0.0264 -0.9664
15562TIP3   OH268100   5.576   3.416  12.026 -0.0615 -0.4412 -0.4206
15562TIP3    H168101   5.491   3.415  12.071  0.4968  0.9628  0.7479
15562TIP3    H268102   5.637   3.377  12.089  0.2325 -1.1688 -1.1379
15563TIP3   OH268103   0.037   0.453   5.373  0.5352  0.0379 -0.2600
15563TIP3    H168104   0.098   0.476   5.443  0.8048  2.2372 -1.1639
15563TIP3    H268105  -0.049   0.481   5.406  0.6499  0.9932 -0.7621
15564TIP3   OH268106   0.221   5.937   3.813  0.0694  0.4421 -0.4128
15564TIP3    H168107   0.157   5.934   3.884 -0.1516 -2.3741 -0.5967
15564TIP3    H268108   0.175   5.901   3.738  1.6880 -1.3366 -0.6373
15565TIP3   OH268109   5.255   3.440   4.908 -0.6383  0.1111  0.2451
15565TIP3    H168110   5.206   3.358   4.897  1.0524 -0.9313  0.1025
15565TIP3    H268111   5.290   3.458   4.820 -0.8100  0.8723  0.3310
15566TIP3   OH268112   5.193   6.554   3.614  0.6235  0.2094 -0.2235
15566TIP3    H168113   5.121   6.538   3.676  0.7045 -1.4338 -0.4917
15566TIP3    H268114   5.191   6.648   3.599 -0.3574  0.4462  1.1198
15567TIP3   OH268115   1.005   1.068  17.620 -0.4660 -0.0761 -0.1931
15567TIP3    H168116   0.966   1.019  17.548  2.5591 -0.9415 -1.3918
15567TIP3    H268117   1.092   1.030  17.632 -0.6986  0.1569  3.8522
15568TIP3   OH268118   4.674   2.756   1.889  0.0746 -0.0626  0.2547
15568TIP3    H168119   4.687   2.744   1.983  0.2428  0.2008  0.2662
15568TIP3    H268120   4.713   2.841   1.870  1.5617 -0.8361 -0.3517
15569TIP3   OH268121   1.154   2.519   4.687  0.3854 -0.1194  0.2393
15569TIP3    H168122   1.150   2.613   4.706 -0.4540 -0.4137  1.6160
15569TIP3    H268123   1.205   2.482   4.760  1.3373 -0.6551 -0.6705
15570TIP3   OH268124   3.831   4.851   1.497  0.0996  0.3778  0.4266
15570TIP3    H168125   3.895   4.849   1.569  0.6023  1.0376  0.0164
15570TIP3    H268126   3.764   4.913   1.527 -0.1845 -0.0615  0.7161
15571TIP3   OH268127   5.093   4.068   6.587  0.1259  0.1763 -0.1780
15571TIP3    H168128   5.038   4.021   6.650 -0.6835 -1.4218 -2.0050
15571TIP3    H268129   5.049   4.152   6.574  0.3335  0.5572  1.3806
15572TIP3   OH268130   5.515   0.219  14.709 -0.1737  0.0620  0.3506
15572TIP3    H168131   5.593   0.165  14.700  0.5031  1.0862 -0.0907
15572TIP3    H268132   5.460   0.194  14.634 -0.2312 -0.5798  0.6015
15573TIP3   OH268133   4.683   4.059   2.154 -0.3236  0.2708  0.0983
15573TIP3    H168134   4.602   4.039   2.108  1.0266 -1.1278 -1.8424
15573TIP3    H268135   4.717   3.973   2.182  0.3744  0.8462  1.1113
15574TIP3   OH268136   4.353   3.652   1.133  0.0616 -0.5827  0.2253
15574TIP3    H168137   4.376   3.623   1.221  1.8727 -0.8639 -0.2884
15574TIP3    H268138   4.412   3.725   1.116 -0.4420 -0.3715 -0.6635
15575TIP3   OH268139   6.684   1.593   3.149 -0.3678 -0.0373 -0.3571
15575TIP3    H168140   6.596   1.590   3.111 -1.3263  1.2011  1.5754
15575TIP3    H268141   6.703   1.686   3.157  0.8200 -0.2968 -0.0855
15576TIP3   OH268142   3.134   3.333   3.169 -0.4024 -0.1212 -0.0521
15576TIP3    H168143   3.081   3.363   3.244  1.3353 -0.0646  1.2254
15576TIP3    H268144   3.148   3.412   3.117  1.0412  0.5709  1.3143
15577TIP3   OH268145   5.300   2.591  15.988  0.2877 -0.2784 -0.0222
15577TIP3    H168146   5.244   2.652  15.940  2.1167  0.5492 -1.2030
15577TIP3    H268147   5.361   2.647  16.036 -0.3432 -1.1394  1.9253
15578TIP3   OH268148   3.728   0.847   3.562 -0.2763 -0.0552  0.0161
15578TIP3    H168149   3.662   0.812   3.622 -0.3516  0.6537  0.3523
15578TIP3    H268150   3.700   0.938   3.546  0.4919  0.1800 -0.0221
15579TIP3   OH268151   6.185   3.632   1.238  0.3601 -0.3559 -0.7274
15579TIP3    H168152   6.200   3.564   1.172  0.6884 -1.6159  0.5831
15579TIP3    H268153   6.123   3.692   1.197  0.8704 -0.8557 -2.3279
15580TIP3   OH268154   1.575   3.039   5.326 -0.4018 -0.2369 -0.4303
15580TIP3    H168155   1.497   3.095   5.327  0.0525  0.4012  0.4911
15580TIP3    H268156   1.596   3.025   5.418  1.0196  0.2436 -0.6513
15581TIP3   OH268157   2.436   5.091   1.312  0.2722 -0.3398  0.2664
15581TIP3    H168158   2.401   5.146   1.382  1.1454  0.5360  0.0552
15581TIP3    H268159   2.531   5.105   1.317  0.4397 -1.2019 -0.3281
15582TIP3   OH268160   5.666   4.305   3.060 -0.1837 -0.4346 -0.0177
15582TIP3    H168161   5.685   4.215   3.033 -0.3432 -0.3364 -0.4598
15582TIP3    H268162   5.631   4.297   3.149 -1.6106 -0.9480 -0.5975
15583TIP3   OH268163   5.577   2.334   5.309  0.4432  0.3441  0.6440
15583TIP3    H168164   5.565   2.253   5.259 -0.9412  1.2180 -0.5403
15583TIP3    H268165   5.658   2.321   5.358  1.1178 -1.1165 -0.7729
15584TIP3   OH268166   1.747   5.485   0.501 -0.0926  0.0660 -0.1220
15584TIP3    H168167   1.722   5.396   0.476 -3.0046  0.5630  0.7041
15584TIP3    H268168   1.819   5.473   0.563  0.7658 -1.5693 -1.3392
15585TIP3   OH268169   1.862   6.111   0.789  0.5967 -0.2921 -0.2572
15585TIP3    H168170   1.770   6.100   0.812  0.5730 -1.7041 -0.9464
15585TIP3    H268171   1.901   6.153   0.866 -0.7557  1.0594 -0.2630
15586TIP3   OH268172   4.214   2.405  11.345  0.3663  0.2952 -0.6068
15586TIP3    H168173   4.253   2.321  11.365 -0.1611  0.2240  0.1968
15586TIP3    H268174   4.121   2.394  11.366  0.2792  1.0477 -0.5475
15587TIP3   OH268175   4.929   1.789   0.104  0.0431 -0.0596  0.3595
15587TIP3    H168176   4.917   1.877   0.140 -1.1293 -0.3203  0.6502
15587TIP3    H268177   4.874   1.787   0.026  1.0106 -0.1553 -0.3419
15588TIP3   OH268178   6.123   1.819   4.631 -0.6138 -0.2207 -0.5396
15588TIP3    H168179   6.104   1.750   4.695 -2.5655 -0.4826 -1.3356
15588TIP3    H268180   6.218   1.830   4.635 -0.5139 -1.3756  1.2138
15589TIP3   OH268181   2.631   4.453  16.921 -0.0387 -0.4330 -0.0926
15589TIP3    H168182   2.582   4.400  16.858 -0.1647  1.6693 -1.8837
15589TIP3    H268183   2.630   4.541  16.884  1.0298  0.6451  2.2391
15590TIP3   OH268184   5.402   1.427  16.634 -0.0038  0.7506 -0.4884
15590TIP3    H168185   5.313   1.458  16.620 -1.1375 -1.8655  0.3828
15590TIP3    H268186   5.394   1.359  16.701  2.3672 -0.7797 -1.6067
15591TIP3   OH268187   1.640   1.715   4.319 -0.1675  0.0611  0.0685
15591TIP3    H168188   1.576   1.785   4.308  0.2375  0.3076 -0.8371
15591TIP3    H268189   1.696   1.722   4.242  1.1394  0.0375  0.9945
15592TIP3   OH268190   3.305   1.049   1.399 -0.3154  0.0330 -0.0578
15592TIP3    H168191   3.222   1.095   1.415 -0.1985  0.3115 -0.2592
15592TIP3    H268192   3.359   1.070   1.475 -0.2212  0.3198 -0.2045
15593TIP3   OH268193   0.975   0.079  11.309  0.0546  0.2325 -0.1233
15593TIP3    H168194   0.992  -0.015  11.306  1.0797  0.4161 -0.4863
15593TIP3    H268195   1.045   0.118  11.257  0.4741  1.3013  1.1801
15594TIP3   OH268196   0.505   5.476   3.671  0.3266  0.5742 -0.6372
15594TIP3    H168197   0.439   5.513   3.729  1.6135  0.9255  0.6331
15594TIP3    H268198   0.477   5.503   3.583 -0.8122  1.3211 -0.0677
15595TIP3   OH268199   2.152   5.072   1.900 -0.8802 -0.1565  0.2380
15595TIP3    H168200   2.071   5.055   1.948 -0.2334  1.5517  2.0554
15595TIP3    H268201   2.218   5.019   1.945 -0.7283 -0.5405 -0.4187
15596TIP3   OH268202   5.125   4.062  16.861  0.3136  1.1265  0.0699
15596TIP3    H168203   5.120   3.967  16.855 -2.4240  1.0944  1.6354
15596TIP3    H268204   5.204   4.079  16.912 -0.0913 -0.4109  1.2517
15597TIP3   OH268205   3.991   3.125   4.916  0.2207 -0.2485  0.3960
15597TIP3    H168206   3.917   3.067   4.934  0.0849  0.0860  0.9362
15597TIP3    H268207   3.959   3.212   4.938  1.1467 -0.2315  1.7597
15598TIP3   OH268208   5.156   3.584  15.199 -0.5370  0.5380  0.2849
15598TIP3    H168209   5.229   3.647  15.194  1.0451 -1.1600  0.8841
15598TIP3    H268210   5.177   3.517  15.134 -1.9314  0.3495  0.0029
15599TIP3   OH268211   0.011   1.566   2.508 -0.4909 -0.5196  0.5218
15599TIP3    H168212  -0.007   1.639   2.450  1.1308  1.7680  2.6670
15599TIP3    H268213  -0.042   1.583   2.586  0.9039 -0.8258  1.5884
15600TIP3   OH268214   1.071   2.069   3.901  0.0305  0.3239  0.3050
15600TIP3    H168215   0.996   2.126   3.916 -0.6993 -0.3508 -0.6260
15600TIP3    H268216   1.102   2.093   3.813 -0.6366 -1.0404 -0.3468
15601TIP3   OH268217   1.884   2.688   4.064 -0.0019  0.2376  0.1438
15601TIP3    H168218   1.934   2.710   4.143  0.0744  1.7870 -0.2870
15601TIP3    H268219   1.948   2.697   3.993 -0.2276 -0.5073 -0.1527
15602TIP3   OH268220   4.525   0.917  11.864  0.0961  0.3513 -0.1494
15602TIP3    H168221   4.469   0.840  11.854 -0.2562  0.5467  0.2875
15602TIP3    H268222   4.468   0.983  11.905  1.1041 -0.0392  2.0634
15603TIP3   OH268223   5.614   0.642   3.610  0.3149 -0.4404  0.1573
15603TIP3    H168224   5.639   0.716   3.555 -2.4468  0.5504  0.0764
15603TIP3    H268225   5.694   0.620   3.659  1.4814  1.9556 -0.5081
15604TIP3   OH268226   2.924   0.894   6.201  0.1023  0.0827 -0.1256
15604TIP3    H168227   2.987   0.839   6.248  0.2174 -2.5151 -2.9367
15604TIP3    H268228   2.852   0.834   6.179 -1.8006  2.1449  0.1272
15605TIP3   OH268229   1.336   2.621   6.814  0.4639 -0.1925  0.1836
15605TIP3    H168230   1.352   2.568   6.892 -0.8653 -1.7669 -0.5577
15605TIP3    H268231   1.242   2.610   6.796 -0.0021  2.8122  0.2410
15606TIP3   OH268232   4.032   2.379   1.345  0.4339  0.1315 -0.0026
15606TIP3    H168233   4.096   2.368   1.416  0.7296  0.2986 -0.2435
15606TIP3    H268234   3.978   2.453   1.372 -1.6542 -1.8386  1.7020
15607TIP3   OH268235   4.600   0.460  16.335  0.2721 -1.1988 -0.4208
15607TIP3    H168236   4.621   0.438  16.244 -0.0041  0.8013 -1.0253
15607TIP3    H268237   4.509   0.433  16.346  0.2020 -1.1510 -0.8573
15608TIP3   OH268238   2.633   3.241  15.077 -0.2949  0.3767 -0.4049
15608TIP3    H168239   2.702   3.272  15.019  0.4202  0.1232  0.3056
15608TIP3    H268240   2.612   3.316  15.133  1.5269 -0.3773  1.4030
15609TIP3   OH268241   1.207   5.865   1.409 -0.1263 -0.0330 -0.1268
15609TIP3    H168242   1.252   5.931   1.461  1.0186 -0.4637 -0.5266
15609TIP3    H268243   1.221   5.783   1.457  0.9583 -0.4389 -1.0825
15610TIP3   OH268244   6.380   6.562   1.013 -0.2721 -0.2308 -0.4529
15610TIP3    H168245   6.388   6.492   0.947 -0.9717  0.7473 -1.6340
15610TIP3    H268246   6.368   6.641   0.961  0.6853  0.8088  0.8619
15611TIP3   OH268247   6.248   0.840   2.568  0.0218  0.7584 -0.5638
15611TIP3    H168248   6.231   0.934   2.578  0.0995  0.8545 -1.2790
15611TIP3    H268249   6.308   0.835   2.494  0.7681  0.2076  0.0726
15612TIP3   OH268250   1.263   0.187  17.177  0.3912 -0.0463 -1.2645
15612TIP3    H168251   1.243   0.241  17.253 -1.3957 -1.1961 -0.8622
15612TIP3    H268252   1.267   0.249  17.104 -0.8820  0.7354 -0.7113
15613TIP3   OH268253   2.251   2.947   5.907  0.2897  0.3108 -0.1554
15613TIP3    H168254   2.181   2.999   5.947  1.1564 -1.4849  4.4127
15613TIP3    H268255   2.328   3.005   5.908 -0.3735  1.3246 -2.4495
15614TIP3   OH268256   1.290   1.641  14.304  0.0297 -0.1132  0.5477
15614TIP3    H168257   1.215   1.674  14.353 -0.1912  1.3146 -0.6739
15614TIP3    H268258   1.269   1.549  14.288 -0.3790 -0.3274  2.1570
15615TIP3   OH268259   5.069   0.378   3.972 -0.6736 -0.4495  0.5836
15615TIP3    H168260   5.144   0.390   3.914 -0.0578 -0.1605  1.4272
15615TIP3    H268261   5.106   0.347   4.054 -1.3381  0.8027  1.3959
15616TIP3   OH268262   3.755   4.630  15.189 -0.4736 -0.1387  0.4356
15616TIP3    H168263   3.848   4.633  15.215 -0.6660  0.1080  1.1123
15616TIP3    H268264   3.728   4.721  15.187 -0.5485 -0.1701 -0.3732
15617TIP3   OH268265   4.555   2.888   5.526  0.3562  0.2946 -0.1711
15617TIP3    H168266   4.515   2.930   5.449  0.1633  1.6314  0.6281
15617TIP3    H268267   4.648   2.902   5.514  0.3119  0.6926 -0.0553
15618TIP3   OH268268   3.840   1.355   0.252 -0.2711 -0.4225 -0.4768
15618TIP3    H168269   3.924   1.364   0.206  1.4061  0.3203  2.4624
15618TIP3    H268270   3.810   1.445   0.265 -0.1481 -0.5327  0.7177
15619TIP3   OH268271   2.231   2.296  13.326  0.0565  0.2176  0.0638
15619TIP3    H168272   2.283   2.226  13.287  1.7940  1.6916 -0.4149
15619TIP3    H268273   2.208   2.352  13.252  0.4692  1.2408  0.6962
15620TIP3   OH268274   2.294   2.394  16.839  0.2916 -0.2987 -0.1602
15620TIP3    H168275   2.288   2.390  16.744  0.6402 -0.6038 -0.1697
15620TIP3    H268276   2.274   2.486  16.860 -0.2171 -0.3282 -0.4908
15621TIP3   OH268277   3.531   5.413   4.665  0.2387  0.2718 -0.5996
15621TIP3    H168278   3.511   5.482   4.602  0.6719  2.3045  1.3808
15621TIP3    H268279   3.534   5.457   4.750 -0.1478 -2.3108  0.8719
15622TIP3   OH268280   0.548   6.357  13.271 -1.0259 -0.3783 -0.5782
15622TIP3    H168281   0.509   6.444  13.271 -2.4261 -0.8806  2.0622
15622TIP3    H268282   0.491   6.305  13.215 -3.6944 -0.7899  2.1976
15623TIP3   OH268283   5.197   4.990  14.054 -0.3884 -0.0760 -0.1821
15623TIP3    H168284   5.240   5.072  14.030  0.1656  0.3784  2.1123
15623TIP3    H268285   5.145   5.012  14.132  3.3478 -2.6613  3.5007
15624TIP3   OH268286   1.140   6.596  11.663  0.0726  0.0089 -0.1561
15624TIP3    H168287   1.080   6.669  11.679  0.8205  0.2035  2.1087
15624TIP3    H268288   1.096   6.543  11.597 -0.9719  1.9405 -1.1118
15625TIP3   OH268289   6.522   1.867  12.331  0.2041  0.5564  0.7718
15625TIP3    H168290   6.443   1.865  12.384 -1.1649 -0.7122 -1.1930
15625TIP3    H268291   6.511   1.797  12.267  0.7774  3.1436 -2.4867
15626TIP3   OH268292   5.513   4.578  12.131 -0.4055 -0.6807 -0.3132
15626TIP3    H168293   5.589   4.521  12.140  0.8748  0.9700 -0.0071
15626TIP3    H268294   5.495   4.581  12.037  1.2261  0.4730 -0.6282
15627TIP3   OH268295   5.738   3.997  15.246  0.7754  0.4449  0.0853
15627TIP3    H168296   5.716   4.090  15.246  0.5117  0.3872 -0.6013
15627TIP3    H268297   5.730   3.971  15.337  1.1826  1.1730  0.3433
15628TIP3   OH268298   4.771   0.478   5.626  0.0507  0.5805 -0.2155
15628TIP3    H168299   4.824   0.557   5.617  1.7240 -0.4586 -0.0154
15628TIP3    H268300   4.821   0.422   5.685  0.1403 -1.5981 -2.1934
15629TIP3   OH268301   6.429   3.548   6.277  0.8342 -0.3740 -0.0416
15629TIP3    H168302   6.420   3.454   6.262  0.6466  0.0805 -3.4493
15629TIP3    H268303   6.339   3.581   6.273  0.9290  0.0111  0.8565
15630TIP3   OH268304   3.806   6.297   2.347 -0.8362 -0.0363 -0.1955
15630TIP3    H168305   3.769   6.215   2.316 -0.0385 -0.1614 -0.8351
15630TIP3    H268306   3.877   6.271   2.406 -0.3406  0.1690 -0.6824
15631TIP3   OH268307   2.727   5.295  16.811 -0.4474 -0.2498  0.1281
15631TIP3    H168308   2.668   5.342  16.871 -0.2129 -0.1994  0.3170
15631TIP3    H268309   2.708   5.203  16.826 -1.4259 -0.2176 -0.7508
15632TIP3   OH268310   3.665   1.529   1.487  0.0396  0.4581 -0.1792
15632TIP3    H168311   3.734   1.521   1.554 -1.1153 -0.6042  0.9421
15632TIP3    H268312   3.676   1.618   1.453  3.2341 -0.2987 -1.5346
15633TIP3   OH268313   2.841   4.557   1.626  0.5300  0.0772 -0.5641
15633TIP3    H168314   2.857   4.652   1.628 -0.7607  0.3826 -2.4728
15633TIP3    H268315   2.849   4.533   1.534 -1.0138 -1.3288 -0.3764
15634TIP3   OH268316   4.327   2.612   5.004 -0.6832 -0.7899 -0.6277
15634TIP3    H168317   4.305   2.576   4.918 -1.2267  0.2228 -0.9252
15634TIP3    H268318   4.401   2.559   5.034 -0.4729 -1.1402 -1.7229
15635TIP3   OH268319   2.612   2.500  16.917  0.2452 -0.4234  0.5532
15635TIP3    H168320   2.627   2.583  16.963  1.0679 -0.4943  0.4345
15635TIP3    H268321   2.529   2.468  16.951  0.6501 -0.2816  1.7148
15636TIP3   OH268322   2.743   5.932  15.382 -0.0704 -0.2448  0.1528
15636TIP3    H168323   2.668   5.894  15.428  0.3647  0.4148  1.4506
15636TIP3    H268324   2.735   5.899  15.293 -1.5921 -0.6373  0.3996
15637TIP3   OH268325   2.189   2.117   6.254 -0.2914 -0.4366 -0.1377
15637TIP3    H168326   2.106   2.086   6.291 -0.0590 -2.0625 -0.8969
15637TIP3    H268327   2.242   2.139   6.331 -0.9492 -0.6564  0.3923
15638TIP3   OH268328   5.585   4.671  17.458  0.3748  0.4955 -0.2197
15638TIP3    H168329   5.519   4.741  17.460 -0.7351 -0.5057 -0.9032
15638TIP3    H268330   5.638   4.687  17.537  0.2279  2.1628 -0.4158
15639TIP3   OH268331   2.441   0.740  16.269  0.7213  0.1435 -0.4033
15639TIP3    H168332   2.421   0.652  16.237  1.1523 -0.4324  0.8338
15639TIP3    H268333   2.535   0.749  16.256  0.9622 -0.2279  0.9317
15640TIP3   OH268334   6.392   5.761  12.310 -0.1747  0.3863 -0.2050
15640TIP3    H168335   6.484   5.752  12.287 -0.7295 -1.8364 -1.9653
15640TIP3    H268336   6.345   5.716  12.239 -2.4395 -1.1637  2.0812
15641TIP3   OH268337   0.621   0.823  17.154  0.3887 -0.0198 -0.2939
15641TIP3    H168338   0.687   0.787  17.095 -0.2887 -1.0499 -0.4618
15641TIP3    H268339   0.654   0.804  17.241  0.0646 -1.0340 -0.3827
15642TIP3   OH268340   5.100   5.803   5.330  0.4598  0.3160  0.4148
15642TIP3    H168341   5.129   5.831   5.243  1.0408 -0.2052  0.4377
15642TIP3    H268342   5.072   5.884   5.373  1.5787  0.7977  0.2715
15643TIP3   OH268343   1.797   3.937   1.386  0.3281 -0.0362  0.1847
15643TIP3    H168344   1.808   3.855   1.434  0.4126  0.0098  0.2431
15643TIP3    H268345   1.783   3.910   1.295  3.0697 -0.0399 -0.2981
15644TIP3   OH268346   5.079   0.941  15.764 -0.4462  0.1543 -0.6843
15644TIP3    H168347   5.174   0.929  15.754 -0.6897 -1.3210 -1.4137
15644TIP3    H268348   5.049   0.967  15.677 -0.7471  0.4929 -0.4838
15645TIP3   OH268349   1.689   4.691   0.072 -0.3588  0.1109  0.0869
15645TIP3    H168350   1.658   4.601   0.058 -0.2019  0.2061 -1.0074
15645TIP3    H268351   1.784   4.683   0.075 -0.4048 -0.1198  2.9777
15646TIP3   OH268352   6.221   3.852  17.201 -0.0696 -0.5986  0.3663
15646TIP3    H168353   6.213   3.774  17.256 -3.4440  0.8325  2.2278
15646TIP3    H268354   6.221   3.819  17.111  2.7223 -2.8620  1.0443
15647TIP3   OH268355   4.904   5.534   4.003  0.3354  0.0016  0.3900
15647TIP3    H168356   4.913   5.449   3.962  1.8947 -0.1719  1.0071
15647TIP3    H268357   4.852   5.517   4.082  0.5769 -0.3709  0.4716
15648TIP3   OH268358   3.443   1.177  13.060 -0.2327  0.0697  0.1704
15648TIP3    H168359   3.484   1.154  12.977  2.3119 -0.9608  1.6109
15648TIP3    H268360   3.461   1.270  13.071  0.1361  0.0277 -0.0549
15649TIP3   OH268361   0.293   1.736  13.169  0.8079 -0.2612 -0.0136
15649TIP3    H168362   0.268   1.812  13.117 -4.0600 -2.0841 -0.8132
15649TIP3    H268363   0.344   1.681  13.110  1.1677  0.6823 -0.5977
15650TIP3   OH268364   2.814   4.505  15.430  0.6846  0.4741  0.0863
15650TIP3    H168365   2.875   4.494  15.503 -1.3568  0.8975  1.9643
15650TIP3    H268366   2.781   4.416  15.412 -0.8433  0.6858  1.6085
15651TIP3   OH268367   1.562   4.610  10.636 -0.1803 -0.4105 -0.3118
15651TIP3    H168368   1.553   4.654  10.721 -1.5840 -1.6577  0.2095
15651TIP3    H268369   1.654   4.624  10.612 -0.0040  0.7851  0.9395
15652TIP3   OH268370   5.542   3.437   2.318 -0.2710  0.5442  0.1194
15652TIP3    H168371   5.473   3.408   2.259 -0.8553  1.8822  0.1024
15652TIP3    H268372   5.504   3.512   2.363  0.9330  0.8659  0.6315
15653TIP3   OH268373   4.186   0.350  13.057  0.2967 -0.5781  0.2420
15653TIP3    H168374   4.276   0.354  13.089 -0.1762 -0.9678  1.7071
15653TIP3    H268375   4.132   0.358  13.136 -0.9615 -0.4357 -0.5946
15654TIP3   OH268376   4.730   0.282   4.795 -0.7453  0.8543 -0.4471
15654TIP3    H168377   4.707   0.374   4.810 -0.6106  0.4555  3.0482
15654TIP3    H268378   4.645   0.238   4.786 -0.9231  1.0517  0.1645
15655TIP3   OH268379   3.537   1.053   6.137 -0.5903 -0.5495 -0.0951
15655TIP3    H168380   3.501   0.992   6.200 -0.5791  1.0587  1.5369
15655TIP3    H268381   3.489   1.135   6.151 -0.3383 -0.0325 -1.9273
15656TIP3   OH268382   2.954   3.419   3.925 -0.1886 -0.6982 -0.0609
15656TIP3    H168383   2.905   3.484   3.975  0.6766 -0.6754  0.8038
15656TIP3    H268384   3.018   3.470   3.875 -0.4155 -0.7869 -0.4400
15657TIP3   OH268385   3.249   2.693  17.202 -0.5462  0.5775  0.4974
15657TIP3    H168386   3.187   2.666  17.134 -0.0040 -1.8559  0.8505
15657TIP3    H268387   3.229   2.635  17.276  2.3416 -0.5679  0.4840
15658TIP3   OH268388   2.025   1.839  14.171  0.1489 -0.0767  0.0207
15658TIP3    H168389   2.014   1.865  14.079 -0.4406 -1.3196 -0.2857
15658TIP3    H268390   2.116   1.860  14.191  0.2596  0.3019 -0.8242
15659TIP3   OH268391   1.684   6.220  12.634 -0.3463  0.1703 -0.2159
15659TIP3    H168392   1.710   6.236  12.543  2.5628  1.3392  0.6901
15659TIP3    H268393   1.686   6.307  12.675 -1.2785 -0.3830  1.0611
15660TIP3   OH268394   0.287   0.488   2.256  0.6587 -0.3368  0.0027
15660TIP3    H168395   0.303   0.458   2.346  0.9751 -0.8679 -0.2264
15660TIP3    H268396   0.369   0.530   2.230  1.3130 -2.0268 -0.7617
15661TIP3   OH268397   4.991   2.946   5.934 -0.2505 -0.0789  0.3948
15661TIP3    H168398   5.008   2.891   5.857 -0.5911  0.4913 -0.1036
15661TIP3    H268399   4.964   2.885   6.002 -0.3917 -0.5530 -0.0770
15662TIP3   OH268400   3.574   3.123   0.092  0.2271 -0.2358  0.6285
15662TIP3    H168401   3.615   3.042   0.063 -1.5620 -0.8189 -0.4091
15662TIP3    H268402   3.615   3.192   0.039 -0.1684 -0.8121 -0.4516
15663TIP3   OH268403   0.896   2.119  12.394 -0.0473 -0.3727  0.3833
15663TIP3    H168404   0.933   2.141  12.479  0.1268 -2.3506  0.8861
15663TIP3    H268405   0.969   2.081  12.345 -0.5718 -0.9915  0.0634
15664TIP3   OH268406   3.492   2.004   3.958  1.3581  0.5263  0.3196
15664TIP3    H168407   3.410   2.014   4.008  1.9924  0.4590  1.4097
15664TIP3    H268408   3.498   2.084   3.906 -0.1792 -0.1529 -0.9851
15665TIP3   OH268409   0.024   2.085   6.017  0.1616 -0.0554  0.0609
15665TIP3    H168410  -0.012   2.016   5.961  0.2363  1.2417 -1.6769
15665TIP3    H268411   0.108   2.050   6.048 -0.9799 -1.7527  1.3941
15666TIP3   OH268412   5.465   2.881  12.104 -0.2934 -0.2067  0.1183
15666TIP3    H168413   5.519   2.922  12.172 -0.2209  0.0894 -0.1128
15666TIP3    H268414   5.378   2.874  12.143  0.1468 -1.7324  0.9138
15667TIP3   OH268415   3.361   1.540   5.242  0.1942 -0.2438  0.2407
15667TIP3    H168416   3.296   1.603   5.274  0.2205 -0.4945  0.7956
15667TIP3    H268417   3.408   1.587   5.173 -0.1991  0.1308  0.2261
15668TIP3   OH268418   5.360   2.133  14.901 -0.1448 -0.4052  0.0372
15668TIP3    H168419   5.400   2.202  14.849 -0.7370  0.2636  0.4555
15668TIP3    H268420   5.304   2.179  14.963 -1.9549 -1.3346 -0.8387
15669TIP3   OH268421   5.207   3.698  13.290  0.0859  0.7679  0.6054
15669TIP3    H168422   5.213   3.638  13.365  1.6101 -0.3765 -0.3762
15669TIP3    H268423   5.135   3.756  13.313  0.2575  0.2346  2.7977
15670TIP3   OH268424   2.300   0.940   0.434  0.6827 -0.2215 -0.0879
15670TIP3    H168425   2.250   0.971   0.359 -1.4891 -0.4363  1.1972
15670TIP3    H268426   2.327   0.851   0.410 -0.6502 -0.5773 -0.3476
15671TIP3   OH268427   4.110   1.096   6.474 -1.1751  0.2954 -0.7211
15671TIP3    H168428   4.054   1.025   6.443 -0.6015  0.1303 -1.4206
15671TIP3    H268429   4.174   1.052   6.530 -2.8928  0.7349  1.7483
15672TIP3   OH268430   1.112   6.079  16.342  0.5648 -0.1938  0.3200
15672TIP3    H168431   1.154   6.161  16.368  0.2499  0.5852 -1.4861
15672TIP3    H268432   1.184   6.017  16.333  1.0695  0.4850 -0.4310
15673TIP3   OH268433   0.821   2.561  11.885  0.8449  0.0568  1.0335
15673TIP3    H168434   0.748   2.507  11.853  0.2315  1.2265  0.4220
15673TIP3    H268435   0.877   2.499  11.933 -0.1413 -1.0091  0.8504
15674TIP3   OH268436   6.225   6.161   5.874  0.5403  0.2200  0.3827
15674TIP3    H168437   6.268   6.099   5.933  1.5672 -1.2257 -1.7163
15674TIP3    H268438   6.298   6.205   5.829 -0.0737 -0.7491 -1.7212
15675TIP3   OH268439   5.009   2.950   2.780  0.3551 -0.3733 -0.6549
15675TIP3    H168440   4.925   2.937   2.737  1.4157 -1.2327 -2.6432
15675TIP3    H268441   5.067   2.886   2.738  1.8003 -0.3818  1.2512
15676TIP3   OH268442   1.309   4.741   5.095 -0.0138 -0.3979 -0.5958
15676TIP3    H168443   1.267   4.664   5.135  0.4375 -0.2995  0.0676
15676TIP3    H268444   1.336   4.795   5.169  0.5569 -0.0690 -1.0424
15677TIP3   OH268445   5.709   5.053  16.388  0.2571 -0.1913 -0.2692
15677TIP3    H168446   5.690   5.028  16.298 -0.9209 -0.1145 -0.0546
15677TIP3    H268447   5.749   5.139  16.382  0.1534 -0.1742 -0.7127
15678TIP3   OH268448   3.414   0.171  13.646 -0.7246  0.1150  0.3324
15678TIP3    H168449   3.376   0.234  13.708  1.2593  0.0811  1.6548
15678TIP3    H268450   3.443   0.225  13.572 -0.6453  0.5175  0.6515
15679TIP3   OH268451   6.213   1.447  11.006 -0.0878 -0.3684 -0.4367
15679TIP3    H168452   6.146   1.511  10.981  0.3569 -0.3646 -1.7118
15679TIP3    H268453   6.236   1.469  11.096 -0.6319  0.6542 -0.5408
15680TIP3   OH268454   0.431   6.428  16.937 -0.1320 -0.1059 -0.2579
15680TIP3    H168455   0.426   6.340  16.974  0.2304  0.0202  0.0940
15680TIP3    H268456   0.362   6.478  16.982  1.4780  0.5450  1.6359
15681TIP3   OH268457   2.140   1.580   2.530 -0.9720  0.2066  0.4811
15681TIP3    H168458   2.206   1.600   2.463 -0.2014  0.2965  1.2547
15681TIP3    H268459   2.130   1.485   2.525 -0.5196  0.1495  0.5934
15682TIP3   OH268460   2.377   4.541  14.629  0.3460 -0.0409  0.3572
15682TIP3    H168461   2.306   4.526  14.567  0.7452  0.1609 -0.1616
15682TIP3    H268462   2.457   4.533  14.576  0.7464 -1.0861  1.0907
15683TIP3   OH268463   1.766   6.535  12.310  0.2413 -0.0021  0.0517
15683TIP3    H168464   1.685   6.539  12.362  0.5544  1.8264  0.4602
15683TIP3    H268465   1.833   6.572  12.368  2.2898 -4.6099  1.1756
15684TIP3   OH268466   2.122   1.631   0.161  0.4882  0.2748  0.4111
15684TIP3    H168467   2.123   1.566   0.091  2.4660  0.5629  0.1239
15684TIP3    H268468   2.137   1.715   0.117 -2.2424  1.0442  0.7474
15685TIP3   OH268469   6.483   1.213  15.992 -0.4163  0.1424 -0.6303
15685TIP3    H168470   6.395   1.187  15.963  0.2033  1.2866 -3.8766
15685TIP3    H268471   6.542   1.172  15.929  1.4408 -0.4702  1.4063
15686TIP3   OH268472   5.163   4.402  11.716  0.2752  0.6253  0.4200
15686TIP3    H168473   5.155   4.444  11.630 -4.1980 -0.6793 -0.0713
15686TIP3    H268474   5.254   4.374  11.721  1.4529  3.3370 -2.5600
15687TIP3   OH268475   3.940   3.112   3.356  0.2917 -0.2187 -0.5470
15687TIP3    H168476   3.914   3.193   3.312 -1.3239  0.2087  1.0848
15687TIP3    H268477   3.984   3.141   3.436 -1.0774 -0.9171  0.4889
15688TIP3   OH268478   3.457   1.117   3.802 -0.2023  0.1473 -0.4161
15688TIP3    H168479   3.488   1.207   3.789 -1.8130  0.7702 -0.1620
15688TIP3    H268480   3.492   1.091   3.887  0.1160  0.6078 -0.4057
15689TIP3   OH268481   5.554   4.975  11.230 -0.3080 -0.5629  0.4054
15689TIP3    H168482   5.528   4.916  11.159 -1.4435  0.7002 -0.2969
15689TIP3    H268483   5.526   4.931  11.310 -1.8324 -0.6880 -0.1549
15690TIP3   OH268484   6.113   1.685   5.404  0.5118 -0.2100 -0.7253
15690TIP3    H168485   6.070   1.605   5.434  0.5202 -0.2998 -0.9555
15690TIP3    H268486   6.074   1.754   5.457  0.0197 -0.2784 -0.9944
15691TIP3   OH268487   0.732   0.127   6.085  0.2667 -0.0811 -0.1983
15691TIP3    H168488   0.799   0.065   6.115  0.5530  0.3647  0.0938
15691TIP3    H268489   0.765   0.213   6.112 -0.0126  0.2251 -0.8038
15692TIP3   OH268490   3.783   4.344  11.371 -0.1946  0.4512  0.0404
15692TIP3    H168491   3.763   4.423  11.421 -0.4901  0.6887 -0.4488
15692TIP3    H268492   3.834   4.376  11.296 -0.2381  0.1676 -0.1092
15693TIP3   OH268493   0.711   0.469  11.867 -0.4308 -0.0408  0.1148
15693TIP3    H168494   0.786   0.527  11.877  1.9219 -2.3811 -2.3697
15693TIP3    H268495   0.714   0.412  11.944 -1.3563  1.5233  1.3672
15694TIP3   OH268496   3.693   3.819   2.944  0.2000  0.2895 -0.2734
15694TIP3    H168497   3.607   3.781   2.959 -0.1812  0.8526 -0.9618
15694TIP3    H268498   3.729   3.768   2.871 -0.2187  1.0630 -1.0457
15695TIP3   OH268499   2.262   1.489  15.693 -0.3161 -0.5211 -0.2365
15695TIP3    H168500   2.311   1.549  15.749 -0.2860  0.0071 -0.8207
15695TIP3    H268501   2.323   1.464  15.624  0.0896 -2.2381  0.6725
15696TIP3   OH268502   1.750   1.296  16.587 -0.2168 -0.0383 -0.4236
15696TIP3    H168503   1.764   1.314  16.494  0.3662 -1.7069 -0.6924
15696TIP3    H268504   1.795   1.213  16.602  0.3436  0.5823  1.5422
15697TIP3   OH268505   3.557   6.581  13.144  0.0929  0.3579  0.5923
15697TIP3    H168506   3.528   6.622  13.063 -0.4951 -2.0617 -0.5004
15697TIP3    H268507   3.518   6.635  13.213  0.6007  2.4615 -0.6783
15698TIP3   OH268508   6.154   5.350   0.345 -0.4028  0.5074  0.4758
15698TIP3    H168509   6.073   5.299   0.352  0.6522 -1.2768  0.3209
15698TIP3    H268510   6.193   5.322   0.262  0.7415  0.7732  0.9072
15699TIP3   OH268511   2.743   3.905   3.719 -0.3502  0.4638  0.6848
15699TIP3    H168512   2.765   3.814   3.698 -0.6147  0.5513  0.0268
15699TIP3    H268513   2.724   3.903   3.813  0.9368  0.0994  0.9512
15700TIP3   OH268514   0.060   6.319   3.153  0.1817  0.5558  0.2732
15700TIP3    H168515  -0.014   6.295   3.209  0.1245  0.2945  0.0872
15700TIP3    H268516   0.029   6.394   3.103 -0.2212 -0.0139 -0.3423
15701TIP3   OH268517   5.121   3.183   0.929  0.1414  0.1316  0.4280
15701TIP3    H168518   5.105   3.253   0.866  2.2869 -0.1911 -0.5221
15701TIP3    H268519   5.078   3.106   0.892  3.2572 -0.6413 -1.9187
15702TIP3   OH268520   0.195   6.705  16.240 -0.0981 -0.1633  0.6268
15702TIP3    H168521   0.198   6.751  16.324  2.1617 -0.3396  0.7012
15702TIP3    H268522   0.226   6.617  16.260  0.0680 -0.3274 -0.3324
15703TIP3   OH268523   1.609   0.307   4.120  0.6811  0.2547  0.3294
15703TIP3    H168524   1.544   0.371   4.092 -0.2295 -1.0889 -0.7700
15703TIP3    H268525   1.562   0.250   4.181  1.0660 -0.2251  0.1835
15704TIP3   OH268526   4.487   3.935  17.415  0.5553 -0.2997 -0.3146
15704TIP3    H168527   4.416   3.881  17.452 -0.0238 -0.3218 -1.4126
15704TIP3    H268528   4.442   4.010  17.377  1.1674 -0.1040 -0.6605
15705TIP3   OH268529   5.322   6.497  16.366  0.2501  0.7657 -0.0807
15705TIP3    H168530   5.243   6.529  16.322 -1.1625 -0.5775  1.3485
15705TIP3    H268531   5.388   6.494  16.297 -0.8667  2.0889 -1.2902
15706TIP3   OH268532   2.755   3.939  12.985  0.2686  0.0600 -0.1266
15706TIP3    H168533   2.691   3.869  12.972  0.5391 -0.1541 -0.3170
15706TIP3    H268534   2.830   3.914  12.931  0.5620  0.2460  0.1865
15707TIP3   OH268535   0.243   3.653  15.290 -0.6908 -0.6116 -0.0376
15707TIP3    H168536   0.151   3.651  15.265 -0.5723  0.0966 -0.5558
15707TIP3    H268537   0.244   3.628  15.382 -1.0951 -3.8115 -0.7869
15708TIP3   OH268538   1.849   2.804   2.386 -0.1502 -0.3875  0.4714
15708TIP3    H168539   1.872   2.720   2.425 -0.7063 -1.8902 -2.1565
15708TIP3    H268540   1.754   2.803   2.382 -0.1750  0.5351  0.7166
15709TIP3   OH268541   5.971   3.191   0.663  0.0207 -0.0947 -0.2671
15709TIP3    H168542   5.970   3.110   0.611  0.5106  0.0296 -0.4719
15709TIP3    H268543   5.920   3.253   0.611  1.6805  0.4651 -1.3333
15710TIP3   OH268544   5.577   1.481  14.275  0.5205  0.5751  0.0649
15710TIP3    H168545   5.616   1.437  14.350 -1.6138 -0.1060  0.8357
15710TIP3    H268546   5.649   1.488  14.212  1.7399 -1.1311  1.1630
15711TIP3   OH268547   4.016   3.441  17.617  0.8720 -0.1171  0.1215
15711TIP3    H168548   4.020   3.398  17.702  0.9582  1.6862  1.0647
15711TIP3    H268549   4.089   3.503  17.617 -1.8469  3.4288  0.7834
15712TIP3   OH268550   2.436   1.117   5.296 -0.5230 -0.6656  0.2997
15712TIP3    H168551   2.361   1.171   5.322  0.4098  0.9132 -0.1087
15712TIP3    H268552   2.512   1.163   5.332  0.4432 -0.7975 -1.4685
15713TIP3   OH268553   5.812   3.327   0.485 -0.0955 -0.0134 -0.3720
15713TIP3    H168554   5.802   3.421   0.472  2.1424  0.2466 -0.5795
15713TIP3    H268555   5.729   3.289   0.455 -1.6102  1.9605  1.0632
15714TIP3   OH268556   5.823   1.202  14.128 -0.2335 -0.3602  0.0194
15714TIP3    H168557   5.901   1.180  14.078 -0.0296 -0.0512  0.1991
15714TIP3    H268558   5.758   1.137  14.101  0.1006 -0.6519 -0.0909
15715TIP3   OH268559   5.478   3.436   1.108 -0.0448 -0.2530  0.4006
15715TIP3    H168560   5.492   3.461   1.199  0.1764  0.9594  0.0510
15715TIP3    H268561   5.518   3.349   1.101 -0.4081 -0.5300  1.5428
15716TIP3   OH268562   1.353   6.555  14.409 -0.3036 -0.2457  0.3287
15716TIP3    H168563   1.391   6.569  14.322 -1.2081  0.1941 -0.0089
15716TIP3    H268564   1.429   6.551  14.468  0.4471 -2.4820 -0.6898
15717TIP3   OH268565   5.511   1.772   3.403 -0.4379  0.1903  0.7913
15717TIP3    H168566   5.536   1.682   3.382  1.9023  0.4385  2.1564
15717TIP3    H268567   5.470   1.805   3.324  0.3643 -1.5036 -0.3895
15718TIP3   OH268568   2.631   6.252  14.102 -0.1386  0.6887 -0.0009
15718TIP3    H168569   2.594   6.340  14.095 -1.8986 -0.1113 -1.5271
15718TIP3    H268570   2.568   6.196  14.058  1.1992 -1.2916  0.4750
15719TIP3   OH268571   5.396   2.541   5.351  0.0335 -0.1467  0.1797
15719TIP3    H168572   5.315   2.533   5.300 -0.3552  1.3048  0.5157
15719TIP3    H268573   5.455   2.477   5.311 -0.9241 -0.4789 -0.7770
15720TIP3   OH268574   5.212   1.028   3.954  0.2636 -0.3625  0.4971
15720TIP3    H168575   5.272   0.990   3.889 -0.1943 -0.9711  0.4181
15720TIP3    H268576   5.225   1.122   3.947  2.6007 -0.5167  1.7996
15721TIP3   OH268577   6.334   3.581   4.760  0.3083 -0.1329  0.0729
15721TIP3    H168578   6.415   3.551   4.803  0.1642  0.3397  0.6877
15721TIP3    H268579   6.265   3.531   4.803  0.0901  0.8525  0.9311
15722TIP3   OH268580   6.271   4.809   6.587 -0.2916 -0.0392 -0.3031
15722TIP3    H168581   6.321   4.727   6.586 -0.8958 -0.4239 -1.4569
15722TIP3    H268582   6.336   4.878   6.577  0.0928 -0.4938 -1.0578
15723TIP3   OH268583   2.811   0.913  13.589 -0.0829  0.0015  0.3047
15723TIP3    H168584   2.754   0.951  13.522  1.0940  1.3182  0.0049
15723TIP3    H268585   2.899   0.922  13.553  0.3587 -1.8678  0.8126
15724TIP3   OH268586   2.831   4.003   6.376  0.0276 -0.0775 -0.0300
15724TIP3    H168587   2.763   3.958   6.326  1.1524 -0.6320 -1.1382
15724TIP3    H268588   2.784   4.063   6.433 -1.3688 -0.2369 -0.9701
15725TIP3   OH268589   5.051   3.979   2.338  0.0364  0.0640  0.1829
15725TIP3    H168590   5.097   3.933   2.408  1.2938  0.9313 -0.0434
15725TIP3    H268591   4.974   3.925   2.321 -0.4844  0.0133  2.4489
15726TIP3   OH268592   4.903   3.263  16.389 -0.2351  0.6174 -0.6234
15726TIP3    H168593   4.910   3.189  16.328 -0.5716 -0.5831  0.7422
15726TIP3    H268594   4.991   3.275  16.423 -0.4177 -0.0258  0.1108
15727TIP3   OH268595   4.011   3.167  13.398  0.1513  0.2964  0.0015
15727TIP3    H168596   4.090   3.171  13.452  0.3462 -0.3120 -0.2189
15727TIP3    H268597   3.974   3.255  13.402  0.5032  0.4213  0.6122
15728TIP3   OH268598   0.227   3.913   2.788 -0.1393  0.1156  0.2545
15728TIP3    H168599   0.232   3.828   2.832  0.4405 -1.6634 -2.9224
15728TIP3    H268600   0.158   3.960   2.834  0.2246 -1.6395  2.7761
15729TIP3   OH268601   0.352   4.600   3.809  0.3095  0.2160  0.2219
15729TIP3    H168602   0.296   4.619   3.734 -0.2139  1.4089  0.8851
15729TIP3    H268603   0.311   4.646   3.882  1.2358 -0.2776  1.0823
15730TIP3   OH268604   0.029   3.908   4.062  0.1109  0.6141  0.3320
15730TIP3    H168605   0.102   3.959   4.027  0.4259  0.6751  1.0595
15730TIP3    H268606   0.055   3.817   4.048 -0.2535  0.6414 -0.5663
15731TIP3   OH268607   2.829   2.443   1.104  0.6375 -0.1958  0.4847
15731TIP3    H168608   2.811   2.432   1.197  1.8533  1.4192  0.9497
15731TIP3    H268609   2.777   2.520   1.079  0.5278 -0.4594 -0.1125
15732TIP3   OH268610   1.418   3.350  13.324 -0.2821  0.5630  0.6563
15732TIP3    H168611   1.424   3.326  13.232  1.4096  0.9112  0.6321
15732TIP3    H268612   1.344   3.411  13.328 -0.8530 -0.0399 -0.3226
15733TIP3   OH268613   5.817   1.274   4.155  0.4202  0.2865  0.0163
15733TIP3    H168614   5.885   1.341   4.154 -0.4322  1.1945  0.5690
15733TIP3    H268615   5.735   1.323   4.144 -0.3625 -0.4678  1.9670
15734TIP3   OH268616   1.287   5.979   1.951  0.5646 -0.9325  0.3762
15734TIP3    H168617   1.196   5.986   1.978  0.1351 -0.7732 -1.0486
15734TIP3    H268618   1.324   6.066   1.968 -0.1955 -0.2554 -1.2317
15735TIP3   OH268619   6.202   1.430   1.198  0.1365 -0.2643 -0.5759
15735TIP3    H168620   6.188   1.480   1.278  0.7038  2.0627 -1.8649
15735TIP3    H268621   6.285   1.384   1.212  0.4010  0.3975  0.0345
15736TIP3   OH268622   3.078   0.912   3.072 -0.2604  0.0141 -0.1217
15736TIP3    H168623   2.993   0.900   3.031  0.0017 -0.1830 -0.6078
15736TIP3    H268624   3.063   0.978   3.140 -0.2714  1.9872 -1.9218
15737TIP3   OH268625   4.445   1.589  13.492 -0.1115 -0.0480 -0.3736
15737TIP3    H168626   4.411   1.612  13.579 -1.8511 -0.2247 -0.9630
15737TIP3    H268627   4.439   1.493  13.489  0.6995 -0.1024 -0.4094
15738TIP3   OH268628   2.009   5.543   4.082  0.3588  0.3691  0.2689
15738TIP3    H168629   1.978   5.485   4.152 -0.7918 -0.5537 -0.9585
15738TIP3    H268630   1.965   5.511   4.004  0.7183  2.1148 -0.6820
15739TIP3   OH268631   3.249   4.564  17.430  0.4920 -0.2652 -0.0395
15739TIP3    H168632   3.262   4.643  17.482  1.2225 -1.5084  1.7313
15739TIP3    H268633   3.169   4.582  17.380  1.0115  1.8403 -0.2267
15740TIP3   OH268634   2.326   2.690   0.838  0.1783 -0.3467 -0.2489
15740TIP3    H168635   2.382   2.646   0.774  0.2095  0.5058 -0.8310
15740TIP3    H268636   2.254   2.629   0.853  2.1214 -2.2723  1.9155
15741TIP3   OH268637   5.650   4.319   5.207 -0.3675  0.3431 -0.1569
15741TIP3    H168638   5.716   4.376   5.247 -0.5704  0.9066 -0.6082
15741TIP3    H268639   5.691   4.289   5.126 -0.3156 -0.0530  0.0114
15742TIP3   OH268640   5.358   6.591  14.735 -0.5401  0.2151  0.1948
15742TIP3    H168641   5.343   6.513  14.682  0.3189 -0.1902  0.5200
15742TIP3    H268642   5.350   6.664  14.673 -0.0751 -0.2144 -0.3887
15743TIP3   OH268643   0.079   0.326  16.628  0.0561 -0.3972 -0.3252
15743TIP3    H168644   0.132   0.352  16.704 -0.6957 -1.8929  0.7653
15743TIP3    H268645  -0.007   0.363  16.644 -0.1620 -0.8904 -0.3345
15744TIP3   OH268646   4.513   4.921  16.551  0.3426 -0.5146  0.0275
15744TIP3    H168647   4.475   4.853  16.495 -0.5090  0.2840 -0.3826
15744TIP3    H268648   4.601   4.934  16.516  0.1025 -0.5946 -0.6156
15745TIP3   OH268649   0.830   1.113   3.940  1.0323 -0.4371 -0.0611
15745TIP3    H168650   0.779   1.194   3.942 -0.6631 -1.4206 -0.9306
15745TIP3    H268651   0.902   1.133   3.880 -1.5222 -0.6323 -3.5443
15746TIP3   OH268652   4.989   2.732   2.507  0.4220  0.0411 -0.5933
15746TIP3    H168653   4.903   2.745   2.467 -0.1211 -0.8905  0.2281
15746TIP3    H268654   4.974   2.666   2.575  1.5588  0.6762  0.3093
15747TIP3   OH268655   2.234   6.462   1.615 -0.2424  0.3744  0.5291
15747TIP3    H168656   2.252   6.424   1.701 -1.2994 -4.4652 -1.0625
15747TIP3    H268657   2.318   6.501   1.588  1.0385 -0.8364  2.4732
15748TIP3   OH268658   3.124   3.233  11.396 -0.1602 -0.0491  0.5466
15748TIP3    H168659   3.100   3.315  11.355  1.2556  0.3564  0.4629
15748TIP3    H268660   3.099   3.166  11.333 -1.0417  0.3324  0.4840
15749TIP3   OH268661   1.210   3.599   4.447 -0.2181 -0.5603  0.0523
15749TIP3    H168662   1.272   3.559   4.386 -1.6600 -2.8801  0.0153
15749TIP3    H268663   1.218   3.547   4.527 -2.2660 -1.0949 -0.0397
15750TIP3   OH268664   6.245   2.036  12.086 -0.5965  0.3164 -0.6874
15750TIP3    H168665   6.194   2.059  12.163 -0.2396 -4.1577  1.1520
15750TIP3    H268666   6.238   1.941  12.079  1.2298  0.2489 -4.9414
15751TIP3   OH268667   2.287   1.698   2.311  0.1473 -0.0491 -0.0164
15751TIP3    H168668   2.218   1.740   2.260 -1.1796 -0.3997  1.4029
15751TIP3    H268669   2.320   1.767   2.368  1.0538  0.1366 -0.7438
15752TIP3   OH268670   3.121   1.460  12.761  0.0440  0.2515  0.8445
15752TIP3    H168671   3.031   1.431  12.779 -0.0483  1.0384  1.7513
15752TIP3    H268672   3.157   1.480  12.847  1.4202 -0.9214  0.5671
15753TIP3   OH268673   5.816   4.205  12.712 -0.0749  0.4036 -0.2420
15753TIP3    H168674   5.781   4.286  12.675 -2.5500 -0.9849 -1.2175
15753TIP3    H268675   5.891   4.184  12.657 -0.1065  1.4452 -0.7037
15754TIP3   OH268676   5.150   5.378   5.412  0.0378  0.0282 -0.2883
15754TIP3    H168677   5.111   5.295   5.442 -2.1342  0.3770 -1.8657
15754TIP3    H268678   5.116   5.443   5.473  0.9538 -0.0974  0.3678
15755TIP3   OH268679   1.829   4.170  17.185 -0.0231 -0.0613  0.8981
15755TIP3    H168680   1.799   4.097  17.132  0.1711 -1.0718  2.1281
15755TIP3    H268681   1.834   4.244  17.124  0.4294 -1.2165 -0.5263
15756TIP3   OH268682   2.015   1.330   2.553  0.0969 -0.5613 -0.0843
15756TIP3    H168683   1.938   1.282   2.522  0.6434 -0.8815 -0.9508
15756TIP3    H268684   2.006   1.329   2.649 -0.9061 -0.7027 -0.1678
15757TIP3   OH268685   3.309   4.923  15.225 -0.5466 -0.6378  0.6047
15757TIP3    H168686   3.276   4.985  15.291  0.3701 -0.0224  0.5040
15757TIP3    H268687   3.343   4.979  15.155 -2.1352 -1.2820 -0.7340
15758TIP3   OH268688   2.286   2.331  17.333 -0.3844 -0.1930 -0.5060
15758TIP3    H168689   2.195   2.331  17.363 -0.1111  0.4853  0.3422
15758TIP3    H268690   2.284   2.381  17.251 -0.4160  1.8942  0.7066
15759TIP3   OH268691   3.226   2.115   4.714 -0.9003 -0.1565 -0.0706
15759TIP3    H168692   3.197   2.201   4.743 -1.2539  0.6695 -2.6775
15759TIP3    H268693   3.147   2.073   4.679 -0.1849 -0.2808 -1.6320
15760TIP3   OH268694   0.871   3.156  16.509  0.1362  0.3452  0.3197
15760TIP3    H168695   0.867   3.252  16.514 -0.8147  0.3568 -0.4438
15760TIP3    H268696   0.848   3.135  16.418  0.9282 -0.5880  0.3109
15761TIP3   OH268697   1.150   5.902  14.172  0.3477  0.1136 -0.1973
15761TIP3    H168698   1.115   5.849  14.101 -0.3695  0.0154  0.2231
15761TIP3    H268699   1.215   5.958  14.130  0.9653 -0.9304 -0.6867
15762TIP3   OH268700   1.233   0.152  15.841 -0.3277 -0.5691 -0.0963
15762TIP3    H168701   1.149   0.112  15.820 -1.1060  0.5901  0.6987
15762TIP3    H268702   1.278   0.158  15.757 -1.8954  0.6827 -0.9051
15763TIP3   OH268703   1.995   4.872  13.189 -0.7280 -0.0064  0.0357
15763TIP3    H168704   1.947   4.793  13.164  0.8315 -0.7035 -0.8612
15763TIP3    H268705   2.086   4.843  13.198 -0.2398  1.5487  0.3740
15764TIP3   OH268706   1.031   4.728  17.556 -0.0613 -0.3339 -0.1372
15764TIP3    H168707   0.952   4.712  17.503  0.0319  0.8319 -0.6643
15764TIP3    H268708   1.051   4.821  17.541  0.1988 -0.0605  1.6493
15765TIP3   OH268709   5.708   3.161  11.044 -0.2771 -0.1954 -0.2900
15765TIP3    H168710   5.754   3.126  11.121  0.6293  0.5857 -0.4618
15765TIP3    H268711   5.774   3.164  10.975 -0.6130  0.7739 -0.5947
15766TIP3   OH268712   5.026   6.393   4.199  0.0325  0.5286 -0.6633
15766TIP3    H168713   5.039   6.474   4.149  0.2246  0.5511 -0.5750
15766TIP3    H268714   4.933   6.395   4.223  0.1656  0.9949 -0.1849
15767TIP3   OH268715   4.830   0.592   4.680 -0.3995  0.0959  0.3944
15767TIP3    H168716   4.843   0.685   4.700 -3.0717  0.7937 -0.6354
15767TIP3    H268717   4.879   0.546   4.747  1.4420  2.2266  0.6286
15768TIP3   OH268718   3.062   2.225   3.903  0.6693 -0.1356  0.3972
15768TIP3    H168719   2.998   2.161   3.936  1.0793 -0.1491  1.1893
15768TIP3    H268720   3.114   2.177   3.839 -0.1753 -0.0956 -0.3421
15769TIP3   OH268721   0.273   3.885   3.709  0.4891  0.0623 -0.1588
15769TIP3    H168722   0.203   3.823   3.727  0.3698 -0.3060 -1.7399
15769TIP3    H268723   0.251   3.962   3.761 -0.8992 -0.1703 -0.3623
15770TIP3   OH268724   6.460   2.702  13.035  0.0734 -0.3307 -0.3705
15770TIP3    H168725   6.437   2.645  12.962 -1.1954 -1.2449  0.6943
15770TIP3    H268726   6.496   2.642  13.101 -0.2622  0.2432  0.3496
15771TIP3   OH268727   6.021   2.038   1.835 -0.1678 -0.4544  0.3288
15771TIP3    H168728   6.029   2.014   1.928 -1.7121 -0.9081  0.3792
15771TIP3    H268729   5.974   2.122   1.836  0.6410  0.0194 -0.0344
15772TIP3   OH268730   3.887   2.064   0.960  0.2362  0.3823 -0.0002
15772TIP3    H168731   3.890   2.026   1.048  0.4793 -1.0838 -0.6102
15772TIP3    H268732   3.951   2.013   0.910  1.4705  2.4159 -0.6012
15773TIP3   OH268733   5.742   5.344  13.844  0.3339  0.1758 -0.4358
15773TIP3    H168734   5.673   5.343  13.777 -0.7903 -0.1183  0.6756
15773TIP3    H268735   5.817   5.301  13.802 -0.8126 -1.3382 -1.0518
15774TIP3   OH268736   5.468   0.064  12.288  0.0786  0.7314  0.0570
15774TIP3    H168737   5.434  -0.018  12.253  2.7709 -0.2072 -0.5989
15774TIP3    H268738   5.395   0.102  12.336 -2.0137 -0.7797 -1.7516
15775TIP3   OH268739   6.375   6.065   2.711  0.1523  0.5780 -0.1060
15775TIP3    H168740   6.309   6.127   2.742 -0.5097  1.1792 -2.5105
15775TIP3    H268741   6.457   6.113   2.715 -0.1223  1.0926 -0.4558
15776TIP3   OH268742   3.277   5.209  12.809  0.2804 -0.6024 -0.8338
15776TIP3    H168743   3.223   5.273  12.856  0.1181  0.2195 -2.1098
15776TIP3    H268744   3.250   5.216  12.718  2.1219 -0.5987 -1.4193
15777TIP3   OH268745   4.671   2.913  14.559 -0.6845  0.1025  0.0566
15777TIP3    H168746   4.636   2.824  14.567  2.4387 -1.5009 -1.9823
15777TIP3    H268747   4.608   2.959  14.505 -1.5829 -1.3729 -0.2133
15778TIP3   OH268748   6.088   4.925   4.863  0.6204  0.1406  0.6897
15778TIP3    H168749   6.036   4.885   4.933  1.0699 -0.4688  0.6826
15778TIP3    H268750   6.064   5.018   4.866  0.6021  0.1185  1.6281
15779TIP3   OH268751   0.453   3.172  17.176 -0.1840  0.0621  0.4124
15779TIP3    H168752   0.380   3.178  17.114  1.9555  1.4322 -2.2033
15779TIP3    H268753   0.451   3.255  17.223  0.0088  0.3461 -0.0708
15780TIP3   OH268754   1.508   5.560  12.421  0.1332  0.2412  0.0418
15780TIP3    H168755   1.457   5.628  12.379 -0.9231 -0.2405  0.5196
15780TIP3    H268756   1.524   5.496  12.352  1.8184  1.3031 -0.6245
15781TIP3   OH268757   2.211   6.503  14.754 -0.2669  0.6668 -0.1144
15781TIP3    H168758   2.173   6.416  14.761  0.9294 -0.0618 -1.9890
15781TIP3    H268759   2.156   6.558  14.810 -1.9860 -0.9756 -0.1151
15782TIP3   OH268760   2.140   3.298  14.352 -0.1904  0.0751  0.5921
15782TIP3    H168761   2.202   3.359  14.392  2.3230 -1.0034 -1.3435
15782TIP3    H268762   2.159   3.214  14.394 -0.3115 -0.2610 -0.0134
15783TIP3   OH268763   4.329   5.474  15.136 -0.6385  0.0574  0.7881
15783TIP3    H168764   4.284   5.438  15.212  0.2910  1.1710  1.9093
15783TIP3    H268765   4.419   5.445  15.146 -0.2698  1.1295  0.7342
15784TIP3   OH268766   6.446   6.050  11.830  0.7229  0.6697 -0.1719
15784TIP3    H168767   6.500   6.128  11.821  0.2393  0.9102 -1.0676
15784TIP3    H268768   6.427   6.044  11.924  1.3848  1.1978 -0.0015
15785TIP3   OH268769   6.432   6.208   4.622 -0.2036 -0.1767  0.2483
15785TIP3    H168770   6.489   6.135   4.647  1.8955  1.2525 -0.1002
15785TIP3    H268771   6.423   6.201   4.527 -2.1556 -1.4006  0.4631
15786TIP3   OH268772   3.395   5.140   3.550 -0.0296  0.1773  0.1352
15786TIP3    H168773   3.370   5.208   3.612  1.6780  0.6993  0.3027
15786TIP3    H268774   3.489   5.151   3.538 -0.0550 -0.8452 -1.4302
15787TIP3   OH268775   3.992   1.337  11.999 -0.3795 -0.0494  0.4547
15787TIP3    H168776   4.084   1.365  12.000 -1.1095  2.6312  0.1364
15787TIP3    H268777   3.974   1.310  12.088  0.4681  0.3134  0.7492
15788TIP3   OH268778   5.401   5.416   0.773  0.0391  0.2622  0.2322
15788TIP3    H168779   5.323   5.379   0.731  0.9524 -2.4668  0.7527
15788TIP3    H268780   5.385   5.405   0.867  1.4549 -1.3851  0.3279
15789TIP3   OH268781   0.305   0.237   5.324 -0.3148  0.1706  0.1667
15789TIP3    H168782   0.286   0.144   5.309 -0.5493  0.5261 -2.0029
15789TIP3    H268783   0.219   0.276   5.340 -0.5031  0.3593 -1.1822
15790TIP3   OH268784   4.710   1.900   0.904  0.2598  0.1384  0.0139
15790TIP3    H168785   4.749   1.986   0.887 -0.0959  0.8471  2.4434
15790TIP3    H268786   4.745   1.844   0.834  0.8876  2.1071 -1.3489
15791TIP3   OH268787   3.926   4.402  15.721  0.3788 -0.1252 -0.6867
15791TIP3    H168788   3.909   4.495  15.738  0.3506 -0.4296  1.2175
15791TIP3    H268789   4.013   4.386  15.758  0.5598 -0.7725 -1.3723
15792TIP3   OH268790   1.531   3.367  16.945  0.1257 -0.0140 -0.7717
15792TIP3    H168791   1.509   3.433  17.010 -0.0265 -0.4043 -0.4256
15792TIP3    H268792   1.490   3.286  16.977  0.6668 -0.3754 -0.9622
15793TIP3   OH268793   3.675   5.315  11.992  0.1619 -0.1879 -0.0743
15793TIP3    H168794   3.748   5.267  12.033 -0.2390 -0.0089  0.8780
15793TIP3    H268795   3.715   5.359  11.917  1.1991  0.4583  0.8111
15794TIP3   OH268796   6.590   4.992  17.160  0.6590  0.3719  0.1313
15794TIP3    H168797   6.564   4.994  17.068  0.0194  0.6395  0.3129
15794TIP3    H268798   6.683   5.017  17.159  0.8271 -0.2308 -0.4898
15795TIP3   OH268799   2.175   4.060  11.945  0.0206 -0.7105 -0.6761
15795TIP3    H168800   2.259   4.098  11.919  1.2121 -3.6471 -1.5051
15795TIP3    H268801   2.114   4.089  11.877  0.6426  0.4137 -0.7715
15796TIP3   OH268802   5.701   4.099   0.707 -0.0848  0.5141  0.4169
15796TIP3    H168803   5.688   4.090   0.801  0.5066  0.9182  0.5385
15796TIP3    H268804   5.792   4.126   0.697 -0.7558  2.8242 -0.1192
15797TIP3   OH268805   0.390   2.302  13.713 -0.8038  0.5277 -0.0214
15797TIP3    H168806   0.431   2.246  13.647 -1.8214 -0.0096 -0.2148
15797TIP3    H268807   0.377   2.244  13.788  0.1441  1.0796  0.5955
15798TIP3   OH268808   3.192   5.009   7.035  0.2932  0.0580  0.7479
15798TIP3    H168809   3.201   5.043   6.946  2.3031 -0.1353  0.8156
15798TIP3    H268810   3.147   4.925   7.024 -0.1597  0.3882  0.0099
15799TIP3   OH268811   5.088   0.041  12.811 -0.1808 -0.3176  0.3853
15799TIP3    H168812   5.047  -0.001  12.886  0.1546 -0.4327  0.5043
15799TIP3    H268813   5.075  -0.021  12.739 -2.8074  0.8906 -0.3133
15800TIP3   OH268814   0.075   2.536  15.144  0.6780  0.3325 -0.1518
15800TIP3    H168815   0.130   2.505  15.072  0.4512  2.6256 -1.4189
15800TIP3    H268816   0.120   2.614  15.177 -0.3988  0.6534  0.6227
15801TIP3   OH268817   2.948   2.625   3.050 -0.3139  0.1144  0.5991
15801TIP3    H168818   2.920   2.714   3.072 -1.2416 -0.0806  0.2616
15801TIP3    H268819   2.873   2.570   3.074  0.2075 -0.5602  0.6957
15802TIP3   OH268820   1.703   3.266  13.437  0.5734 -0.0390 -0.1367
15802TIP3    H168821   1.723   3.316  13.358  1.3319  0.0997  0.1344
15802TIP3    H268822   1.777   3.207  13.447  1.0665  0.7542  1.1081
15803TIP3   OH268823   6.511   0.420  16.649  0.5133  0.1684  0.1428
15803TIP3    H168824   6.530   0.497  16.596  0.2695  0.1811  0.0737
15803TIP3    H268825   6.418   0.404  16.637  1.0216 -1.7319 -2.0138
15804TIP3   OH268826   5.137   3.879  14.144  0.1122  0.0453  0.5348
15804TIP3    H168827   5.135   3.971  14.116  1.8045  0.2035  0.8037
15804TIP3    H268828   5.161   3.884  14.237  0.3834 -0.6778  0.5048
15805TIP3   OH268829   2.318   6.583  12.876 -1.3224  0.2056 -0.5331
15805TIP3    H168830   2.351   6.559  12.962 -2.0741 -2.3634 -0.8693
15805TIP3    H268831   2.395   6.580  12.819 -1.0351  0.7266 -0.1766
15806TIP3   OH268832   3.652   1.283   4.376 -0.6200 -0.1321  0.5784
15806TIP3    H168833   3.723   1.315   4.320 -0.1298 -0.6627  0.8789
15806TIP3    H268834   3.604   1.362   4.401 -1.1216  0.0682 -0.9367
15807TIP3   OH268835   4.215   4.387  17.053  0.0169  0.1222  0.2491
15807TIP3    H168836   4.255   4.362  17.136 -0.9655  0.1166  0.7435
15807TIP3    H268837   4.270   4.457  17.019  1.3526 -0.9708  0.1039
15808TIP3   OH268838   0.635   2.044   3.338 -0.4117 -0.2604 -0.5673
15808TIP3    H168839   0.677   2.003   3.263 -0.8265 -1.3004 -0.2586
15808TIP3    H268840   0.605   2.128   3.306  0.4282 -0.2036 -1.2432
15809TIP3   OH268841   2.522   6.169   5.926 -0.1412 -0.0138  0.1828
15809TIP3    H168842   2.588   6.100   5.923 -0.4943 -0.3283 -0.6140
15809TIP3    H268843   2.560   6.240   5.874 -0.4466 -0.2249 -0.3425
15810TIP3   OH268844   2.463   6.203  13.731  0.0469 -0.3308  0.5133
15810TIP3    H168845   2.468   6.177  13.639 -0.7839  0.8519  0.1081
15810TIP3    H268846   2.457   6.299  13.729  1.3969 -0.1756  1.8683
15811TIP3   OH268847   1.554   1.248   6.421  0.3841 -0.2328 -0.4905
15811TIP3    H168848   1.472   1.236   6.469 -0.5220  3.1962 -0.9566
15811TIP3    H268849   1.622   1.219   6.482 -0.9584  0.3572  1.3603
15812TIP3   OH268850   5.446   4.010   3.418 -0.6274 -0.3198 -0.3567
15812TIP3    H168851   5.470   4.093   3.376  0.0719 -0.1143  0.4068
15812TIP3    H268852   5.404   4.036   3.500  1.6567 -0.6683  1.0086
15813TIP3   OH268853   0.314   4.037  11.904  0.0059 -0.0169  0.3772
15813TIP3    H168854   0.249   3.977  11.941  1.7731 -0.5557  2.7956
15813TIP3    H268855   0.396   4.014  11.946  1.3830  2.0793 -0.9469
15814TIP3   OH268856   0.345   6.552   4.240 -0.3029  0.4611 -0.0576
15814TIP3    H168857   0.379   6.609   4.171 -0.3883 -0.7441 -1.1356
15814TIP3    H268858   0.250   6.564   4.236 -0.2129  1.6228  0.9744
15815TIP3   OH268859   0.464   5.574   4.764  0.6582  0.0942 -0.0337
15815TIP3    H168860   0.461   5.669   4.759  0.7784  0.0655 -0.7216
15815TIP3    H268861   0.506   5.546   4.682 -0.2017 -0.5934 -0.2597
15816TIP3   OH268862   3.650   4.297  15.390  0.2341 -0.2813 -0.2590
15816TIP3    H168863   3.660   4.390  15.408  0.9128 -0.1900 -1.0678
15816TIP3    H268864   3.739   4.262  15.391  0.0646 -0.7493 -0.8580
15817TIP3   OH268865   0.503   0.268  14.047 -0.3583  0.4616 -0.3527
15817TIP3    H168866   0.596   0.290  14.044  0.1687 -1.2638  1.5328
15817TIP3    H268867   0.488   0.214  13.969  0.3829  0.2170 -0.3315
15818TIP3   OH268868   6.268   3.700   3.104 -0.2420  0.8539 -0.3491
15818TIP3    H168869   6.259   3.607   3.123  2.3811 -0.3461 -3.8340
15818TIP3    H268870   6.361   3.719   3.121 -0.0935  2.0835 -2.2571
15819TIP3   OH268871   0.639   0.370  16.908 -0.3128  0.4097 -0.1547
15819TIP3    H168872   0.635   0.416  16.825  0.1368 -0.1831 -0.5163
15819TIP3    H268873   0.561   0.314  16.908 -2.4899  3.2054  1.5705
15820TIP3   OH268874   6.046   4.223   2.187  0.2487 -0.2608  0.8010
15820TIP3    H168875   5.978   4.176   2.140  1.0326 -0.4604 -0.1485
15820TIP3    H268876   6.109   4.249   2.120  0.4411  1.0952  1.4748
15821TIP3   OH268877   1.723   1.240  16.303  0.2768 -0.8792  0.5799
15821TIP3    H168878   1.800   1.184  16.308  1.9970  1.3640  1.1557
15821TIP3    H268879   1.737   1.293  16.224 -1.8842 -1.9817 -0.6350
15822TIP3   OH268880   0.936   2.263   4.896 -0.4620 -0.2137 -0.0982
15822TIP3    H168881   0.974   2.332   4.950 -1.8916  0.7060 -0.1927
15822TIP3    H268882   0.841   2.277   4.903 -0.7882 -2.0994 -0.2396
15823TIP3   OH268883   6.319   6.569   1.999  0.1989 -0.0128 -0.5560
15823TIP3    H168884   6.365   6.621   2.066  0.1308 -0.4576 -0.1609
15823TIP3    H268885   6.341   6.613   1.916 -0.2873  0.9685 -0.1901
15824TIP3   OH268886   2.676   2.385   0.380 -0.3098  0.5976 -0.3599
15824TIP3    H168887   2.661   2.315   0.317 -0.0530 -0.0477  0.2843
15824TIP3    H268888   2.591   2.428   0.389 -0.4687  0.3699 -0.7648
15825TIP3   OH268889   4.524   1.356  11.865  0.2691 -0.0287  0.3642
15825TIP3    H168890   4.604   1.368  11.813  0.6538  0.2009  0.9967
15825TIP3    H268891   4.552   1.303  11.940  0.1876  1.3215  1.3951
15826TIP3   OH268892   1.567   3.807   6.702  0.0549 -0.0867  0.4755
15826TIP3    H168893   1.620   3.886   6.712 -2.2503  1.5940  0.0237
15826TIP3    H268894   1.503   3.811   6.773 -0.6069 -1.1261 -0.0428
15827TIP3   OH268895   1.518   2.247   1.598 -0.3069  0.6668  0.7011
15827TIP3    H168896   1.596   2.239   1.653 -0.8412  1.1634  1.5472
15827TIP3    H268897   1.489   2.337   1.609 -1.4004  0.3007  0.9463
15828TIP3   OH268898   1.509   4.416   3.141  0.1813 -0.2455  0.4133
15828TIP3    H168899   1.427   4.430   3.093  0.9612 -0.9584 -1.2345
15828TIP3    H268900   1.482   4.381   3.225 -1.2338  0.0584  0.1099
15829TIP3   OH268901   3.040   4.793   4.908  0.4774 -0.2074  0.2947
15829TIP3    H168902   3.044   4.762   4.999  1.8108  0.9933  0.6715
15829TIP3    H268903   2.962   4.751   4.872  1.0829 -2.3555  1.3598
15830TIP3   OH268904   4.095   1.004   0.863  0.3901 -0.4542  0.0544
15830TIP3    H168905   4.113   0.985   0.955  0.4191 -0.3999  0.0601
15830TIP3    H268906   4.033   0.937   0.836 -0.3564  0.0904  0.3739
15831TIP3   OH268907   6.048   5.245  11.860  0.7515 -0.0673  0.2373
15831TIP3    H168908   6.127   5.191  11.855  0.5069 -0.4746  0.6528
15831TIP3    H268909   5.979   5.190  11.824  0.7979  0.5893 -0.8892
15832TIP3   OH268910   6.136   2.423  15.984  0.3504  0.4927 -0.1251
15832TIP3    H168911   6.150   2.464  16.069 -0.1722 -2.3316  1.4408
15832TIP3    H268912   6.219   2.380  15.965 -0.1786 -0.6002 -0.0112
15833TIP3   OH268913   2.841   4.783  15.379  0.2733  0.8736  0.2212
15833TIP3    H168914   2.830   4.692  15.405  1.8195 -0.3233 -2.7548
15833TIP3    H268915   2.935   4.799  15.387  0.0339  2.2058  0.6277
15834TIP3   OH268916   5.534   0.637  16.430  0.0023 -0.2874 -0.0859
15834TIP3    H168917   5.497   0.685  16.504  1.0982 -1.4243  1.2595
15834TIP3    H268918   5.628   0.655  16.433  0.1583 -0.9353 -0.7444
15835TIP3   OH268919   5.330   4.521   1.478  0.1061 -0.0035 -0.3888
15835TIP3    H168920   5.363   4.608   1.499 -2.4508  1.5585 -2.2817
15835TIP3    H268921   5.280   4.495   1.556  1.3715 -0.0859  0.4199
15836TIP3   OH268922   3.639   0.745  15.490  0.1754  0.2226  0.3198
15836TIP3    H168923   3.609   0.679  15.427  0.4439  1.1142 -0.7591
15836TIP3    H268924   3.562   0.763  15.544 -0.5623  0.6997 -0.8525
15837TIP3   OH268925   2.151   6.707   4.695 -0.1737 -0.2100  0.6433
15837TIP3    H168926   2.116   6.622   4.669 -0.6898  0.4356 -0.8400
15837TIP3    H268927   2.226   6.721   4.637  0.7603 -0.2289  1.7858
15838TIP3   OH268928   5.052   5.756  16.079 -0.2647  0.3686  0.0821
15838TIP3    H168929   5.016   5.721  15.997 -0.0512  0.6603 -0.1418
15838TIP3    H268930   5.092   5.840  16.053  0.7172 -0.0236  0.2839
15839TIP3   OH268931   5.133   2.656  16.521 -0.8755  0.6217  0.1397
15839TIP3    H168932   5.072   2.646  16.448 -0.3476 -1.1308 -0.0901
15839TIP3    H268933   5.123   2.577  16.573 -0.0907  1.1219  1.1034
15840TIP3   OH268934   5.436   6.646  12.879  0.0364 -0.1124 -0.0086
15840TIP3    H168935   5.368   6.636  12.813  0.5354  0.3486 -0.5944
15840TIP3    H268936   5.496   6.572  12.864 -0.8445 -1.1246  1.1593
15841TIP3   OH268937   2.016   1.702   6.155 -0.1632  0.2945 -0.0781
15841TIP3    H168938   2.079   1.772   6.139  1.1903 -1.2547 -1.8863
15841TIP3    H268939   2.050   1.655   6.231 -0.3761  0.7947  0.3322
15842TIP3   OH268940   3.963   3.802  14.263  0.5654 -0.0511  0.0754
15842TIP3    H168941   4.033   3.762  14.315 -1.6230 -2.0917  1.6589
15842TIP3    H268942   3.893   3.817  14.326 -0.9762  0.5376 -1.7124
15843TIP3   OH268943   3.564   5.057  12.331  0.4097  0.6648 -0.1749
15843TIP3    H168944   3.631   4.995  12.362 -1.0551 -0.6401  0.5754
15843TIP3    H268945   3.545   5.029  12.242  0.0054  0.2390  0.0398
15844TIP3   OH268946   3.754   6.186  14.593  0.4118  0.1575 -0.3290
15844TIP3    H168947   3.789   6.271  14.568 -1.7619  0.6663 -1.8872
15844TIP3    H268948   3.675   6.206  14.642 -0.5002 -0.9474 -1.2986
15845TIP3   OH268949   4.574   4.639  15.892  0.0659  0.1041  0.5832
15845TIP3    H168950   4.550   4.625  15.983  3.7038 -1.0606  1.5053
15845TIP3    H268951   4.608   4.554  15.863 -0.6774  0.5440 -1.8100
15846TIP3   OH268952   6.382   0.545   2.486 -0.2233  0.4210 -0.5877
15846TIP3    H168953   6.371   0.608   2.557 -0.2565  2.1513 -2.0442
15846TIP3    H268954   6.469   0.564   2.450  0.4252 -1.4318 -0.1217
15847TIP3   OH268955   4.114   1.184   5.326 -0.2432  0.0483 -0.1499
15847TIP3    H168956   4.057   1.128   5.274 -2.5384  2.0502  0.0650
15847TIP3    H268957   4.203   1.156   5.303 -1.2472 -1.6683 -2.2199
15848TIP3   OH268958   3.448   0.431   2.730 -0.2732  0.0990  0.3294
15848TIP3    H168959   3.400   0.351   2.710 -0.4082  0.0127  0.9894
15848TIP3    H268960   3.540   0.407   2.725 -0.2529  0.4162 -1.5971
15849TIP3   OH268961   1.900   4.084   4.949 -0.0887  0.5617  0.2261
15849TIP3    H168962   1.972   4.032   4.913 -1.7656  0.8018 -4.1089
15849TIP3    H268963   1.941   4.167   4.975  1.4449  0.0548 -0.4685
15850TIP3   OH268964   0.055   2.083   1.896  0.1177 -0.3531  0.3469
15850TIP3    H168965   0.079   2.172   1.870  0.4819 -0.6491 -0.3607
15850TIP3    H268966   0.091   2.073   1.984  0.1441  0.1718  0.3984
15851TIP3   OH268967   5.057   4.438   5.481  0.0015  0.0498  0.2449
15851TIP3    H168968   5.113   4.475   5.412  0.2732  0.0735  0.4766
15851TIP3    H268969   5.020   4.515   5.525  0.3331  0.0416  0.5372
15852TIP3   OH268970   6.190   3.439   4.234 -0.1072  0.2475 -0.5491
15852TIP3    H168971   6.145   3.462   4.316 -0.6724  0.2831 -0.8634
15852TIP3    H268972   6.208   3.346   4.242 -1.9827 -0.2297 -1.2106
15853TIP3   OH268973   2.833   2.905  14.339 -0.3824  0.7947 -0.5046
15853TIP3    H168974   2.777   2.976  14.309 -1.8876 -0.3007 -0.4066
15853TIP3    H268975   2.773   2.833  14.359  1.0639 -0.4521 -0.4047
15854TIP3   OH268976   0.345   2.034   4.147 -0.2385  0.0896  0.1309
15854TIP3    H168977   0.361   1.949   4.189 -2.9301  0.5427  2.4031
15854TIP3    H268978   0.320   2.012   4.058  0.8769 -1.3239  0.1141
15855TIP3   OH268979   0.426   2.852  15.813  0.0354  0.3283  0.0228
15855TIP3    H168980   0.508   2.876  15.855 -0.2024  0.5658  0.3557
15855TIP3    H268981   0.438   2.874  15.721  1.3455 -2.1495 -0.5000
15856TIP3   OH268982   6.505   3.231   2.610 -0.0755 -0.7419 -0.1241
15856TIP3    H168983   6.467   3.173   2.544  1.4442  0.5203 -2.2390
15856TIP3    H268984   6.464   3.316   2.594  2.8590  0.4579 -1.9446
15857TIP3   OH268985   1.299   2.906  12.765 -0.3658  0.1690 -0.2929
15857TIP3    H168986   1.217   2.910  12.715  0.3826  0.7176 -1.5290
15857TIP3    H268987   1.281   2.957  12.844 -2.2269 -2.3729  1.0662
15858TIP3   OH268988   6.041   2.909  15.574  0.3855 -0.0595  0.2181
15858TIP3    H168989   5.984   2.917  15.498  0.9852 -0.2917 -0.2656
15858TIP3    H268990   6.037   2.995  15.616 -0.2866 -0.0637  0.1718
15859TIP3   OH268991   5.886   3.816  16.405  0.2261  0.4464  0.6976
15859TIP3    H168992   5.829   3.878  16.359  0.7671  1.9045  1.8873
15859TIP3    H268993   5.947   3.786  16.339  0.7329  2.1724  0.3202
15860TIP3   OH268994   0.285   2.175  16.935 -0.2286 -0.3215  0.2230
15860TIP3    H168995   0.300   2.133  16.850 -1.6755 -0.9949  0.2755
15860TIP3    H268996   0.369   2.166  16.981  0.1443 -1.2070 -0.5993
15861TIP3   OH268997   5.925   6.664  16.546  0.0220 -0.4975 -0.1537
15861TIP3    H168998   5.923   6.652  16.641 -0.9320 -1.7341 -0.2985
15861TIP3    H268999   5.845   6.712  16.526  0.7231  0.6584 -0.2414
15862TIP3   OH269000   0.736   1.920   2.218 -0.0174 -0.1803 -0.5100
15862TIP3    H169001   0.651   1.929   2.176 -1.1960 -2.1630  1.2323
15862TIP3    H269002   0.781   1.853   2.167 -0.0625 -0.1350 -0.6090
15863TIP3   OH269003   3.580   4.102  14.761  0.4726  0.1144  0.6733
15863TIP3    H169004   3.553   4.018  14.798 -1.2538  1.0549  1.7071
15863TIP3    H269005   3.639   4.139  14.826 -0.5550  0.6492  1.3387
15864TIP3   OH269006   1.208   5.250  13.145 -1.0732 -0.2939  0.3170
15864TIP3    H169007   1.272   5.186  13.113 -0.4054  0.4274  0.1617
15864TIP3    H269008   1.228   5.258  13.238 -0.3010  0.6210  0.0862
15865TIP3   OH269009   2.650   2.922  17.353 -0.6494 -0.1397 -0.8343
15865TIP3    H169010   2.728   2.959  17.311 -1.4846  1.8498 -0.7090
15865TIP3    H269011   2.579   2.980  17.327 -2.0268 -1.6189 -0.5007
15866TIP3   OH269012   5.819   3.534   1.689 -0.1910 -0.1927  0.6341
15866TIP3    H169013   5.745   3.590   1.664 -0.8465 -1.3544 -0.1175
15866TIP3    H269014   5.823   3.541   1.785 -0.8742  0.3783  0.6302
15867TIP3   OH269015   3.814   5.055   2.588  0.3364 -0.2650 -0.2676
15867TIP3    H169016   3.881   4.995   2.556  2.3129  1.0966  1.1191
15867TIP3    H269017   3.802   5.118   2.516  1.0613 -0.1218 -0.2691
15868TIP3   OH269018   3.403   4.884   2.299 -0.3811  0.3397  0.1615
15868TIP3    H169019   3.391   4.976   2.279  0.0900  0.4437  0.3507
15868TIP3    H269020   3.465   4.852   2.233 -0.3447  0.2224  0.2505
15869TIP3   OH269021   5.643   5.499  11.199  0.3607  0.4462 -0.3864
15869TIP3    H169022   5.609   5.448  11.125 -0.4928  0.0301  0.2743
15869TIP3    H269023   5.565   5.530  11.244  0.8769  0.8703  0.2303
15870TIP3   OH269024   5.383   5.870  17.415  0.1909  0.1359  0.2989
15870TIP3    H169025   5.369   5.870  17.320 -0.4983  2.6911  0.3276
15870TIP3    H269026   5.478   5.871  17.425  0.2781 -0.4594 -0.3395
15871TIP3   OH269027   1.561   1.585  14.269 -0.2196  0.1688 -0.1023
15871TIP3    H169028   1.575   1.666  14.220  0.9473 -0.6779 -1.2521
15871TIP3    H269029   1.473   1.593  14.305  0.6526  2.9226  1.7460
15872TIP3   OH269030   1.690   0.773   1.210  0.2205 -0.2315  0.1280
15872TIP3    H169031   1.720   0.853   1.167 -1.1722 -0.1641 -0.8004
15872TIP3    H269032   1.600   0.762   1.180 -0.7076 -0.4437  2.6949
15873TIP3   OH269033   0.405   5.884  14.589 -0.2204 -0.0559  0.6749
15873TIP3    H169034   0.451   5.868  14.506 -1.5725  1.5471 -0.4618
15873TIP3    H269035   0.325   5.929  14.563 -1.1802 -0.4153  2.8046
15874TIP3   OH269036   5.629   0.009  17.230 -0.3002  0.0029 -0.1363
15874TIP3    H169037   5.694  -0.058  17.252 -0.3314  0.9501  3.3531
15874TIP3    H269038   5.675   0.067  17.169  1.4237 -0.5431  0.5685
15875TIP3   OH269039   0.105   6.570   5.081  0.5792  0.2345  0.9242
15875TIP3    H169040   0.070   6.543   4.997  1.8990 -0.1515  0.4733
15875TIP3    H269041   0.063   6.654   5.099  1.9461  1.4694 -1.2293
15876TIP3   OH269042   3.762   2.147   6.007 -0.6092 -0.0447  0.1637
15876TIP3    H169043   3.746   2.057   5.981 -0.2837  0.9858 -4.3974
15876TIP3    H269044   3.855   2.161   5.991 -0.4756  0.9374  1.5749
15877TIP3   OH269045   6.037   1.289  11.597  0.0661 -0.7318  0.4034
15877TIP3    H169046   6.045   1.301  11.692 -0.8561 -0.1853  0.4255
15877TIP3    H269047   6.127   1.282  11.566  0.3778 -0.9536  1.3263
15878TIP3   OH269048   1.458   4.126  17.604 -0.0470  0.4022 -0.2482
15878TIP3    H169049   1.528   4.061  17.612  0.0578  0.4540 -0.7601
15878TIP3    H269050   1.495   4.194  17.548 -0.2270  0.8140  0.1262
15879TIP3   OH269051   2.065   5.536  13.490 -0.5491 -0.6662  0.0915
15879TIP3    H169052   2.000   5.556  13.558 -0.7349  0.4874 -0.4147
15879TIP3    H269053   2.097   5.449  13.514  0.2065  0.1342  2.3084
15880TIP3   OH269054   2.571   2.676   1.012  0.3681 -0.7931  0.7322
15880TIP3    H169055   2.487   2.722   1.003  0.7637  0.4439  2.8046
15880TIP3    H269056   2.550   2.585   0.994 -0.7273 -0.1098 -2.1137
15881TIP3   OH269057   4.529   3.953   5.799  0.1368 -0.5636 -0.3364
15881TIP3    H169058   4.554   3.986   5.885  2.3423 -0.0101 -1.1232
15881TIP3    H269059   4.438   3.926   5.809 -0.1233  0.8825  1.7508
15882TIP3   OH269060   6.551   3.348  13.930  0.1137  0.2157 -0.1945
15882TIP3    H169061   6.470   3.318  13.970  1.0367 -0.8205  1.0125
15882TIP3    H269062   6.536   3.343  13.836 -1.4162  0.6621  0.0091
15883TIP3   OH269063   1.070   2.229  13.275 -0.6452  0.4596 -0.4543
15883TIP3    H169064   1.136   2.165  13.301 -0.8207  1.0046  1.4682
15883TIP3    H269065   1.104   2.312  13.308 -1.0670  1.1687 -1.7353
15884TIP3   OH269066   3.465   1.339  16.084  0.2668 -0.0728  0.6425
15884TIP3    H169067   3.395   1.341  16.149  1.6116 -1.7416  2.2693
15884TIP3    H269068   3.545   1.337  16.137  1.4371 -1.0656 -1.0812
15885TIP3   OH269069   4.666   0.302  11.379 -0.0588 -0.7924 -0.1776
15885TIP3    H169070   4.682   0.222  11.429 -0.3414 -0.3277  0.6798
15885TIP3    H269071   4.731   0.300  11.308  1.4518 -0.6693  1.1482
15886TIP3   OH269072   2.838   1.091  11.416  0.2149  0.3162  0.0600
15886TIP3    H169073   2.813   1.146  11.342  0.6097 -0.3035 -0.5415
15886TIP3    H269074   2.910   1.037  11.383 -0.3316 -0.7504  0.5504
15887TIP3   OH269075   3.844   6.337  13.941  0.0711  0.1068 -0.4271
15887TIP3    H169076   3.864   6.379  14.024  1.4887  3.2244 -2.2000
15887TIP3    H269077   3.750   6.351  13.930 -0.1076 -0.2114  0.5368
15888TIP3   OH269078   0.027   4.259  14.312 -0.4568 -0.6848 -0.1929
15888TIP3    H169079  -0.026   4.219  14.243 -2.0729  1.7422 -0.4477
15888TIP3    H269080  -0.018   4.340  14.333  1.0207 -0.4620  2.4524
15889TIP3   OH269081   2.124   2.272  16.459 -0.1211 -0.0356  0.5929
15889TIP3    H169082   2.177   2.347  16.487  0.0362  0.1278 -0.1238
15889TIP3    H269083   2.188   2.202  16.443 -0.1370  0.0933 -0.0543
15890TIP3   OH269084   6.336   2.847  15.300 -0.0563 -0.0871  0.2716
15890TIP3    H169085   6.414   2.820  15.251  0.0141  0.7760 -0.1204
15890TIP3    H269086   6.287   2.766  15.314  0.9284 -0.6546  0.5624
15891TIP3   OH269087   1.116   3.035  16.512  1.0971  0.4419 -0.0691
15891TIP3    H169088   1.132   2.969  16.445  1.2594 -0.1731  0.5675
15891TIP3    H269089   1.024   3.059  16.502  0.5174 -1.2444  0.8917
15892TIP3   OH269090   5.747   4.436   4.838  0.5104  0.0172  0.8939
15892TIP3    H169091   5.712   4.359   4.882 -0.3716  0.3943  0.8724
15892TIP3    H269092   5.754   4.502   4.907  1.7621 -0.2343  1.0194
15893TIP3   OH269093   4.026   2.778  12.414 -0.1047  0.8654  0.4240
15893TIP3    H169094   4.092   2.794  12.481  0.2414  1.0568  0.0407
15893TIP3    H269095   3.994   2.865  12.390 -0.5189  0.7706  0.6311
15894TIP3   OH269096   4.914   4.780  17.011 -0.4956  0.0471 -0.4487
15894TIP3    H169097   4.886   4.803  16.923 -2.9844 -0.8432  0.0413
15894TIP3    H269098   4.839   4.736  17.050 -0.1548  1.9584  2.7459
15895TIP3   OH269099   5.613   4.849  11.996 -0.3648  0.1623 -0.1528
15895TIP3    H169100   5.572   4.779  11.946 -1.0136 -0.4515  1.2063
15895TIP3    H269101   5.540   4.902  12.029 -0.0288 -0.1245  1.1146
15896TIP3   OH269102   3.243   6.535  15.876  0.2135 -0.4935  0.3150
15896TIP3    H169103   3.336   6.513  15.885 -0.0567 -1.4148  1.1056
15896TIP3    H269104   3.198   6.466  15.925 -0.8795  0.0588  0.1117
15897TIP3   OH269105   0.986   0.025  14.222  0.5769  0.2270  0.4132
15897TIP3    H169106   1.047   0.093  14.195 -0.0358  0.3840 -0.6299
15897TIP3    H269107   0.952  -0.011  14.140  0.1972 -0.7021  0.9580
15898TIP3   OH269108   2.885   5.164   1.859  0.6656 -0.2686 -0.6879
15898TIP3    H169109   2.801   5.118   1.857  0.7436 -0.5059  0.5085
15898TIP3    H269110   2.924   5.146   1.774 -0.7851  0.4210 -1.5417
15899TIP3   OH269111   4.185   5.995  12.707 -0.0638  0.5032 -0.1641
15899TIP3    H169112   4.124   5.927  12.677 -0.5980  0.2491  1.3961
15899TIP3    H269113   4.265   5.980  12.656 -1.0571  0.4006 -1.7508
15900TIP3   OH269114   5.308   3.090  16.913 -0.1478 -0.1993  0.4140
15900TIP3    H169115   5.256   3.038  16.974  2.3847 -3.3643  0.2014
15900TIP3    H269116   5.250   3.107  16.839 -1.9244 -0.2812  1.7497
15901TIP3   OH269117   2.751   4.438  12.979 -0.3736 -0.4898  0.2475
15901TIP3    H169118   2.757   4.524  12.939 -1.3386  0.0646  1.2343
15901TIP3    H269119   2.811   4.441  13.054 -4.2809  1.4344  3.7733
15902TIP3   OH269120   0.076   1.889  12.300 -0.1422 -0.6540  0.1728
15902TIP3    H169121  -0.015   1.917  12.309  0.3669  0.3650  3.3034
15902TIP3    H269122   0.119   1.963  12.258 -0.2984  0.0510  1.2014
15903TIP3   OH269123   1.497   2.613   0.388 -0.2236  0.0426 -0.6310
15903TIP3    H169124   1.515   2.520   0.370 -1.0693 -0.2569  0.0047
15903TIP3    H269125   1.409   2.613   0.425  0.2038  0.9985  0.4101
15904TIP3   OH269126   1.719   5.703  15.349 -0.7811 -0.0024  0.4466
15904TIP3    H169127   1.665   5.748  15.283  0.9648 -0.8740 -1.7128
15904TIP3    H269128   1.808   5.729  15.327  0.0388 -2.1881  0.9851
15905TIP3   OH269129   5.598   3.929  16.576 -0.1459  0.0713  0.1885
15905TIP3    H169130   5.576   3.836  16.573  1.3668 -0.3483  1.1825
15905TIP3    H269131   5.690   3.933  16.549 -0.6170  1.4774 -1.3974
15906TIP3   OH269132   4.401   0.866  15.513  0.3824  0.0523 -0.4775
15906TIP3    H169133   4.428   0.823  15.594 -0.1066 -0.7609 -0.7332
15906TIP3    H269134   4.355   0.945  15.542 -1.0885 -0.9699  0.1191
15907TIP3   OH269135   3.428   6.176  12.508 -0.3536 -0.0820  0.6229
15907TIP3    H169136   3.335   6.186  12.488 -0.4292 -0.2573  0.8866
15907TIP3    H269137   3.431   6.108  12.575 -0.1121  0.5964  1.3103
15908TIP3   OH269138   5.373   2.150  11.921 -0.3315 -0.8203  0.4127
15908TIP3    H169139   5.459   2.130  11.884 -0.9857 -1.9470 -0.5647
15908TIP3    H269140   5.312   2.131  11.850 -1.3619  0.4849  0.9127
15909TIP3   OH269141   2.427   6.406  11.043  0.8544 -0.3510  0.4995
15909TIP3    H169142   2.332   6.412  11.053  0.7224  0.4483 -0.9894
15909TIP3    H269143   2.443   6.313  11.025  0.1483 -0.2192 -0.9327
15910TIP3   OH269144   6.123   0.489   1.327  0.1945 -0.3986 -0.2642
15910TIP3    H169145   6.138   0.501   1.233 -1.0832  0.3584 -0.3952
15910TIP3    H269146   6.028   0.476   1.335  0.4731 -2.2286  0.7607
15911TIP3   OH269147   5.645   5.959   1.853  0.1901 -0.6064 -0.1085
15911TIP3    H169148   5.554   5.985   1.871 -0.1685 -0.5241 -1.8856
15911TIP3    H269149   5.698   6.020   1.904 -0.7375 -0.1204  0.2926
15912TIP3   OH269150   6.258   5.679  15.783  0.5232 -0.1468  0.2766
15912TIP3    H169151   6.218   5.605  15.828  0.1022  0.1910  0.4626
15912TIP3    H269152   6.217   5.756  15.821  1.8881  0.2530  1.0233
15913TIP3   OH269153   1.935   6.443   5.641  0.2322 -0.6393  0.2198
15913TIP3    H169154   1.841   6.430   5.629 -0.1366  0.5108  1.5532
15913TIP3    H269155   1.942   6.531   5.679  2.0857  0.6691 -2.7787
15914TIP3   OH269156   0.028   5.809   3.088 -0.6787  0.5661  0.0197
15914TIP3    H169157   0.026   5.899   3.056 -1.3283  1.0799  1.3931
15914TIP3    H269158   0.021   5.755   3.010 -0.0713  1.7037 -0.8456
15915TIP3   OH269159   1.261   5.789   2.793 -0.1999 -0.5593 -0.4958
15915TIP3    H169160   1.310   5.708   2.784 -0.1973 -0.4492 -1.7314
15915TIP3    H269161   1.269   5.813   2.885  0.5695 -1.4685 -0.3169
15916TIP3   OH269162   4.513   4.296  13.739  0.0003 -0.5843 -0.3092
15916TIP3    H169163   4.449   4.360  13.708  1.3454  2.5227  2.7092
15916TIP3    H269164   4.592   4.315  13.689  0.2321 -0.3007  0.1641
15917TIP3   OH269165   0.490   2.340   2.658 -0.7016 -0.1915  0.3966
15917TIP3    H169166   0.416   2.361   2.716 -0.7770 -1.4906  0.7963
15917TIP3    H269167   0.449   2.322   2.573 -0.7438  0.1135  0.3517
15918TIP3   OH269168   2.559   5.054  16.505  0.5410 -0.7170 -0.0603
15918TIP3    H169169   2.570   5.145  16.535 -0.4461 -0.2455 -1.0337
15918TIP3    H269170   2.486   5.020  16.557 -0.1057 -0.4268 -0.7515
15919TIP3   OH269171   3.892   1.979   4.511 -0.1192 -0.1022 -0.1516
15919TIP3    H169172   3.864   2.043   4.577 -0.6881 -1.2973  0.8050
15919TIP3    H269173   3.981   2.006   4.487 -0.8028  1.7807 -0.7284
15920TIP3   OH269174   4.259   1.859   5.675  0.8206 -0.1602 -0.3317
15920TIP3    H169175   4.326   1.915   5.714 -0.1280  1.2648 -0.6793
15920TIP3    H269176   4.267   1.876   5.581  1.7064 -2.0017 -0.6356
15921TIP3   OH269177   0.001   0.024   2.890 -0.3501 -0.1047 -0.0499
15921TIP3    H169178   0.080   0.057   2.933 -0.4337 -1.0088  0.8412
15921TIP3    H269179   0.003   0.064   2.803  0.6442  0.5473  0.2472
15922TIP3   OH269180   4.707   3.093  17.511  0.1921  0.1636  0.0896
15922TIP3    H169181   4.776   3.027  17.513  1.1112  0.8994 -2.5315
15922TIP3    H269182   4.750   3.173  17.541 -0.0663  0.2087  0.3379
15923TIP3   OH269183   1.807   4.852  17.285  0.1398 -0.1087 -0.1043
15923TIP3    H169184   1.862   4.781  17.252  0.8020  0.7439 -0.8859
15923TIP3    H269185   1.838   4.930  17.239  0.3267  0.9328  1.6679
15924TIP3   OH269186   1.830   5.738  14.075  0.1795 -0.4474 -0.3521
15924TIP3    H169187   1.846   5.748  14.169  2.3166 -1.2753 -0.5775
15924TIP3    H269188   1.869   5.816  14.036  0.0083 -0.4944 -0.6171
15925TIP3   OH269189   1.329   1.880  16.236 -0.4470  0.0235 -0.5108
15925TIP3    H169190   1.245   1.855  16.196 -0.6403  0.3989 -0.3434
15925TIP3    H269191   1.356   1.958  16.187 -0.3223  0.0491 -0.4017
15926TIP3   OH269192   6.345   2.069  13.430  0.4374  0.3152  0.0297
15926TIP3    H169193   6.328   2.133  13.362  0.1019 -0.2937 -0.4755
15926TIP3    H269194   6.278   2.002  13.417  2.0134 -1.1789 -0.7617
15927TIP3   OH269195   0.759   0.283  12.076 -0.0500 -0.3694 -0.2350
15927TIP3    H169196   0.792   0.230  12.003  2.1196  0.3215  0.1526
15927TIP3    H269197   0.802   0.246  12.153 -2.6667 -1.3941  0.8519
15928TIP3   OH269198   3.217   3.659   6.351 -0.0882  0.1754 -0.6481
15928TIP3    H169199   3.279   3.728   6.327 -1.0787  1.4116  0.2640
15928TIP3    H269200   3.249   3.581   6.303  1.0718  1.2225 -1.6581
15929TIP3   OH269201   1.226   1.046   1.179  0.0316  0.6834  0.0101
15929TIP3    H169202   1.173   1.056   1.100  0.5474  1.8965 -0.2028
15929TIP3    H269203   1.281   0.970   1.161 -1.4661 -0.4928  0.1663
15930TIP3   OH269204   0.987   2.707  12.255 -0.7448 -0.4001 -0.5597
15930TIP3    H169205   0.987   2.646  12.181  2.6877 -0.1931 -0.8653
15930TIP3    H269206   1.001   2.652  12.332  0.4347 -0.1960 -0.6206
15931TIP3   OH269207   3.843   5.026  16.279  0.1419 -0.2111  0.1572
15931TIP3    H169208   3.848   5.026  16.183  0.6956  0.0169  0.1832
15931TIP3    H269209   3.873   4.938  16.304  1.3120  0.1697  0.1738
15932TIP3   OH269210   1.051   1.795   3.925  0.5362  0.0682 -0.4664
15932TIP3    H169211   0.992   1.779   3.851 -0.3542  1.0313  0.0000
15932TIP3    H269212   1.056   1.890   3.931 -0.2689  0.0393  1.3514
15933TIP3   OH269213   3.531   1.050   5.441  0.0985  0.4434 -0.7900
15933TIP3    H169214   3.485   1.098   5.511  1.9664  0.4643  0.5035
15933TIP3    H269215   3.528   1.109   5.366  1.3878  2.2059  0.4527
15934TIP3   OH269216   6.580   4.911   5.384  0.2033  0.1604  0.8930
15934TIP3    H169217   6.664   4.868   5.363  0.2138  0.4152  0.3886
15934TIP3    H269218   6.591   4.942   5.473  1.0531  1.1417  0.4666
15935TIP3   OH269219   0.875   2.416  13.040  0.1571 -0.3478 -0.3654
15935TIP3    H169220   0.912   2.360  13.107 -0.6593 -2.5206 -1.6497
15935TIP3    H269221   0.889   2.369  12.958 -1.8807  0.6197 -1.3375
15936TIP3   OH269222   4.961   3.230   2.493  0.3410 -0.4145  0.0186
15936TIP3    H169223   4.947   3.316   2.531  1.0199 -0.9101  1.4863
15936TIP3    H269224   4.885   3.179   2.520 -0.6624 -0.0014 -1.8512
15937TIP3   OH269225   0.853   6.605  13.634 -0.0156  0.1521 -0.0364
15937TIP3    H169226   0.931   6.551  13.622  0.3925  0.5544  0.7055
15937TIP3    H269227   0.883   6.681  13.683 -0.7287  0.7021 -0.4205
15938TIP3   OH269228   0.001   6.598  12.830  0.3388  0.1885  0.1490
15938TIP3    H169229   0.052   6.616  12.752 -0.5802  0.9427 -0.3004
15938TIP3    H269230   0.026   6.666  12.892  0.5443  0.0198  0.2503
15939TIP3   OH269231   0.062   5.454  10.990 -0.5812 -0.0944 -0.3676
15939TIP3    H169232   0.063   5.359  11.000 -0.5217 -0.5798 -3.8322
15939TIP3    H269233  -0.021   5.473  10.948 -1.3598  1.6946  1.7798
15940TIP3   OH269234   6.467   2.909   0.356 -0.2954 -0.2267 -0.5859
15940TIP3    H169235   6.460   2.917   0.261 -1.5762  1.1535 -0.4116
15940TIP3    H269236   6.415   2.832   0.378 -0.9816  0.1233 -0.9308
15941TIP3   OH269237   4.750   5.796   2.110  0.2663  0.4931  0.1546
15941TIP3    H169238   4.737   5.874   2.056 -0.0826 -0.7978 -1.7352
15941TIP3    H269239   4.661   5.764   2.128  0.4205  0.2554  0.5015
15942TIP3   OH269240   1.260   0.122  14.475 -0.1557  0.0646  0.2018
15942TIP3    H169241   1.263   0.082  14.562 -0.2963 -0.3834 -0.0027
15942TIP3    H269242   1.319   0.070  14.422 -0.1695  0.2612 -0.0095
15943TIP3   OH269243   6.429   1.049  15.186 -0.0285 -0.1986 -0.2049
15943TIP3    H169244   6.434   1.050  15.091  0.9096 -1.2821 -0.1891
15943TIP3    H269245   6.346   1.092  15.206  0.9567  2.4067 -1.3669
15944TIP3   OH269246   6.456   1.596   2.672 -0.1294  0.0795 -0.4262
15944TIP3    H169247   6.428   1.655   2.602 -0.7164 -0.6998 -0.8696
15944TIP3    H269248   6.377   1.545   2.693  0.8220 -1.8824 -1.4050
15945TIP3   OH269249   3.686   3.545   2.206 -0.1492 -0.1038 -0.2731
15945TIP3    H169250   3.639   3.479   2.257 -0.9329  0.0965 -0.7277
15945TIP3    H269251   3.663   3.628   2.248 -0.2162 -0.0041 -0.5066
15946TIP3   OH269252   4.107   3.623   0.317  0.3138  0.5313  0.3536
15946TIP3    H169253   4.165   3.605   0.391 -1.5506 -0.9185  1.5637
15946TIP3    H269254   4.118   3.716   0.300  1.6802  0.6466  1.6681
15947TIP3   OH269255   2.760   6.649   5.654 -0.4647  0.6810  0.4779
15947TIP3    H169256   2.842   6.697   5.666  0.5074 -1.1181  1.6938
15947TIP3    H269257   2.738   6.660   5.562  0.8578  1.6548  0.2520
15948TIP3   OH269258   1.837   4.857   3.223 -0.6764 -0.3065  0.4685
15948TIP3    H169259   1.803   4.780   3.268 -1.9144  0.1553  0.3466
15948TIP3    H269260   1.778   4.928   3.248  1.5484  1.0900  2.1678
15949TIP3   OH269261   6.557   6.495   3.618 -0.3754  0.1727 -0.0188
15949TIP3    H169262   6.542   6.485   3.524 -0.5603 -1.9983  0.1985
15949TIP3    H269263   6.539   6.409   3.655 -1.2534  1.2021  2.1671
15950TIP3   OH269264   3.367   5.706   5.016  0.3651  0.2606  0.1173
15950TIP3    H169265   3.339   5.777   4.959  0.3552  2.5156  2.6987
15950TIP3    H269266   3.288   5.679   5.061  0.4541 -1.1454 -0.5248
15951TIP3   OH269267   3.658   2.144   1.069  0.4557 -0.2253  0.3181
15951TIP3    H169268   3.682   2.193   1.147  0.5963  1.2462 -0.6173
15951TIP3    H269269   3.737   2.141   1.016  0.1003 -0.3475 -0.2174
15952TIP3   OH269270   6.101   1.576  11.811 -0.1977  0.2822 -0.4761
15952TIP3    H169271   6.170   1.526  11.768 -0.5925 -0.4731 -0.2501
15952TIP3    H269272   6.148   1.639  11.866  0.4092 -1.6745  1.4103
15953TIP3   OH269273   0.980   3.513  16.137 -0.1529  0.2888  0.5819
15953TIP3    H169274   1.020   3.528  16.222 -0.6435  1.6431  0.5998
15953TIP3    H269275   1.047   3.538  16.074 -0.3873  0.9846  0.5992
15954TIP3   OH269276   0.861   3.256   4.023 -0.4142 -0.0730 -0.1722
15954TIP3    H169277   0.812   3.235   4.103  0.6317 -1.1792  0.2160
15954TIP3    H269278   0.852   3.177   3.969  1.3851 -0.5486  0.1630
15955TIP3   OH269279   0.557   3.141   1.251  0.0607 -0.0064  0.8616
15955TIP3    H169280   0.540   3.190   1.331  0.1424 -0.2836  1.0512
15955TIP3    H269281   0.545   3.205   1.181 -0.3001  0.1685  1.0757
15956TIP3   OH269282   3.841   4.043  11.312 -0.3676  0.3863  0.2749
15956TIP3    H169283   3.863   4.106  11.381 -0.9364  2.1921 -1.1146
15956TIP3    H269284   3.914   4.049  11.250 -0.2531 -0.6080  0.3012
15957TIP3   OH269285   0.836   6.026   1.336 -0.3071 -0.0497  0.4483
15957TIP3    H169286   0.881   6.018   1.251 -2.1927 -1.7404 -0.4803
15957TIP3    H269287   0.770   6.093   1.321 -1.4301 -1.1896  0.1647
15958TIP3   OH269288   0.903   1.325  11.408 -0.6533  0.2107 -0.0500
15958TIP3    H169289   0.998   1.334  11.418 -0.6672  0.3795 -0.0534
15958TIP3    H269290   0.871   1.415  11.414 -0.9780  0.0041  1.5500
15959TIP3   OH269291   5.778   3.548  16.467  0.4000 -0.4658  0.1212
15959TIP3    H169292   5.827   3.628  16.485 -1.0822  0.6571 -0.6150
15959TIP3    H269293   5.779   3.540  16.371  0.2362 -1.1326  0.1672
15960TIP3   OH269294   4.679   5.522  14.387  0.2460 -0.0784 -0.1058
15960TIP3    H169295   4.645   5.609  14.365 -0.8584 -0.6799 -0.9034
15960TIP3    H269296   4.712   5.530  14.476  1.8356  1.6253 -0.7991
15961TIP3   OH269297   5.164   2.139   6.361  0.3890  0.5698  0.4415
15961TIP3    H169298   5.165   2.133   6.457 -1.0649  0.8744  0.4912
15961TIP3    H269299   5.144   2.050   6.332 -0.7287  0.7893  0.4916
15962TIP3   OH269300   5.500   5.715   3.664  0.1944  0.2103 -0.0321
15962TIP3    H169301   5.569   5.707   3.730 -1.8206 -2.3166  1.9825
15962TIP3    H269302   5.483   5.625   3.636 -0.0472  1.0814 -3.0055
15963TIP3   OH269303   1.791   0.471  16.833 -0.6852  0.3303  0.1313
15963TIP3    H169304   1.877   0.435  16.808 -0.5294  1.6454 -1.4052
15963TIP3    H269305   1.742   0.395  16.864 -0.2168 -1.1913 -2.5377
15964TIP3   OH269306   2.840   4.025  15.061 -0.1127  0.4224 -0.5864
15964TIP3    H169307   2.845   4.010  14.966  2.3656 -2.1583 -0.1870
15964TIP3    H269308   2.894   4.103  15.075 -0.3416  0.7172 -1.2869
15965TIP3   OH269309   2.630   0.169   6.760 -0.6502  0.0907  0.3732
15965TIP3    H169310   2.714   0.132   6.732  0.5240  1.3302  2.0009
15965TIP3    H269311   2.586   0.195   6.680  0.1520 -1.3029 -0.5643
15966TIP3   OH269312   3.574   4.952  12.059  0.0731 -0.0906 -0.0561
15966TIP3    H169313   3.513   4.878  12.065  1.0645 -1.1588 -2.0237
15966TIP3    H269314   3.531   5.014  12.000 -0.6032  0.8021  1.3212
15967TIP3   OH269315   4.978   4.486  14.812  0.3925  0.3254  0.1235
15967TIP3    H169316   4.909   4.421  14.804  1.8104 -1.6445  2.4159
15967TIP3    H269317   4.991   4.495  14.907  2.9467  0.9150 -0.2054
15968TIP3   OH269318   4.287   6.124  17.544  0.9079  0.2670 -0.1287
15968TIP3    H169319   4.242   6.200  17.506  2.7553  2.1533  1.2732
15968TIP3    H269320   4.379   6.137  17.523  1.1893 -2.1680 -0.7118
15969TIP3   OH269321   5.785   2.000  12.777  0.1553 -0.4315  0.2686
15969TIP3    H169322   5.774   1.934  12.845 -0.1389 -0.4617  0.1935
15969TIP3    H269323   5.826   2.074  12.822  0.3860 -0.6256  0.3763
15970TIP3   OH269324   1.792   4.164  15.351 -0.7192  0.1161 -0.3034
15970TIP3    H169325   1.713   4.149  15.402 -0.2092 -0.3174  0.3737
15970TIP3    H269326   1.803   4.083  15.301 -0.8150  0.2603 -0.5616
15971TIP3   OH269327   0.077   5.363  12.588  0.3766 -1.1277  0.0158
15971TIP3    H169328   0.135   5.308  12.535  3.4299  1.0963  0.7469
15971TIP3    H269329   0.079   5.322  12.675  3.0387  0.1858  0.6898
15972TIP3   OH269330   4.689   1.416  13.786 -0.7403 -0.1459 -0.4771
15972TIP3    H169331   4.684   1.463  13.869  2.4949  0.4842 -0.4921
15972TIP3    H269332   4.664   1.326  13.808  0.7920 -0.1848  1.4326
15973TIP3   OH269333   5.277   6.442   1.690 -0.2465 -0.1964 -0.7489
15973TIP3    H169334   5.298   6.405   1.776 -1.9229 -0.6195 -0.4820
15973TIP3    H269335   5.298   6.535   1.698 -2.2412  0.1924  0.8390
15974TIP3   OH269336   3.992   4.344   1.745 -0.2885 -0.1085 -0.0588
15974TIP3    H169337   3.900   4.322   1.736 -0.6692  0.2418  2.3450
15974TIP3    H269338   4.000   4.380   1.833  2.0073  0.6342 -0.4977
15975TIP3   OH269339   2.689   1.836  11.347  0.1195  0.7749 -0.6962
15975TIP3    H169340   2.727   1.910  11.395 -0.9529  0.6202  0.4674
15975TIP3    H269341   2.603   1.868  11.319 -1.3993 -0.6699  1.8653
15976TIP3   OH269342   5.644   0.490  12.276  0.4857 -0.1042 -0.2395
15976TIP3    H169343   5.553   0.473  12.299  0.4880  1.4010  1.0167
15976TIP3    H269344   5.642   0.510  12.182 -0.7022  1.2529  0.0461
15977TIP3   OH269345   3.174   0.818   6.024  0.1369 -0.0307 -0.0432
15977TIP3    H169346   3.095   0.868   6.044  0.5802  0.7424 -0.1690
15977TIP3    H269347   3.212   0.798   6.109 -2.1174 -3.7249  0.3048
15978TIP3   OH269348   2.645   6.676  16.885  0.3773 -0.2770  0.1338
15978TIP3    H169349   2.716   6.681  16.821  0.2630  0.2146  0.0455
15978TIP3    H269350   2.633   6.766  16.915 -1.4357 -0.0049 -1.1869
15979TIP3   OH269351   1.373   2.851  14.117 -0.4304 -0.0169 -0.3612
15979TIP3    H169352   1.376   2.815  14.206  0.7470  1.1424  0.0902
15979TIP3    H269353   1.370   2.774  14.061 -0.9394 -0.7766  0.6636
15980TIP3   OH269354   4.035   6.467  15.741  0.2883 -0.2847  0.2050
15980TIP3    H169355   4.091   6.414  15.686 -0.4274 -2.7705  1.6994
15980TIP3    H269356   4.009   6.409  15.813 -0.0054  2.3108  2.3746
15981TIP3   OH269357   0.873   0.624   5.536 -0.1253  0.3066  0.5840
15981TIP3    H169358   0.947   0.609   5.478  0.3636  0.6499  1.1104
15981TIP3    H269359   0.825   0.541   5.536 -0.2128  0.3540 -0.4153
15982TIP3   OH269360   2.335   1.431  11.823 -0.1002 -0.2021 -0.1207
15982TIP3    H169361   2.308   1.496  11.758  0.9443 -0.4189 -0.7884
15982TIP3    H269362   2.408   1.473  11.869 -0.9344  0.0186  1.0510
15983TIP3   OH269363   1.099   4.732  15.447 -0.1793 -0.1508  0.4292
15983TIP3    H169364   1.189   4.762  15.438 -0.3646  0.3730  0.3072
15983TIP3    H269365   1.069   4.716  15.358 -1.1480  2.4979  0.1851
15984TIP3   OH269366   2.563   5.646  14.973  0.1010 -0.0411  0.2646
15984TIP3    H169367   2.493   5.644  15.039 -1.6309  1.2963 -1.4299
15984TIP3    H269368   2.582   5.554  14.956 -3.6247 -0.6790 -1.5035
15985TIP3   OH269369   1.826   5.317   2.014  1.0472  0.3923 -0.2969
15985TIP3    H169370   1.748   5.274   2.047  1.5681  0.1513  0.6592
15985TIP3    H269371   1.797   5.361   1.934 -0.3583  1.3137  0.6694
15986TIP3   OH269372   3.039   1.176   4.039 -0.2699 -0.2864 -0.2578
15986TIP3    H169373   3.133   1.162   4.028 -0.3463 -0.0804 -1.3181
15986TIP3    H269374   3.010   1.209   3.953 -1.1080  0.7485  0.3970
15987TIP3   OH269375   1.565   5.608   2.957 -0.4217 -0.5829  0.2287
15987TIP3    H169376   1.617   5.619   3.037  0.5540  0.1603 -0.4800
15987TIP3    H269377   1.630   5.590   2.889 -1.0241  0.9195 -0.7942
15988TIP3   OH269378   1.149   5.115  17.005  0.1889 -0.3504  0.1928
15988TIP3    H169379   1.135   5.043  17.066 -0.0629  0.3168  0.9475
15988TIP3    H269380   1.224   5.163  17.042  1.6642 -1.3235 -1.3690
15989TIP3   OH269381   0.345   0.322   6.333  0.0879 -0.1787 -0.1826
15989TIP3    H169382   0.391   0.318   6.249 -0.7403 -2.0377 -0.6111
15989TIP3    H269383   0.261   0.362   6.312  0.4526  0.7348  0.0695
15990TIP3   OH269384   3.674   0.832   1.259  0.0692 -0.2992 -0.4632
15990TIP3    H169385   3.689   0.879   1.341  0.3698 -0.7804 -0.2376
15990TIP3    H269386   3.582   0.807   1.262 -0.8932  2.6040 -1.8181
15991TIP3   OH269387   1.394   5.550   2.755 -0.4536 -0.5991 -0.4830
15991TIP3    H169388   1.382   5.456   2.762  1.0607 -0.7640  0.3274
15991TIP3    H269389   1.461   5.571   2.820 -1.3247  1.1622 -0.0758
15992TIP3   OH269390   5.886   0.395   1.362 -0.1974 -0.1256 -0.2097
15992TIP3    H169391   5.797   0.385   1.396 -0.4395 -0.3014 -0.8738
15992TIP3    H269392   5.874   0.413   1.268  0.3547  2.4042  0.1298
15993TIP3   OH269393   6.360   1.697  13.589  0.4854  0.1588  0.1557
15993TIP3    H169394   6.331   1.619  13.541 -1.6928  0.7149  0.4562
15993TIP3    H269395   6.331   1.683  13.679  0.2630  1.1799  0.2662
15994TIP3   OH269396   3.239   5.097  16.709 -0.3876 -0.2247  0.4210
15994TIP3    H169397   3.191   5.070  16.787 -2.1288 -0.5392 -0.7075
15994TIP3    H269398   3.175   5.147  16.657 -0.4428 -2.9413 -2.4382
15995TIP3   OH269399   0.236   4.238   2.720  0.0083  0.2928 -0.6543
15995TIP3    H169400   0.325   4.274   2.709 -0.1869  0.7491 -0.7815
15995TIP3    H269401   0.203   4.232   2.630 -0.0780  0.0955 -0.6077
15996TIP3   OH269402   3.046   1.768   3.881  0.1160  0.3231 -0.1388
15996TIP3    H169403   3.045   1.679   3.845 -0.3026 -0.3437  1.4748
15996TIP3    H269404   2.954   1.789   3.894  0.2807  0.3319  1.0541
15997TIP3   OH269405   3.492   6.201   6.019  0.1181 -0.4347  0.0330
15997TIP3    H169406   3.444   6.227   6.098  1.8514 -0.4060  1.1116
15997TIP3    H269407   3.501   6.283   5.969 -1.8001 -0.6190 -0.7168
15998TIP3   OH269408   4.332   3.322  15.367  0.0662  0.0668 -0.5876
15998TIP3    H169409   4.269   3.265  15.324  0.3776  0.5968 -1.7911
15998TIP3    H269410   4.297   3.335  15.455  0.4713 -2.7500  0.0978
15999TIP3   OH269411   1.959   3.247   2.336  0.0009 -0.0344  0.5273
15999TIP3    H169412   1.869   3.277   2.323 -0.0413 -0.9827 -2.1171
15999TIP3    H269413   1.967   3.171   2.278  3.3903  1.9882 -2.0289
16000TIP3   OH269414   2.971   1.964   2.217 -0.2132 -0.1226  0.0138
16000TIP3    H169415   2.947   1.994   2.130  0.2575  0.8126  0.1984
16000TIP3    H269416   3.013   2.039   2.258 -2.2234  0.1223  1.7897
16001TIP3   OH269417   6.280   1.788  14.371 -0.0400  0.4570  0.1730
16001TIP3    H169418   6.297   1.877  14.339  1.1745  0.0848 -0.2511
16001TIP3    H269419   6.356   1.737  14.343 -0.8579 -0.7889  0.1700
16002TIP3   OH269420   4.718   1.668   1.075  0.2606  0.2136  0.2856
16002TIP3    H169421   4.712   1.697   1.165 -1.4349 -1.5192  0.8061
16002TIP3    H269422   4.688   1.743   1.023  0.2386  0.8592  1.2118
16003TIP3   OH269423   2.627   4.964   0.876 -0.1638 -0.2145  0.0317
16003TIP3    H169424   2.682   4.924   0.808  1.8057  0.5768  1.0814
16003TIP3    H269425   2.690   5.003   0.937 -1.9213  0.4861  1.4573
16004TIP3   OH269426   0.880   2.029   1.608  0.3779 -0.0286 -0.4924
16004TIP3    H169427   0.817   2.063   1.672  0.5174 -2.0451  0.7820
16004TIP3    H269428   0.963   2.071   1.630  0.3651 -0.5103  0.5072
16005TIP3   OH269429   4.861   4.165  11.540 -0.3228  0.1451 -0.1594
16005TIP3    H169430   4.799   4.117  11.595  0.5984 -1.1653 -0.2347
16005TIP3    H269431   4.899   4.231  11.599 -1.4599  0.6965 -0.0097
16006TIP3   OH269432   6.494   5.501  13.894  0.0207 -0.2296 -0.0530
16006TIP3    H169433   6.439   5.474  13.821  0.4509 -2.0226  0.2494
16006TIP3    H269434   6.437   5.493  13.971  0.2827 -0.7716  0.0931
16007TIP3   OH269435   5.750   5.776  15.340 -0.3830 -0.3683 -0.1870
16007TIP3    H169436   5.827   5.720  15.352 -0.6669 -0.5989  0.6425
16007TIP3    H269437   5.776   5.859  15.379 -0.3810 -0.2935 -0.3494
16008TIP3   OH269438   2.003   2.308   4.608 -0.1385  0.2247  0.7141
16008TIP3    H169439   1.921   2.357   4.600 -0.3910 -0.4551 -1.0675
16008TIP3    H269440   2.072   2.374   4.597 -0.4163  0.7517  1.9573
16009TIP3   OH269441   1.425   2.679  13.151 -0.0865  0.2330  0.1359
16009TIP3    H169442   1.427   2.775  13.156  0.8843  0.2716 -0.7697
16009TIP3    H269443   1.502   2.656  13.099  0.2094 -1.0939  1.1106
16010TIP3   OH269444   0.739   5.349  10.897 -0.1087 -0.3617 -0.3378
16010TIP3    H169445   0.688   5.420  10.860 -2.0191 -0.5392  1.7501
16010TIP3    H269446   0.818   5.391  10.931 -0.7170  0.6037 -0.0842
16011TIP3   OH269447   0.783   0.972   1.235 -0.3274 -0.0392 -0.1271
16011TIP3    H169448   0.781   0.878   1.215 -0.7571 -0.0952  0.1676
16011TIP3    H269449   0.691   0.997   1.244 -0.1931  0.2672  0.4415
16012TIP3   OH269450   3.602   2.048  14.889  0.0462 -0.0886  0.3573
16012TIP3    H169451   3.635   2.048  14.799 -0.6195 -0.0584  0.1038
16012TIP3    H269452   3.526   2.106  14.886  0.3393  0.3348  1.0625
16013TIP3   OH269453   3.028   2.455   1.641  0.5075 -0.0169 -0.5767
16013TIP3    H169454   3.101   2.393   1.647  1.9361  1.6464 -0.0832
16013TIP3    H269455   3.013   2.483   1.731  1.7086  2.3374 -1.0401
16014TIP3   OH269456   5.475   6.197   5.033 -0.0787  0.0485 -0.3942
16014TIP3    H169457   5.439   6.201   5.122  0.8664  1.7948 -0.0429
16014TIP3    H269458   5.403   6.226   4.977 -0.8450 -1.5514 -0.2988
16015TIP3   OH269459   2.598   0.465   2.649  0.3268  0.2488 -0.2701
16015TIP3    H169460   2.517   0.491   2.693 -0.0533 -2.6423  0.9687
16015TIP3    H269461   2.576   0.465   2.556  0.4944  4.3412 -0.4935
16016TIP3   OH269462   1.416   0.133  16.849  0.4615 -0.5125 -0.0274
16016TIP3    H169463   1.450   0.104  16.765  1.9099  2.6167 -0.6819
16016TIP3    H269464   1.494   0.164  16.896 -0.7488  1.1817  0.9546
16017TIP3   OH269465   1.251   3.112   2.187  0.3214  0.1707 -0.0733
16017TIP3    H169466   1.198   3.074   2.256 -0.7795  1.9149  0.0972
16017TIP3    H269467   1.273   3.038   2.130  0.0658 -1.0441  1.3609
16018TIP3   OH269468   5.578   6.490   6.029  0.2988 -0.6049 -0.1499
16018TIP3    H169469   5.576   6.558   6.096  0.1222 -0.2891 -0.4739
16018TIP3    H269470   5.578   6.408   6.078 -0.3799 -0.3846  0.2291
16019TIP3   OH269471   5.941   2.119   2.563  0.3356 -0.6436 -0.4335
16019TIP3    H169472   5.881   2.156   2.499  1.4045 -1.2461 -1.8304
16019TIP3    H269473   5.912   2.028   2.574  0.2480 -0.5852 -0.1789
16020TIP3   OH269474   2.650   6.001  17.201 -0.3200  0.0188  0.0466
16020TIP3    H169475   2.660   6.087  17.161 -0.1279 -0.1720 -0.3272
16020TIP3    H269476   2.671   6.014  17.293  1.2737  0.0683 -0.2967
16021TIP3   OH269477   1.371   4.256   6.817  0.1892  0.2037 -0.1879
16021TIP3    H169478   1.419   4.193   6.870 -1.0920 -0.7734 -0.1457
16021TIP3    H269479   1.285   4.262   6.859 -0.3118  0.6225 -1.2426
16022TIP3   OH269480   2.477   3.051  15.323  0.0583  0.7393 -0.8889
16022TIP3    H169481   2.390   3.011  15.331  0.5997 -0.3161 -0.0619
16022TIP3    H269482   2.487   3.103  15.403  1.0340 -0.8830  0.0797
16023TIP3   OH269483   4.965   4.698   3.170  0.1678  0.4422 -0.0910
16023TIP3    H169484   4.938   4.631   3.107  1.0361  0.7960 -0.8683
16023TIP3    H269485   4.908   4.684   3.246 -0.2114 -0.6493 -0.5521
16024TIP3   OH269486   4.814   2.336   4.426 -0.4625 -0.2503 -0.1152
16024TIP3    H169487   4.794   2.245   4.404 -1.9068  0.3930 -1.6648
16024TIP3    H269488   4.786   2.346   4.517 -3.1675 -0.5970 -0.8475
16025TIP3   OH269489   0.295   1.553  11.984 -0.2447  0.6639 -0.2217
16025TIP3    H169490   0.383   1.517  11.998 -0.3880  0.9525  1.6395
16025TIP3    H269491   0.275   1.600  12.065 -2.3666  0.0948 -0.3663
16026TIP3   OH269492   4.266   2.720  15.515 -0.4082  0.4169  0.2555
16026TIP3    H169493   4.259   2.631  15.482 -0.7679 -0.1852  1.8381
16026TIP3    H269494   4.184   2.763  15.489 -0.4670  0.1205 -0.0474
16027TIP3   OH269495   4.109   1.550  14.678  0.4093  0.2675  0.3494
16027TIP3    H169496   4.046   1.483  14.701 -0.6792  0.7197 -1.1415
16027TIP3    H269497   4.172   1.506  14.621 -0.5855  0.5815 -1.0354
16028TIP3   OH269498   2.349   3.463   3.908 -0.3320 -0.3414 -0.6427
16028TIP3    H169499   2.404   3.479   3.985  0.1940 -1.9315 -0.6435
16028TIP3    H269500   2.303   3.546   3.893  1.7531  0.9192 -0.3934
16029TIP3   OH269501   5.542   3.756  14.644 -0.0100  0.4249  0.1877
16029TIP3    H169502   5.565   3.799  14.561 -0.5053  0.7973  0.2348
16029TIP3    H269503   5.593   3.804  14.710  0.3889  0.1248  0.1038
16030TIP3   OH269504   6.147   3.611  15.620 -0.7030 -0.4431  0.1982
16030TIP3    H169505   6.066   3.652  15.648  0.0255  1.2522 -0.0529
16030TIP3    H269506   6.203   3.611  15.698  0.2064  1.4341 -0.3993
16031TIP3   OH269507   6.418   3.742   5.101 -0.3054 -0.3758 -0.2608
16031TIP3    H169508   6.460   3.675   5.048  2.2427  1.7525 -1.1403
16031TIP3    H269509   6.480   3.759   5.172  0.4710  2.8432 -1.5656
16032TIP3   OH269510   5.711   5.586   5.618  0.1867 -0.3703  0.4265
16032TIP3    H169511   5.635   5.641   5.639 -0.7848 -1.4224 -0.1961
16032TIP3    H269512   5.739   5.552   5.703 -2.1714 -2.6167  0.4301
16033TIP3   OH269513   5.980   2.391  17.056 -0.2568 -0.4208  0.1403
16033TIP3    H169514   5.994   2.297  17.050  2.2296 -0.1720  0.6963
16033TIP3    H269515   6.037   2.428  16.988 -0.2196  0.7224  0.7640
16034TIP3   OH269516   4.841   4.695  12.567  0.5064 -0.5847 -0.1005
16034TIP3    H169517   4.893   4.688  12.486 -3.0473 -1.0180 -2.5620
16034TIP3    H269518   4.818   4.787  12.572  0.8789 -0.5228  0.5840
16035TIP3   OH269519   1.660   6.646  16.295 -0.4882 -0.0698 -0.3558
16035TIP3    H169520   1.723   6.610  16.232  1.0232 -0.2717  1.1991
16035TIP3    H269521   1.640   6.733  16.261  0.9055  0.1326 -0.7507
16036TIP3   OH269522   6.347   6.277   0.189 -0.1524 -0.1935  0.3910
16036TIP3    H169523   6.376   6.224   0.114 -0.8261 -0.4491  0.2985
16036TIP3    H269524   6.390   6.361   0.176 -0.2035 -0.2559 -0.2564
16037TIP3   OH269525   3.056   5.119  11.310  1.0140  0.4021 -0.2640
16037TIP3    H169526   3.022   5.195  11.358  0.0220  0.9281 -1.6901
16037TIP3    H269527   3.103   5.158  11.236 -0.2883 -0.3392 -1.5303
16038TIP3   OH269528   5.766   1.089  11.144  0.1996 -0.6322  0.2616
16038TIP3    H169529   5.851   1.131  11.149 -0.1458  0.1693 -0.3344
16038TIP3    H269530   5.711   1.152  11.097 -1.1924 -0.3851  2.1361
16039TIP3   OH269531   4.470   2.955  11.832 -0.0608  0.4566 -0.3249
16039TIP3    H169532   4.383   2.926  11.861  0.3722  0.0257  0.5895
16039TIP3    H269533   4.500   2.886  11.773  0.4236 -0.3489  0.8265
16040TIP3   OH269534   0.000   4.946   5.816  0.2398 -0.3964 -0.0045
16040TIP3    H169535   0.014   5.040   5.803  0.5320 -0.3667  0.4948
16040TIP3    H269536   0.053   4.904   5.748 -0.3920 -0.1900 -0.6307
16041TIP3   OH269537   4.065   1.189  16.923  0.0455  0.0259 -0.3233
16041TIP3    H169538   3.996   1.170  16.986  0.1601 -1.6148 -0.6350
16041TIP3    H269539   4.118   1.257  16.965  0.3010 -1.2342  1.5279
16042TIP3   OH269540   3.625   2.786   5.774 -0.4186 -0.2815 -0.4664
16042TIP3    H169541   3.692   2.804   5.839 -1.0841  0.7728 -0.0442
16042TIP3    H269542   3.672   2.780   5.691  0.2219  0.2133 -0.1447
16043TIP3   OH269543   5.726   1.869   5.800 -0.1483  0.3565 -0.4436
16043TIP3    H169544   5.727   1.963   5.783 -1.5583  0.5047  0.1749
16043TIP3    H269545   5.760   1.860   5.890  0.5527  0.2006 -0.7124
16044TIP3   OH269546   5.456   1.124   6.399 -0.2436 -0.2104  0.4940
16044TIP3    H169547   5.462   1.184   6.473  2.6978  0.2142  0.0478
16044TIP3    H269548   5.515   1.052   6.422  1.0622  0.1251 -1.5363
16045TIP3   OH269549   1.725   2.758   6.036 -0.4215  0.0506 -0.1214
16045TIP3    H169550   1.646   2.719   6.074 -0.1366 -0.1028  0.3203
16045TIP3    H269551   1.738   2.839   6.085  2.1597 -1.9848  2.9286
16046TIP3   OH269552   3.088   0.101  15.426 -0.1770 -0.0693  0.0208
16046TIP3    H169553   3.154   0.147  15.375  0.8288  1.0602  2.2101
16046TIP3    H269554   3.135   0.028  15.466 -0.6369 -0.1970  0.3466
16047TIP3   OH269555   0.175   0.623   2.939 -0.4974  0.0531  0.1023
16047TIP3    H169556   0.200   0.714   2.955  1.9391 -0.6476  0.6787
16047TIP3    H269557   0.215   0.602   2.855  0.4811 -0.9776  0.7998
16048TIP3   OH269558   1.340   3.161   1.526  0.2807  0.0101 -0.5557
16048TIP3    H169559   1.280   3.118   1.588 -1.6293  1.3528 -1.3569
16048TIP3    H269560   1.393   3.219   1.581  0.5892 -0.9141  0.1403
16049TIP3   OH269561   6.199   2.805  13.252  0.4015 -0.6663 -0.5712
16049TIP3    H169562   6.146   2.771  13.180  0.3680  0.5351 -1.1338
16049TIP3    H269563   6.146   2.789  13.330 -0.4788 -0.1434 -1.0448
16050TIP3   OH269564   2.724   6.630   6.085  0.0157  0.0730  0.1527
16050TIP3    H169565   2.774   6.614   6.166  2.1786  1.8754 -0.7267
16050TIP3    H269566   2.676   6.711   6.102 -0.1129  0.0525 -0.1148
16051TIP3   OH269567   0.772   1.854   2.539 -0.5834  0.1136 -0.4997
16051TIP3    H169568   0.742   1.764   2.525  1.1793 -0.5804 -0.0362
16051TIP3    H269569   0.824   1.874   2.462 -0.1106  0.3522 -0.1237
16052TIP3   OH269570   1.929   2.389   3.854  0.4067 -0.8783 -1.1244
16052TIP3    H169571   1.895   2.350   3.934 -1.7875  2.6956 -0.0855
16052TIP3    H269572   1.874   2.354   3.785 -0.8581 -0.4606 -0.3611
16053TIP3   OH269573   5.003   0.752   2.959 -0.4411  0.3959  0.0363
16053TIP3    H169574   4.980   0.700   2.882 -0.3428 -0.1240  0.3482
16053TIP3    H269575   5.065   0.817   2.927 -1.6469  1.2505 -0.6378
16054TIP3   OH269576   0.391   5.614   3.021 -0.2698  0.0145  0.5006
16054TIP3    H169577   0.357   5.697   3.055  0.6474 -0.0015  1.5566
16054TIP3    H269578   0.329   5.548   3.052  0.9923 -0.1035  3.0482
16055TIP3   OH269579   0.335   2.441   4.708  0.2678 -0.4893  0.4859
16055TIP3    H169580   0.398   2.369   4.704  1.3971  0.4473  1.0287
16055TIP3    H269581   0.309   2.445   4.800  0.7115  0.2057  0.5889
16056TIP3   OH269582   2.426   0.124   3.898 -0.2313  0.1205 -0.1296
16056TIP3    H169583   2.408   0.168   3.981  0.4193  0.5161 -0.1891
16056TIP3    H269584   2.382   0.040   3.906  0.6819 -0.2722  1.0394
16057TIP3   OH269585   5.089   5.745   4.128 -0.5614 -0.3108  0.4935
16057TIP3    H169586   5.075   5.820   4.069  1.7803  0.4616  0.8214
16057TIP3    H269587   5.018   5.685   4.107 -2.2153  1.7518 -0.1645
16058TIP3   OH269588   4.850   1.771  12.756 -0.1741  0.1478  0.0453
16058TIP3    H169589   4.876   1.813  12.674 -0.8466  1.1624  0.3264
16058TIP3    H269590   4.814   1.687  12.729  2.1606 -0.7746 -0.4432
16059TIP3   OH269591   3.047   2.487   4.421 -0.0874  0.9269 -0.2988
16059TIP3    H169592   3.019   2.413   4.476  0.2604 -0.7895 -2.3086
16059TIP3    H269593   2.977   2.496   4.357  0.1089  2.0690 -0.3661
16060TIP3   OH269594   2.237   6.219  15.647 -0.3472  0.7358  0.2299
16060TIP3    H169595   2.289   6.299  15.648  0.5365  0.1645  0.9035
16060TIP3    H269596   2.291   6.154  15.690 -0.7022 -0.4658 -1.0531
16061TIP3   OH269597   2.378   5.848   4.897  0.0350 -0.3617 -0.0486
16061TIP3    H169598   2.425   5.765   4.887 -0.2600 -0.7654  1.6285
16061TIP3    H269599   2.406   5.881   4.982 -2.5476 -0.5345  0.9653
16062TIP3   OH269600   0.024   4.669   6.414 -0.4820 -0.2039  0.1225
16062TIP3    H169601   0.070   4.608   6.471  0.1944 -0.3667 -0.5790
16062TIP3    H269602   0.025   4.752   6.462 -0.5543 -0.5091  0.6586
16063TIP3   OH269603   5.131   4.627  17.333  0.7486 -0.1096 -0.3422
16063TIP3    H169604   5.123   4.706  17.280  0.6377  0.5273  0.6019
16063TIP3    H269605   5.128   4.555  17.269  1.3971  0.6569 -1.2658
16064TIP3   OH269606   0.393   4.499   0.681  0.5585  0.2524  0.5654
16064TIP3    H169607   0.473   4.548   0.663  0.0836  0.3471 -1.4395
16064TIP3    H269608   0.397   4.423   0.623 -0.1522 -0.5123  1.4794
16065TIP3   OH269609   3.621   4.771  15.731  0.1667 -0.2907  0.2243
16065TIP3    H169610   3.589   4.806  15.648 -0.8170  1.4273  1.2629
16065TIP3    H269611   3.543   4.734  15.773 -0.3574  2.6391  2.1515
16066TIP3   OH269612   0.393   5.424  17.128  0.0361 -0.3224 -0.0666
16066TIP3    H169613   0.403   5.448  17.036 -0.5976  0.8887  0.1627
16066TIP3    H269614   0.301   5.399  17.136 -0.1181  0.3595  0.3948
16067TIP3   OH269615   4.172   3.770  16.702 -0.7069  0.2731  0.0041
16067TIP3    H169616   4.135   3.827  16.768  0.1080 -0.0517  0.7547
16067TIP3    H269617   4.213   3.829  16.639  0.1868  0.5353  0.8084
16068TIP3   OH269618   5.017   0.747   2.576  0.2671  0.4376  0.6167
16068TIP3    H169619   4.976   0.672   2.620 -0.5651  1.1059  1.0073
16068TIP3    H269620   4.978   0.747   2.489  0.8462 -0.0281  0.3458
16069TIP3   OH269621   5.323   4.084  15.105 -0.0085 -0.3777  0.3239
16069TIP3    H169622   5.309   4.178  15.112  1.3200 -0.1778  0.6519
16069TIP3    H269623   5.328   4.067  15.010  2.8659  0.4480  0.2361
16070TIP3   OH269624   3.271   3.606  16.701  0.1891  0.0020  0.6593
16070TIP3    H169625   3.339   3.588  16.765  0.0044  0.1884  0.9102
16070TIP3    H269626   3.252   3.521  16.660  0.9419  0.0405  0.2124
16071TIP3   OH269627   1.553   5.272   0.952 -0.4990  0.1963 -0.1409
16071TIP3    H169628   1.517   5.194   0.910 -0.2955  0.6894 -1.2606
16071TIP3    H269629   1.613   5.237   1.019 -0.4416 -0.6007 -0.5915
16072TIP3   OH269630   6.059   2.654  12.460 -0.1104 -0.6329 -0.2709
16072TIP3    H169631   6.077   2.563  12.437  0.6400 -0.8401  1.0468
16072TIP3    H269632   5.964   2.663  12.449 -0.1430 -1.4604 -0.7511
16073TIP3   OH269633   5.402   1.270  15.967 -0.0547 -0.3708 -0.2965
16073TIP3    H169634   5.338   1.260  16.037 -0.7688 -1.6178 -1.0988
16073TIP3    H269635   5.475   1.214  15.994  0.3714  0.4109  0.2165
16074TIP3   OH269636   1.988   3.630   4.895 -0.1309  0.8419 -0.1369
16074TIP3    H169637   2.081   3.635   4.916 -0.2049  2.1005 -0.0633
16074TIP3    H269638   1.984   3.639   4.800 -0.2852  2.7588  0.0231
16075TIP3   OH269639   5.601   4.032   0.945 -0.7389  0.6306 -0.2589
16075TIP3    H169640   5.606   3.992   1.031  2.4210  0.4922 -0.3696
16075TIP3    H269641   5.570   3.963   0.887  1.0845 -0.6004  0.1587
16076TIP3   OH269642   5.434   0.601   0.408 -0.1465 -0.1312  0.0345
16076TIP3    H169643   5.382   0.648   0.473 -0.2441 -0.2653  0.0544
16076TIP3    H269644   5.379   0.600   0.330  0.6129  1.4297 -0.5628
16077TIP3   OH269645   5.845   3.853  17.263  0.6133  0.0800  0.1615
16077TIP3    H169646   5.882   3.894  17.341  1.4023 -0.6655  0.1912
16077TIP3    H269647   5.794   3.779  17.298 -1.0229  1.1405  0.1291
16078TIP3   OH269648   4.431   0.606   3.277  0.3832 -0.0088 -0.0943
16078TIP3    H169649   4.444   0.518   3.243  0.8540 -0.0574  0.1919
16078TIP3    H269650   4.358   0.598   3.338  0.7764 -0.3201  0.3459
16079TIP3   OH269651   0.520   0.866   4.774 -0.3435 -0.0264  0.3145
16079TIP3    H169652   0.608   0.888   4.805  0.1598  0.0074 -1.0951
16079TIP3    H269653   0.510   0.912   4.691 -2.4459  1.5518  1.3268
16080TIP3   OH269654   5.304   3.181   6.822  0.4125 -0.5304  0.2699
16080TIP3    H169655   5.356   3.229   6.758 -0.5816  0.7544  0.3738
16080TIP3    H269656   5.223   3.159   6.776 -0.0180 -0.2133  0.8522
16081TIP3   OH269657   1.672   4.304   4.904  0.3103 -0.6230 -0.4066
16081TIP3    H169658   1.661   4.294   4.998 -0.6882 -1.5496 -0.6071
16081TIP3    H269659   1.718   4.387   4.894 -1.1748  0.3992  0.8146
16082TIP3   OH269660   0.254   3.027  13.792 -0.8921 -0.1416 -0.5832
16082TIP3    H169661   0.312   2.954  13.770  1.8823  2.0837 -1.2726
16082TIP3    H269662   0.184   3.023  13.726 -1.5009 -2.7438  0.0962
16083TIP3   OH269663   0.809   0.124  17.596  0.7578 -0.1208 -0.6451
16083TIP3    H169664   0.859   0.158  17.671  1.5546 -0.9636 -0.7682
16083TIP3    H269665   0.740   0.188  17.582  1.0167  0.4065  0.3764
16084TIP3   OH269666   0.400   1.999  13.899 -0.2007  0.4275  0.6048
16084TIP3    H169667   0.325   2.034  13.851 -0.7985 -1.0812  0.3831
16084TIP3    H269668   0.364   1.977  13.985  0.1285  0.2409  0.6957
16085TIP3   OH269669   5.910   2.560   3.861  0.0710  1.1590  0.1505
16085TIP3    H169670   5.816   2.557   3.842  0.0404  0.9884  0.3290
16085TIP3    H269671   5.946   2.621   3.797 -0.3753  2.3236  0.9819
16086TIP3   OH269672   4.470   5.310  15.953  0.1434 -0.5766 -0.0288
16086TIP3    H169673   4.396   5.307  16.013 -1.2953  0.4697 -1.6225
16086TIP3    H269674   4.520   5.387  15.979 -0.0227 -0.5775  0.2904
16087TIP3   OH269675   5.999   0.686   4.172 -0.0689 -0.5856 -0.1302
16087TIP3    H169676   6.037   0.736   4.245 -0.8782 -1.6558  1.0722
16087TIP3    H269677   6.070   0.631   4.141  1.1472  1.8788 -2.1319
16088TIP3   OH269678   2.777   0.601   1.697  0.3484  0.4101  0.0919
16088TIP3    H169679   2.692   0.590   1.655  0.6141  0.0197 -0.3485
16088TIP3    H269680   2.806   0.512   1.717 -0.4878  0.6187  2.5702
16089TIP3   OH269681   6.542   3.969   6.573 -0.3619 -0.1601 -0.0177
16089TIP3    H169682   6.532   3.993   6.665 -0.7787  0.2458 -0.1654
16089TIP3    H269683   6.530   4.052   6.526 -1.8784 -0.6572 -0.5484
16090TIP3   OH269684   2.225   1.144   2.573 -0.2214 -0.4034  0.3545
16090TIP3    H169685   2.242   1.106   2.486  2.4528  1.1322  0.0812
16090TIP3    H269686   2.157   1.209   2.558 -2.0091 -2.2579  0.0737
16091TIP3   OH269687   0.344   6.663  11.493 -0.0972  0.6663  0.0547
16091TIP3    H169688   0.269   6.721  11.481 -1.6700 -1.3232 -0.2193
16091TIP3    H269689   0.309   6.587  11.539  2.1330  0.3859  1.4562
16092TIP3   OH269690   0.359   3.121   4.211  0.3785  0.3355  0.2695
16092TIP3    H169691   0.414   3.047   4.235  1.9115  1.9204  1.9558
16092TIP3    H269692   0.400   3.159   4.133 -1.2540 -1.3385 -1.5367
16093TIP3   OH269693   5.388   0.878   1.350  0.0062 -0.0324 -0.1857
16093TIP3    H169694   5.373   0.973   1.346 -0.2210  0.1524  2.7819
16093TIP3    H269695   5.301   0.840   1.336 -0.5845  0.3987  2.0032
16094TIP3   OH269696   3.993   3.859   4.954  0.7600 -0.6001  0.3494
16094TIP3    H169697   3.977   3.773   4.916  0.7102 -0.1602 -0.6468
16094TIP3    H269698   4.038   3.908   4.885 -0.6992  0.7009  0.2764
16095TIP3   OH269699   6.579   1.379   3.898 -0.4216 -0.0331 -0.4874
16095TIP3    H169700   6.561   1.288   3.873 -0.6746  0.4570 -2.2141
16095TIP3    H269701   6.542   1.431   3.827  0.7956  1.3673 -0.1353
16096TIP3   OH269702   0.815   6.302   2.917 -0.2028 -0.2914  0.0460
16096TIP3    H169703   0.783   6.231   2.861  1.0471 -1.1417  0.3642
16096TIP3    H269704   0.887   6.341   2.867  0.8376 -0.9702  0.9803
16097TIP3   OH269705   3.902   0.369  12.379 -0.0068 -0.7349  0.1833
16097TIP3    H169706   3.821   0.331  12.413 -0.3539  0.4335  0.6752
16097TIP3    H269707   3.918   0.321  12.297 -0.7817 -1.4864  0.4595
16098TIP3   OH269708   4.162   6.228  13.068 -0.6182  0.0491  1.0717
16098TIP3    H169709   4.162   6.138  13.036  1.3322  0.2208  0.4704
16098TIP3    H269710   4.254   6.248  13.083 -0.6757  2.8453 -1.4447
16099TIP3   OH269711   3.974   3.442   5.701  0.2425 -0.3679 -0.2402
16099TIP3    H169712   4.023   3.492   5.766 -0.0692 -2.2065  1.5203
16099TIP3    H269713   3.911   3.504   5.665  1.3095  1.0446  0.2357
16100TIP3   OH269714   5.062   5.191   2.836  0.6101  0.2793 -0.3712
16100TIP3    H169715   5.063   5.129   2.763 -0.2600  0.8604 -0.8946
16100TIP3    H269716   5.099   5.142   2.909  0.4059 -0.6916 -0.9003
16101TIP3   OH269717   5.510   2.773  14.747  0.2385 -0.7528 -0.4858
16101TIP3    H169718   5.423   2.735  14.735  1.2054 -2.4873 -2.7377
16101TIP3    H269719   5.535   2.747  14.836 -1.5199 -0.1259  0.2519
16102TIP3   OH269720   4.553   2.930  11.524 -0.4428 -0.4298 -0.1058
16102TIP3    H169721   4.488   2.862  11.539  0.2119 -0.8842  0.7695
16102TIP3    H269722   4.503   3.011  11.522 -1.1726 -0.8860 -0.6548
16103TIP3   OH269723   5.879   0.692   5.738  0.2241  0.1903 -0.7416
16103TIP3    H169724   5.881   0.764   5.676  1.3957  0.9546  0.1464
16103TIP3    H269725   5.862   0.733   5.823 -1.1683 -0.8128 -0.5048
16104TIP3   OH269726   5.111   6.165   5.940  0.2398 -0.1432  0.4340
16104TIP3    H169727   5.047   6.221   5.985  0.6907  0.4388  0.3498
16104TIP3    H269728   5.059   6.090   5.911 -0.4307  0.3648  0.2789
16105TIP3   OH269729   0.978   5.115  12.131 -0.1399 -0.0375  0.4889
16105TIP3    H169730   0.942   5.199  12.105 -1.2060 -0.4983  0.4111
16105TIP3    H269731   0.927   5.051  12.082 -0.9883 -0.8491  2.3179
16106TIP3   OH269732   6.650   6.379  13.019 -0.3800  0.7516 -0.1799
16106TIP3    H169733   6.596   6.453  12.994 -0.3678  1.0972  0.7586
16106TIP3    H269734   6.589   6.316  13.059 -0.5979 -0.3213 -2.0862
16107TIP3   OH269735   5.676   2.173  11.281  0.4904 -0.3594  0.3109
16107TIP3    H169736   5.766   2.145  11.265  0.7742 -0.5689  1.9965
16107TIP3    H269737   5.639   2.103  11.334 -1.0158 -0.7573 -1.2228
16108TIP3   OH269738   1.414   1.887   4.292  0.2271  0.0965  0.0229
16108TIP3    H169739   1.425   1.905   4.198 -0.2987 -2.0268 -0.4993
16108TIP3    H269740   1.320   1.869   4.302  0.2850  0.2770  0.9486
16109TIP3   OH269741   6.509   3.042   1.151  0.2798 -0.5922 -0.2556
16109TIP3    H169742   6.421   3.050   1.187  0.5042  1.9006 -0.0750
16109TIP3    H269743   6.544   3.131   1.154  2.1644 -1.2023 -1.9781
16110TIP3   OH269744   3.471   0.980   0.730 -0.2325  0.0646 -0.3316
16110TIP3    H169745   3.433   0.898   0.699 -1.3757  0.6290 -0.4864
16110TIP3    H269746   3.499   0.961   0.819 -1.2662 -0.2835 -0.0609
16111TIP3   OH269747   5.333   0.542  16.259 -0.2065 -0.5542  0.1163
16111TIP3    H169748   5.307   0.626  16.222 -0.6308  0.8758  3.2795
16111TIP3    H269749   5.408   0.563  16.315 -0.8396 -2.0746  1.6405
16112TIP3   OH269750   5.896   0.190   0.315 -0.4122  0.0507 -0.1293
16112TIP3    H169751   5.960   0.159   0.250 -0.8823  0.2863 -0.7078
16112TIP3    H269752   5.936   0.268   0.352  0.9593 -1.3721  1.6034
16113TIP3   OH269753   6.539   5.352  12.484 -0.2655 -0.3824 -0.2976
16113TIP3    H169754   6.493   5.424  12.527 -2.1424 -1.3243 -0.6096
16113TIP3    H269755   6.630   5.360  12.514 -0.0918  2.8049 -1.2779
16114TIP3   OH269756   1.321   5.080  15.303  0.0419  0.0678 -0.4668
16114TIP3    H169757   1.380   5.148  15.272  0.0504  0.3920  0.2471
16114TIP3    H269758   1.233   5.112  15.282 -0.0548  1.0529  1.2542
16115TIP3   OH269759   6.632   4.147   2.075 -0.0000  0.0192  0.3440
16115TIP3    H169760   6.619   4.242   2.076  1.0469  0.2053  2.4964
16115TIP3    H269761   6.546   4.111   2.053 -0.9221  1.4184  1.4744
16116TIP3   OH269762   3.090   1.700   3.363  0.3907 -0.0452  0.4933
16116TIP3    H169763   3.075   1.606   3.372  2.2028 -0.3951  0.2065
16116TIP3    H269764   3.183   1.708   3.342  0.2986  1.8265  0.6103
16117TIP3   OH269765   0.874   1.973  14.892 -0.6142  0.2792 -0.4251
16117TIP3    H169766   0.952   1.922  14.914 -1.1037  0.1193  1.0207
16117TIP3    H269767   0.907   2.062  14.877 -0.1710  0.2576  0.3802
16118TIP3   OH269768   2.270   2.726  11.351  0.0616 -0.2614  0.3488
16118TIP3    H169769   2.346   2.668  11.349 -0.9976 -1.6715 -0.4637
16118TIP3    H269770   2.196   2.668  11.364 -0.8787  1.1153  1.3780
16119TIP3   OH269771   4.922   1.462   6.160  0.1153  0.2626 -0.3371
16119TIP3    H169772   4.834   1.481   6.129  0.0927 -0.8971 -1.0517
16119TIP3    H269773   4.910   1.399   6.231  0.3664  0.0300 -0.4962
16120TIP3   OH269774   1.290   2.432  16.043  0.0539 -0.0602  0.2773
16120TIP3    H169775   1.358   2.417  16.109  0.4305 -0.5524 -0.2162
16120TIP3    H269776   1.329   2.494  15.982  0.1502 -0.5274 -0.1384
16121TIP3   OH269777   4.926   4.209  16.356  0.2181 -0.3909  0.6874
16121TIP3    H169778   4.894   4.122  16.333  1.0337 -0.2881 -1.0343
16121TIP3    H269779   4.989   4.230  16.287  0.3818  1.3786  1.3196
16122TIP3   OH269780   5.687   5.690   0.483  0.7005 -0.0938  0.1935
16122TIP3    H169781   5.657   5.683   0.574 -0.6895 -2.8554 -0.3720
16122TIP3    H269782   5.613   5.731   0.437  0.9310  0.2213  0.1008
16123TIP3   OH269783   1.441   0.309  12.411 -0.4455  0.2896  0.0738
16123TIP3    H169784   1.483   0.272  12.333 -1.2976 -0.6399  0.0323
16123TIP3    H269785   1.501   0.377  12.441 -0.4439  1.2022 -1.8230
16124TIP3   OH269786   3.740   4.717  12.678  0.1294  0.5074 -0.0559
16124TIP3    H169787   3.739   4.764  12.761  1.4273  0.1368  0.1900
16124TIP3    H269788   3.793   4.639  12.695  0.0095  0.1824 -1.1026
16125TIP3   OH269789   5.948   5.126  14.406 -0.5403  0.0677  0.0787
16125TIP3    H169790   5.978   5.127  14.497  1.1732  0.6026 -0.4662
16125TIP3    H269791   5.882   5.195  14.402  0.9638  1.5870  0.4372
16126TIP3   OH269792   1.458   3.033   1.832 -0.3534  0.2429 -0.3339
16126TIP3    H169793   1.437   3.123   1.857  0.6032  0.0706  1.2438
16126TIP3    H269794   1.378   2.984   1.851 -1.3411  0.9248 -2.4510
16127TIP3   OH269795   0.046   2.895  17.103  0.6383  0.2900 -0.0190
16127TIP3    H169796  -0.034   2.844  17.089  0.6405 -0.1915  1.5338
16127TIP3    H269797   0.085   2.857  17.182  1.0449  2.2095  0.7605
16128TIP3   OH269798   1.759   3.055  13.780 -0.2703  0.0908  0.1613
16128TIP3    H169799   1.819   2.982  13.764 -1.1808 -1.1199  1.9547
16128TIP3    H269800   1.791   3.095  13.861 -1.3266 -0.0072  0.6420
16129TIP3   OH269801   4.068   6.482  17.116  0.2230 -0.3866 -0.0615
16129TIP3    H169802   4.017   6.463  17.195  2.6160 -1.1349  1.4119
16129TIP3    H269803   4.147   6.524  17.149 -0.1692  2.4407 -2.4088
16130TIP3   OH269804   3.343   2.090  11.923  0.1210 -0.4238  0.1391
16130TIP3    H169805   3.356   2.062  11.833  1.4436 -3.1749  1.0827
16130TIP3    H269806   3.252   2.068  11.942  0.3606 -1.6000 -0.0008
16131TIP3   OH269807   6.038   2.658  15.670  0.5578 -0.1152 -0.3482
16131TIP3    H169808   5.948   2.667  15.699  0.5061 -2.0166  0.2360
16131TIP3    H269809   6.063   2.745  15.639  0.0038  1.6746  3.6759
16132TIP3   OH269810   5.318   3.635  12.046  0.4152 -0.1493  0.1917
16132TIP3    H169811   5.388   3.697  12.027 -0.1920  0.8671  1.1065
16132TIP3    H269812   5.363   3.555  12.072  1.2304  0.1150 -0.3736
16133TIP3   OH269813   6.582   0.365  11.063 -0.1063 -0.1977 -0.0327
16133TIP3    H169814   6.548   0.276  11.070  0.2870 -0.3329  0.1978
16133TIP3    H269815   6.673   0.358  11.090 -0.2670  0.4035  0.6992
16134TIP3   OH269816   2.744   2.047  11.546 -0.1817 -0.3046 -0.2579
16134TIP3    H169817   2.729   2.119  11.607 -0.3094 -0.0917 -0.5357
16134TIP3    H269818   2.804   1.989  11.591  0.6250  0.4220 -0.3752
16135TIP3   OH269819   3.997   2.548  14.088 -0.2864 -0.1903  0.0992
16135TIP3    H169820   4.044   2.471  14.054  0.0755 -0.9326  2.1219
16135TIP3    H269821   4.060   2.590  14.147  0.1909  2.8009 -2.3185
16136TIP3   OH269822   3.806   5.357   0.300  0.1954  0.2729 -0.4010
16136TIP3    H169823   3.892   5.388   0.269  0.1342  1.1319  0.2547
16136TIP3    H269824   3.824   5.274   0.343  0.7190  0.4832 -0.2060
16137TIP3   OH269825   5.887   4.707  12.612 -0.6304 -0.0553 -0.1982
16137TIP3    H169826   5.940   4.641  12.657 -1.8579 -0.6441  0.4419
16137TIP3    H269827   5.950   4.758  12.562  0.6651 -0.1022  1.3050
16138TIP3   OH269828   3.314   6.701  11.879 -0.3576 -0.2446 -0.1547
16138TIP3    H169829   3.366   6.699  11.798 -2.2243 -3.3955 -1.4665
16138TIP3    H269830   3.250   6.770  11.865 -0.3111 -0.3937 -1.1727
16139TIP3   OH269831   0.791   0.114   2.280  0.3531 -0.1477  0.5399
16139TIP3    H169832   0.725   0.178   2.254  1.2333  1.0926  1.2751
16139TIP3    H269833   0.819   0.142   2.367  0.4435 -1.8145  1.0815
16140TIP3   OH269834   3.257   5.711   2.767  0.0896  0.2255 -0.1173
16140TIP3    H169835   3.188   5.647   2.784  1.3872 -1.1292  0.2518
16140TIP3    H269836   3.324   5.662   2.719  1.3637  1.1317  0.6660
16141TIP3   OH269837   2.407   5.338   3.511  0.3079 -0.1821  0.0137
16141TIP3    H169838   2.377   5.363   3.598 -0.7133 -1.7110  0.1252
16141TIP3    H269839   2.482   5.280   3.527 -1.2277 -2.2718  0.0082
16142TIP3   OH269840   6.594   6.260   1.618  0.4648 -0.8455  0.1787
16142TIP3    H169841   6.661   6.238   1.684  1.9185  0.6757 -0.7163
16142TIP3    H269842   6.574   6.352   1.634  1.3017 -0.2569 -1.8183
16143TIP3   OH269843   2.474   2.212  15.555  0.0775 -0.0872 -0.4827
16143TIP3    H169844   2.464   2.307  15.555 -0.8327 -0.0751  2.5147
16143TIP3    H269845   2.417   2.182  15.484  0.0744  1.5603 -1.2214
16144TIP3   OH269846   3.413   4.877   4.386 -0.4778 -0.4999 -0.4477
16144TIP3    H169847   3.485   4.918   4.338  0.6814  0.8284  2.2528
16144TIP3    H269848   3.405   4.790   4.346  0.4561  0.4336 -2.8954
16145TIP3   OH269849   5.196   3.194   5.525  0.5611  0.2858  0.2451
16145TIP3    H169850   5.269   3.160   5.474  0.9195  0.1374  0.8575
16145TIP3    H269851   5.218   3.174   5.616 -1.7167 -2.7849  0.3001
16146TIP3   OH269852   4.667   0.573  11.392 -0.6203 -0.2815  0.4956
16146TIP3    H169853   4.676   0.488  11.434  0.5807  0.0170  0.8772
16146TIP3    H269854   4.698   0.559  11.303 -1.7334 -0.5545  0.1358
16147TIP3   OH269855   0.034   5.663   0.582  0.3812 -0.2234  0.5497
16147TIP3    H169856  -0.002   5.588   0.535 -0.0295 -0.2283  0.8717
16147TIP3    H269857   0.012   5.647   0.673  0.8635 -0.0317  0.7031
16148TIP3   OH269858   1.477   1.941  12.097  0.2490 -0.3634  0.2481
16148TIP3    H169859   1.474   2.031  12.063  0.6435 -0.1319  0.8139
16148TIP3    H269860   1.496   1.888  12.020 -0.2253  0.0070 -0.1394
16149TIP3   OH269861   1.281   6.593   6.307 -0.0515 -0.7253  0.1911
16149TIP3    H169862   1.354   6.570   6.365 -0.3716 -0.1841  0.8290
16149TIP3    H269863   1.299   6.546   6.226 -0.7399 -3.3214  1.4353
16150TIP3   OH269864   6.314   0.258   0.276  0.3921  0.4367 -0.6354
16150TIP3    H169865   6.394   0.283   0.230  0.1919  1.0665 -0.6528
16150TIP3    H269866   6.340   0.183   0.330  0.3899 -0.9447 -2.4862
16151TIP3   OH269867   1.296   5.969  11.287  0.0971  0.1807  0.6458
16151TIP3    H169868   1.333   6.057  11.295 -1.1370  0.5164  3.4503
16151TIP3    H269869   1.351   5.914  11.342  1.7336 -1.2369 -2.1546
16152TIP3   OH269870   3.639   4.679   4.325  0.0033 -0.1325  0.2179
16152TIP3    H169871   3.678   4.678   4.412  2.4604  1.3155 -0.7737
16152TIP3    H269872   3.648   4.589   4.293  1.2982 -0.1338  0.5584
16153TIP3   OH269873   5.483   5.121   6.001 -0.1870  0.5684  0.0380
16153TIP3    H169874   5.457   5.207   6.036  2.2214  0.7442  1.6867
16153TIP3    H269875   5.576   5.132   5.980  0.2016 -1.6605  0.4090
16154TIP3   OH269876   3.849   1.054   4.846 -0.0016  0.5296  0.0047
16154TIP3    H169877   3.823   1.090   4.762 -2.4939  0.0576  0.4825
16154TIP3    H269878   3.936   1.018   4.831 -0.0601  1.1487 -2.1378
16155TIP3   OH269879   3.383   2.583   3.787  0.0565 -0.1160  0.5251
16155TIP3    H169880   3.336   2.500   3.787 -0.7566  0.3365  0.6080
16155TIP3    H269881   3.475   2.558   3.796 -0.3471 -0.9103  3.0940
16156TIP3   OH269882   2.594   4.515  11.462 -0.0042  0.1069  0.0234
16156TIP3    H169883   2.606   4.467  11.380  1.6087 -0.2728  0.4464
16156TIP3    H269884   2.585   4.446  11.528 -0.8277  0.4127  0.2371
16157TIP3   OH269885   2.313   5.520  12.111  0.0756 -0.1001 -0.5064
16157TIP3    H169886   2.265   5.596  12.144 -0.0754 -0.5177  0.2588
16157TIP3    H269887   2.276   5.446  12.159  1.2793 -0.4618 -0.1215
16158TIP3   OH269888   2.904   5.501  11.326  0.0994  0.2131  0.2247
16158TIP3    H169889   2.984   5.470  11.369  0.2144 -0.3809 -0.3992
16158TIP3    H269890   2.837   5.496  11.394  0.3876 -0.2338  0.4789
16159TIP3   OH269891   5.367   1.879  17.245 -0.1736 -0.1693 -0.2386
16159TIP3    H169892   5.444   1.935  17.255 -0.1047 -0.3979  0.6376
16159TIP3    H269893   5.330   1.875  17.333 -0.1070 -1.5943 -0.2565
16160TIP3   OH269894   0.044   5.280   6.133 -0.3056  0.2111  0.3106
16160TIP3    H169895  -0.031   5.225   6.156 -0.5033 -0.0740 -0.9125
16160TIP3    H269896   0.088   5.231   6.063 -0.0575  1.2429 -0.2715
16161TIP3   OH269897   0.991   0.378  15.588 -0.1562  0.5120 -0.2467
16161TIP3    H169898   0.995   0.376  15.683 -2.3228  0.2110 -0.1094
16161TIP3    H269899   0.987   0.285  15.562  1.5025  0.5462 -0.7305
16162TIP3   OH269900   2.751   0.350  14.883  0.2887 -0.0603 -0.3323
16162TIP3    H169901   2.701   0.281  14.839 -0.7738  0.6279 -0.2364
16162TIP3    H269902   2.730   0.338  14.976 -0.9105  1.1392 -0.4164
16163TIP3   OH269903   1.458   6.058  13.421 -0.1718  0.9386  0.3189
16163TIP3    H169904   1.476   5.985  13.481 -0.1484  1.9631  1.5902
16163TIP3    H269905   1.521   6.046  13.350  0.5031  0.2803  1.0067
16164TIP3   OH269906   5.535   4.378   4.304 -0.0898  0.1547  0.2594
16164TIP3    H169907   5.442   4.373   4.284 -0.0209  0.9703 -0.3099
16164TIP3    H269908   5.545   4.460   4.352  0.1456 -0.5627  1.4900
16165TIP3   OH269909   4.768   3.115   2.649 -0.1563 -0.1114 -0.2916
16165TIP3    H169910   4.707   3.052   2.611  1.1495 -2.5546  1.3879
16165TIP3    H269911   4.729   3.138   2.733  1.2046 -1.8894  0.9126
16166TIP3   OH269912   6.281   0.290   1.428 -0.1081 -0.3263  0.3789
16166TIP3    H169913   6.269   0.261   1.519 -1.0757  1.5637  0.9013
16166TIP3    H269914   6.207   0.348   1.411  1.1443  0.9872 -0.9418
16167TIP3   OH269915   2.112   0.491   0.375 -0.0764  0.5414 -0.2618
16167TIP3    H169916   2.103   0.414   0.431  1.1791  0.0871 -0.6399
16167TIP3    H269917   2.161   0.459   0.299 -2.4324  0.9286 -2.0811
16168TIP3   OH269918   6.115   0.301   0.094 -0.5404 -0.4239 -0.0293
16168TIP3    H169919   6.195   0.280   0.143 -0.8568 -1.3574  0.1129
16168TIP3    H269920   6.122   0.394   0.075  2.1035 -1.0436 -2.7593
16169TIP3   OH269921   2.578   2.503  12.483  0.8837  0.1915 -0.5917
16169TIP3    H169922   2.483   2.493  12.495  0.9753 -1.8279 -1.1708
16169TIP3    H269923   2.605   2.560  12.556 -0.8520  1.4301 -0.8550
16170TIP3   OH269924   3.110   3.092   4.413 -0.4967  0.0101 -0.0703
16170TIP3    H169925   3.147   3.008   4.386  0.3675  0.1677  0.5745
16170TIP3    H269926   3.182   3.154   4.403 -1.2528  0.7675 -0.9465
16171TIP3   OH269927   3.746   5.613  11.732  0.0387 -0.1305 -1.2880
16171TIP3    H169928   3.658   5.609  11.694 -0.0122  1.1604 -1.3462
16171TIP3    H269929   3.778   5.523  11.729 -1.4896 -0.7215 -0.7662
16172TIP3   OH269930   5.137   5.717  16.325 -0.5050 -0.5841 -0.7280
16172TIP3    H169931   5.112   5.720  16.232 -1.6960  0.7437 -0.4026
16172TIP3    H269932   5.065   5.668  16.366  0.7470 -2.4965 -0.6645
16173TIP3   OH269933   4.126   6.401  13.676 -0.4148 -0.1895  0.3914
16173TIP3    H169934   4.087   6.487  13.660  0.0309 -0.4241 -2.3930
16173TIP3    H269935   4.139   6.364  13.589  0.0468 -2.8180  1.4883
16174TIP3   OH269936   0.158   4.862   4.967  0.3003  0.5693  0.2313
16174TIP3    H169937   0.166   4.898   4.879  0.8814 -0.9956 -0.3756
16174TIP3    H269938   0.064   4.852   4.981  0.1499  1.7968  0.2239
16175TIP3   OH269939   4.436   1.872  16.795 -0.7933 -0.2561  0.1954
16175TIP3    H169940   4.374   1.804  16.768 -1.7276  0.9226 -0.7156
16175TIP3    H269941   4.394   1.914  16.870 -0.7248  0.0416  0.0657
16176TIP3   OH269942   2.951   3.442   3.336 -0.6599  0.2101 -0.1370
16176TIP3    H169943   2.905   3.470   3.415 -2.5713 -0.4902 -0.9328
16176TIP3    H269944   2.914   3.497   3.267  0.1528  0.0367 -0.7192
16177TIP3   OH269945   0.096   1.192  14.519  0.1209  0.5933  0.2419
16177TIP3    H169946   0.169   1.139  14.487 -1.2618 -0.7201 -0.8588
16177TIP3    H269947   0.106   1.275  14.472  0.8736  0.4169  0.0723
16178TIP3   OH269948   4.728   5.454  16.043  0.0689 -0.0297 -0.1467
16178TIP3    H169949   4.804   5.400  16.065  0.3629  0.1909 -0.5925
16178TIP3    H269950   4.760   5.513  15.975 -0.1161  1.0375  0.6733
16179TIP3   OH269951   3.601   2.355   5.857  0.5456  0.1285  0.0990
16179TIP3    H169952   3.678   2.410   5.873  1.4066 -0.6782 -1.0589
16179TIP3    H269953   3.633   2.266   5.864 -0.4923 -0.2325  0.4328
16180TIP3   OH269954   5.430   3.418  13.364 -0.1551  0.2825 -0.4425
16180TIP3    H169955   5.415   3.481  13.294  1.7286  1.9506  0.5573
16180TIP3    H269956   5.387   3.456  13.441 -0.0499 -0.2818 -0.0915
16181TIP3   OH269957   3.317   6.685  16.808 -0.2015  0.2573  0.0344
16181TIP3    H169958   3.270   6.643  16.881  0.7997 -0.3499  0.3426
16181TIP3    H269959   3.309   6.623  16.736  0.6593 -0.1452  0.2764
16182TIP3   OH269960   4.090   4.683   4.255  0.2944 -0.1083 -0.2106
16182TIP3    H169961   4.002   4.676   4.218  0.8034  1.2673 -1.8379
16182TIP3    H269962   4.077   4.696   4.349 -1.1329 -1.9215 -0.1128
16183TIP3   OH269963   5.719   1.773  15.629  0.1293 -0.4548  0.5844
16183TIP3    H169964   5.753   1.835  15.693  0.5158  0.5291 -0.5394
16183TIP3    H269965   5.786   1.706  15.622  0.5918  0.0251  0.3896
16184TIP3   OH269966   2.257   6.570  15.381  0.1369  0.1553 -0.4736
16184TIP3    H169967   2.170   6.531  15.382  1.5218 -3.2973  0.2280
16184TIP3    H269968   2.275   6.585  15.288 -0.9873  0.4504 -0.6642
16185TIP3   OH269969   4.792   4.147   2.388 -0.0059 -0.4318 -0.1961
16185TIP3    H169970   4.760   4.098   2.312 -1.2414  0.2079 -0.1021
16185TIP3    H269971   4.771   4.238   2.369  0.6898 -0.1277  0.4257
16186TIP3   OH269972   1.703   4.655  15.014 -0.3015  0.4038  0.3573
16186TIP3    H169973   1.681   4.635  15.105  0.2628  1.7975  0.8196
16186TIP3    H269974   1.796   4.674  15.014 -0.2590  0.2849 -0.5525
16187TIP3   OH269975   0.177   3.301  13.819  0.7717  0.5243 -0.5529
16187TIP3    H169976   0.216   3.214  13.811  0.0366  0.1120  0.2223
16187TIP3    H269977   0.251   3.357  13.844  1.0313 -0.1093  0.1681
16188TIP3   OH269978   2.086   5.302  15.650 -1.1011 -0.4162  0.5312
16188TIP3    H169979   2.108   5.385  15.607  5.0622 -1.0552  1.4738
16188TIP3    H269980   2.104   5.318  15.743  2.0449 -2.9949  0.5526
16189TIP3   OH269981   0.216   2.110  12.850 -0.6108  0.2838 -0.7811
16189TIP3    H169982   0.303   2.141  12.826 -1.2293  1.8907 -1.0268
16189TIP3    H269983   0.161   2.132  12.775 -1.5681  0.8521  0.0740
16190TIP3   OH269984   0.235   2.671  16.399 -0.2360  0.8248  0.1140
16190TIP3    H169985   0.296   2.600  16.376 -0.4411 -0.4044  2.9862
16190TIP3    H269986   0.167   2.629  16.451 -2.3989  2.5650 -1.1435
16191TIP3   OH269987   1.763   2.126   1.785  0.1376 -0.1271 -0.5339
16191TIP3    H169988   1.833   2.141   1.723  1.4791 -1.8924  0.4339
16191TIP3    H269989   1.747   2.211   1.825  2.4475  0.1707 -0.0965
16192TIP3   OH269990   0.129   5.292  13.380  0.2296 -0.0059  0.1766
16192TIP3    H169991   0.213   5.259  13.346  0.8120  0.3479  1.2214
16192TIP3    H269992   0.081   5.320  13.302  1.6425  1.0707 -0.3537
16193TIP3   OH269993   1.063   1.005   5.296  0.0671 -0.0906 -0.5438
16193TIP3    H169994   1.155   1.032   5.297  0.0037  0.1146  0.2478
16193TIP3    H269995   1.021   1.058   5.364 -0.4102 -0.9994 -0.1115
16194TIP3   OH269996   0.838   2.629   6.440 -0.0132 -0.5154 -0.5976
16194TIP3    H169997   0.906   2.679   6.486 -0.5942  0.1350 -0.4395
16194TIP3    H269998   0.778   2.601   6.508  0.4318 -1.6447 -0.6575
16195TIP3   OH269999   3.169   5.455   4.631  0.0440 -0.3014  0.2496
16195TIP3    H170000   3.131   5.429   4.714 -0.1237  0.1170  0.3029
16195TIP3    H270001   3.198   5.545   4.644  1.7933 -0.8603  0.4684
16196TIP3   OH270002   3.475   6.613  14.616  0.0179 -0.3505  0.4312
16196TIP3    H170003   3.434   6.612  14.702  0.4480 -1.1640  0.6424
16196TIP3    H270004   3.569   6.612  14.634  0.1157  0.0030 -0.0448
16197TIP3   OH270005   0.009   4.442   6.243  0.4229  0.5307 -0.4184
16197TIP3    H170006  -0.064   4.474   6.295  0.6585 -0.1058  0.3175
16197TIP3    H270007   0.055   4.381   6.301  0.9934  0.2124 -1.1928
16198TIP3   OH270008   3.847   5.679  15.465  0.2305  0.0135 -0.2632
16198TIP3    H170009   3.794   5.599  15.461 -0.8874  0.3743  3.3016
16198TIP3    H270010   3.798   5.743  15.415 -0.6068 -0.7033 -0.3805
16199TIP3   OH270011   4.828   1.590   4.904  0.4802  0.2528 -0.2055
16199TIP3    H170012   4.751   1.597   4.960 -0.2107 -0.3660 -1.0383
16199TIP3    H270013   4.901   1.620   4.958 -0.3966  1.2117  0.4746
16200TIP3   OH270014   1.747   4.686   5.884  0.0212 -0.4454 -0.0830
16200TIP3    H170015   1.816   4.677   5.950  0.1647  0.0123 -0.1629
16200TIP3    H270016   1.734   4.781   5.877 -0.5019 -0.5238 -0.1874
16201TIP3   OH270017   6.460   4.814   3.929 -0.2298 -0.3791 -0.2422
16201TIP3    H170018   6.526   4.746   3.917  0.2596  0.2205 -1.1272
16201TIP3    H270019   6.377   4.770   3.911 -0.0435 -1.0389  0.4661
16202TIP3   OH270020   6.671   4.760   3.693  0.1857 -0.0734  0.2810
16202TIP3    H170021   6.657   4.707   3.771 -0.8792 -1.1886 -0.6243
16202TIP3    H270022   6.686   4.848   3.726  0.0658 -0.5789  1.7512
16203TIP3   OH270023   1.834   4.038  13.880  0.2286 -0.3204  0.3073
16203TIP3    H170024   1.793   3.997  13.956  0.7498 -2.8104 -0.6300
16203TIP3    H270025   1.925   4.050  13.904  0.0062  0.6893  0.7025
16204TIP3   OH270026   1.153   6.494  14.763  0.0270  0.4508 -0.0143
16204TIP3    H170027   1.200   6.575  14.742  0.9774 -0.0845 -0.0202
16204TIP3    H270028   1.096   6.478  14.688 -0.1859  1.1276  0.0005
16205TIP3   OH270029   5.001   5.333   5.981  0.2864 -0.2106 -0.6148
16205TIP3    H170030   4.949   5.378   5.914  1.3462  2.4926  0.2500
16205TIP3    H270031   4.977   5.376   6.063  1.9678 -0.6633  0.1533
16206TIP3   OH270032   2.468   4.816  14.308 -0.5325  0.2894 -0.4187
16206TIP3    H170033   2.420   4.748  14.355  1.5135 -0.0211  1.3395
16206TIP3    H270034   2.524   4.768  14.247 -0.6941  0.5414 -0.7724
16207TIP3   OH270035   1.733   3.371  10.801  0.5167 -0.0116 -0.2403
16207TIP3    H170036   1.807   3.348  10.745  0.0413 -0.1561 -0.8317
16207TIP3    H270037   1.759   3.453  10.843  0.5569  0.5681 -1.3458
16208TIP3   OH270038   2.182   5.708  11.548  0.0538 -0.0358 -0.2214
16208TIP3    H170039   2.250   5.727  11.484  0.5259 -0.1352  0.2341
16208TIP3    H270040   2.103   5.691  11.497  0.0965  1.1590 -0.7146
16209TIP3   OH270041   2.714   4.917  12.206  0.6020 -0.1853 -0.3564
16209TIP3    H170042   2.779   4.950  12.268  0.6349  0.9502 -0.9678
16209TIP3    H270043   2.688   4.994  12.156  0.1254 -0.9683 -1.3413
16210TIP3   OH270044   5.034   6.273  17.458  0.0224  0.2269 -0.3067
16210TIP3    H170045   5.077   6.347  17.501  0.6955  0.6677 -1.6643
16210TIP3    H270046   5.096   6.245  17.391 -0.4847 -1.1942 -0.2012
16211TIP3   OH270047   4.177   3.174  14.468  0.5266  0.3351  0.1792
16211TIP3    H170048   4.088   3.140  14.478  1.1907 -1.2879  1.0038
16211TIP3    H270049   4.220   3.113  14.408  1.1152  1.0667 -0.1699
16212TIP3   OH270050   1.360   1.615  13.594 -0.6271 -0.0278  1.0585
16212TIP3    H170051   1.319   1.555  13.532  1.8527 -3.2057  2.2604
16212TIP3    H270052   1.298   1.620  13.667 -1.3833 -0.0973  0.4401
16213TIP3   OH270053   5.139   4.603   3.523 -0.7438 -0.5793 -0.9937
16213TIP3    H170054   5.082   4.646   3.587 -0.9356 -1.0217 -0.8586
16213TIP3    H270055   5.222   4.649   3.529 -0.9875 -0.1423 -0.9525
16214TIP3   OH270056   0.388   4.774   0.468 -0.2169  0.2639  0.2873
16214TIP3    H170057   0.481   4.790   0.483 -0.5242  1.2104  1.3436
16214TIP3    H270058   0.358   4.853   0.424 -0.8350  0.6843  1.4217
16215TIP3   OH270059   1.017   0.993  15.048  0.1572 -0.0745  0.0106
16215TIP3    H170060   0.961   1.007  14.972  1.0994 -1.8876 -1.1031
16215TIP3    H270061   1.063   0.911  15.028  2.2692  0.6983  1.4239
16216TIP3   OH270062   0.316   5.303   4.514  0.1501  0.3172 -0.6938
16216TIP3    H170063   0.247   5.368   4.529 -0.8323 -0.8784  0.1179
16216TIP3    H270064   0.379   5.348   4.458 -0.5563  1.9272 -0.2467
16217TIP3   OH270065   1.797   3.641   0.241 -0.3075 -0.0150 -0.2368
16217TIP3    H170066   1.867   3.692   0.201  0.1505 -0.4368  0.0146
16217TIP3    H270067   1.842   3.572   0.290 -0.8784  0.0681  0.4238
16218TIP3   OH270068   2.320   3.288   5.703  0.2856  0.0322 -0.2671
16218TIP3    H170069   2.345   3.298   5.795 -1.4307  1.4786  0.1142
16218TIP3    H270070   2.236   3.241   5.707 -0.9378  2.0414 -0.8781
16219TIP3   OH270071   0.273   4.922  17.069 -0.3499 -0.7551  0.2392
16219TIP3    H170072   0.236   4.988  17.010  1.1469  0.4950  0.6119
16219TIP3    H270073   0.321   4.862  17.012  1.7682  0.9003  0.1367
16220TIP3   OH270074   1.812   0.543  12.022 -1.4154 -0.8597 -0.0358
16220TIP3    H170075   1.814   0.491  12.103 -2.6589 -0.7446  0.0810
16220TIP3    H270076   1.762   0.621  12.044 -0.0283  0.1741 -0.3724
16221TIP3   OH270077   2.880   5.729   3.890 -0.4822 -0.1368 -0.3023
16221TIP3    H170078   2.837   5.797   3.940  1.2152  1.7356 -1.2378
16221TIP3    H270079   2.839   5.732   3.804  0.7196  0.9046 -0.8610
16222TIP3   OH270080   5.513   3.858   2.346 -0.1181 -0.2646 -0.3453
16222TIP3    H170081   5.582   3.924   2.344  0.2679 -0.6724 -0.9569
16222TIP3    H270082   5.528   3.806   2.267  0.0376 -1.5496  0.5032
16223TIP3   OH270083   0.631   1.835  14.265 -0.2738  0.7847 -0.3816
16223TIP3    H170084   0.672   1.792  14.340 -2.5229  1.0910  1.1331
16223TIP3    H270085   0.640   1.928  14.282  0.1095  0.8687 -1.0280
16224TIP3   OH270086   5.558   4.955  16.194  0.0671 -0.7379  0.2145
16224TIP3    H170087   5.540   4.872  16.239  0.5676 -1.2265 -0.4601
16224TIP3    H270088   5.473   4.996  16.185 -0.0907 -0.8027  1.2656
16225TIP3   OH270089   1.599   5.058   0.141  0.1574 -0.5582  0.0725
16225TIP3    H170090   1.555   5.013   0.070  1.7440 -0.5291 -0.9668
16225TIP3    H270091   1.549   5.139   0.153 -1.2947 -1.4698  0.3581
16226TIP3   OH270092   4.649   0.842  11.341  0.2146 -0.3209  0.4292
16226TIP3    H170093   4.638   0.747  11.352  0.1793 -0.2449  1.0826
16226TIP3    H270094   4.618   0.879  11.423  0.2854  0.2586  0.1971
16227TIP3   OH270095   2.205   5.451   5.562  0.2967  0.4970 -0.2411
16227TIP3    H170096   2.293   5.488   5.569  0.4903  0.5192 -2.1060
16227TIP3    H270097   2.219   5.365   5.523 -0.3595 -0.5200  1.6461
16228TIP3   OH270098   5.562   0.831   5.970 -0.2816 -0.4692 -0.3553
16228TIP3    H170099   5.622   0.886   5.919  0.1014 -1.0930 -0.5866
16228TIP3    H270100   5.584   0.851   6.061 -1.2387  0.9451 -0.3869
16229TIP3   OH270101   5.127   5.790  13.528  0.5710 -0.4958 -0.6582
16229TIP3    H170102   5.199   5.773  13.588 -0.2395  1.7385  1.0718
16229TIP3    H270103   5.169   5.824  13.449  1.4560 -0.1517 -0.0529
16230TIP3   OH270104   5.255   0.920   6.641 -0.2430 -0.5087  0.0203
16230TIP3    H170105   5.208   0.841   6.668 -1.8906  0.2404 -0.5376
16230TIP3    H270106   5.341   0.888   6.614 -1.0615 -2.2150 -0.7471
16231TIP3   OH270107   0.889   1.019  12.511 -0.6109 -0.1130 -0.0298
16231TIP3    H170108   0.926   1.107  12.518  0.2236 -0.3979 -0.7036
16231TIP3    H270109   0.913   0.976  12.593 -1.7265  0.5230  0.6637
16232TIP3   OH270110   1.197   1.081  15.270 -0.1833  0.1561 -0.9564
16232TIP3    H170111   1.152   1.154  15.313 -1.2994 -0.5650 -0.8402
16232TIP3    H270112   1.138   1.057  15.198  0.2163 -0.5528 -1.0522
16233TIP3   OH270113   2.200   1.886   6.104  0.1482  0.2480  0.2604
16233TIP3    H170114   2.212   1.975   6.139 -2.3859  0.9988 -0.5655
16233TIP3    H270115   2.212   1.896   6.009 -0.7107 -0.1707  0.1050
16234TIP3   OH270116   6.148   3.617   2.732 -0.4610  0.3088 -0.4880
16234TIP3    H170117   6.076   3.573   2.777 -0.3573  2.0250  1.5292
16234TIP3    H270118   6.129   3.710   2.742  0.4299  0.7901 -2.7059
16235TIP3   OH270119   1.488   6.695   5.517  0.3411 -0.3152  0.3090
16235TIP3    H170120   1.392   6.702   5.509  0.1077 -1.7659  1.4416
16235TIP3    H270121   1.517   6.671   5.429 -0.6316 -2.2523  0.4531
16236TIP3   OH270122   4.141   5.580   0.526 -0.7560 -0.3617  0.2488
16236TIP3    H170123   4.169   5.489   0.530  0.4836 -0.1526 -2.0076
16236TIP3    H270124   4.134   5.598   0.432 -1.4329  1.7386  0.6608
16237TIP3   OH270125   0.250   5.652  13.958  0.2386  0.0766  0.0757
16237TIP3    H170126   0.290   5.646  13.871  0.7570 -0.7381  0.3570
16237TIP3    H270127   0.163   5.689  13.942  0.4042  0.1268 -0.7637
16238TIP3   OH270128   5.414   3.786  13.726 -0.2173 -0.2358  0.0563
16238TIP3    H170129   5.430   3.880  13.716  0.6771 -0.3433  0.3326
16238TIP3    H270130   5.502   3.748  13.732 -0.4947 -1.2822 -1.7550
16239TIP3   OH270131   1.358   6.020  15.876  0.2811  0.2529  0.0409
16239TIP3    H170132   1.437   6.005  15.823  1.4245  0.1071  1.7209
16239TIP3    H270133   1.349   5.941  15.928 -0.4199  0.6772  0.5818
16240TIP3   OH270134   6.271   1.120   4.441 -0.5393 -0.1001  0.1471
16240TIP3    H170135   6.255   1.177   4.516 -0.1146  0.0585  0.1175
16240TIP3    H270136   6.347   1.067   4.465 -0.1338  0.2519 -0.3387
16241TIP3   OH270137   3.310   6.170   3.757  0.0332 -0.2685  0.2850
16241TIP3    H170138   3.238   6.224   3.724  0.0749  0.5234  1.4482
16241TIP3    H270139   3.273   6.082   3.762 -0.1488 -0.3200 -1.2780
16242TIP3   OH270140   1.648   0.537  12.492  0.7403  0.0929  0.1651
16242TIP3    H170141   1.619   0.626  12.512 -0.8118 -0.1139 -0.9542
16242TIP3    H270142   1.652   0.493  12.576 -1.6338  0.3518  0.4738
16243TIP3   OH270143   6.592   0.769  14.232 -0.4544  0.3194  0.1536
16243TIP3    H170144   6.577   0.708  14.160  1.4528 -0.4269  0.3232
16243TIP3    H270145   6.665   0.823  14.202 -1.1039  1.4899  0.6431
16244TIP3   OH270146   4.514   1.923  13.532  0.3854 -0.4712  0.0610
16244TIP3    H170147   4.520   1.842  13.582  2.4372  0.9820  2.4518
16244TIP3    H270148   4.420   1.936  13.518 -0.1842 -1.8537  2.1481
16245TIP3   OH270149   5.990   5.002   1.180 -0.0098  0.1910  0.1842
16245TIP3    H170150   6.045   4.995   1.102  1.0339  1.1603  0.8036
16245TIP3    H270151   5.910   5.046   1.149 -0.1451 -0.5611 -0.5738
16246TIP3   OH270152   6.669   2.487   3.493  0.1427 -0.1515 -0.5260
16246TIP3    H170153   6.694   2.562   3.440 -0.6923  0.3406 -0.2334
16246TIP3    H270154   6.662   2.415   3.430  2.4661 -0.3873 -0.5966
16247TIP3   OH270155   2.091   1.150   1.574  0.4248 -0.5082 -0.9278
16247TIP3    H170156   2.067   1.124   1.486 -1.0889  0.5120 -0.8400
16247TIP3    H270157   2.091   1.245   1.573 -0.1006 -0.4673  0.2875
16248TIP3   OH270158   3.996   5.347  16.639  0.4875  0.5580  0.2452
16248TIP3    H170159   4.033   5.435  16.631 -2.6136  1.9078 -1.0573
16248TIP3    H270160   3.963   5.343  16.729  0.7758  0.6696  0.3558
16249TIP3   OH270161   3.181   0.686   4.588  0.2351 -0.3508  0.5289
16249TIP3    H170162   3.105   0.634   4.563  0.0217  0.6192 -1.0105
16249TIP3    H270163   3.156   0.776   4.567  2.8031 -0.2389 -2.9429
16250TIP3   OH270164   4.920   3.663   4.890 -0.1112 -0.4576 -0.1384
16250TIP3    H170165   4.842   3.696   4.846  0.3151  0.8245  0.0058
16250TIP3    H270166   4.992   3.681   4.829  0.3296  0.2501  0.5613
16251TIP3   OH270167   1.491   5.281   0.258  0.0083  0.0061 -0.3705
16251TIP3    H170168   1.521   5.370   0.279 -0.8847  0.9074 -2.6531
16251TIP3    H270169   1.400   5.291   0.233  0.1315 -1.4265 -1.5103
16252TIP3   OH270170   4.253   2.224   0.469  0.3477  0.8242  0.1124
16252TIP3    H170171   4.192   2.298   0.461 -0.5118  0.5386  3.0183
16252TIP3    H270172   4.335   2.257   0.432 -0.9280  1.9742 -1.8870
16253TIP3   OH270173   5.783   3.636  13.106  0.3121 -0.0214 -0.5443
16253TIP3    H170174   5.747   3.697  13.042  1.1616 -0.7345 -1.7275
16253TIP3    H270175   5.862   3.601  13.065  0.6603 -0.8005  0.7255
16254TIP3   OH270176   6.320   5.418   2.124 -0.5359 -0.3164  0.2563
16254TIP3    H170177   6.312   5.430   2.219 -0.5559 -0.4844  0.2754
16254TIP3    H270178   6.360   5.332   2.114  0.5158  0.1740  0.1377
16255TIP3   OH270179   0.582   5.036  15.210  0.3123 -0.0572  0.1776
16255TIP3    H170180   0.626   4.960  15.172 -1.6084  0.0625 -2.6964
16255TIP3    H270181   0.605   5.108  15.151 -1.9109  0.4322 -0.1710
16256TIP3   OH270182   4.135   4.260   3.982  0.0026  0.0600  0.0477
16256TIP3    H170183   4.112   4.276   4.073  2.0116  2.3079  0.2766
16256TIP3    H270184   4.083   4.323   3.933  0.8732  0.7350 -0.0439
16257TIP3   OH270185   6.473   1.185  11.785 -1.0097 -0.3143 -0.3371
16257TIP3    H170186   6.432   1.112  11.831 -0.6708 -0.2057  0.1379
16257TIP3    H270187   6.523   1.143  11.714  0.5547 -0.6998  0.9408
16258TIP3   OH270188   6.478   3.355  13.629  0.3931  0.2574  0.2647
16258TIP3    H170189   6.394   3.394  13.605  1.0381  1.2590 -0.4472
16258TIP3    H270190   6.483   3.275  13.576 -1.1566 -1.1553  2.0949
16259TIP3   OH270191   2.871   6.092   0.722 -0.2075  0.0620 -0.3852
16259TIP3    H170192   2.868   6.021   0.786 -0.8180  0.8150  0.4511
16259TIP3    H270193   2.953   6.078   0.675  0.9387  0.2516  1.4579
16260TIP3   OH270194   0.356   3.414   4.891  0.5167  0.2695 -0.2970
16260TIP3    H170195   0.322   3.457   4.970  1.3073  0.0118  0.2004
16260TIP3    H270196   0.394   3.332   4.923 -0.0622 -0.3234 -1.0908
16261TIP3   OH270197   4.030   6.635   1.564 -0.3271 -0.5798  0.5003
16261TIP3    H170198   4.036   6.568   1.632 -0.9473 -0.2636  0.8686
16261TIP3    H270199   3.937   6.640   1.543 -0.2086 -0.2731  0.0314
16262TIP3   OH270200   3.660   5.196  13.688  0.5230  0.4456  0.0727
16262TIP3    H170201   3.611   5.114  13.695 -0.5276  1.1178  0.8085
16262TIP3    H270202   3.595   5.265  13.703  0.7479  1.5917 -3.2849
16263TIP3   OH270203   3.789   0.521   3.683  0.4291 -0.0799 -0.1097
16263TIP3    H170204   3.803   0.551   3.593  0.4073  0.1225 -0.0481
16263TIP3    H270205   3.854   0.570   3.734  1.8614 -1.7202 -0.2859
16264TIP3   OH270206   2.609   5.326  16.551 -0.3568  0.5207 -0.5625
16264TIP3    H170207   2.657   5.384  16.493  2.3730 -1.8881 -0.9677
16264TIP3    H270208   2.649   5.339  16.637 -0.3289 -0.1035 -0.4768
16265TIP3   OH270209   2.972   0.634  12.633  0.1585  0.0243  0.3775
16265TIP3    H170210   2.982   0.617  12.539 -0.5611 -0.5568  0.3971
16265TIP3    H270211   2.907   0.571  12.662  0.0567  0.4858  1.1896
16266TIP3   OH270212   6.373   6.578  15.909  0.7524  0.6881 -0.1629
16266TIP3    H170213   6.401   6.545  15.824  0.6368 -1.6371  0.6326
16266TIP3    H270214   6.390   6.672  15.905  2.4703  0.3704 -2.0691
16267TIP3   OH270215   1.892   5.006  12.292  0.0562 -0.1051 -0.0109
16267TIP3    H170216   1.953   4.958  12.235  0.8328  1.3188 -0.4192
16267TIP3    H270217   1.917   4.979  12.381  0.1170 -0.8572 -0.2493
16268TIP3   OH270218   4.431   5.688   6.075  0.0693  0.3154  0.3963
16268TIP3    H170219   4.463   5.643   6.153 -1.2013  0.0965  0.8113
16268TIP3    H270220   4.485   5.767   6.070  1.3054 -0.4946  0.5125
16269TIP3   OH270221   4.194   1.416   2.979  0.1327  0.5735  0.4526
16269TIP3    H170222   4.190   1.498   2.931 -0.5547  0.5131  0.3855
16269TIP3    H270223   4.151   1.353   2.921  0.5167  0.2015  0.5682
16270TIP3   OH270224   1.846   3.580  14.838 -0.1056 -0.2318  0.3372
16270TIP3    H170225   1.752   3.585  14.857  0.2918  1.8872  2.2615
16270TIP3    H270226   1.852   3.595  14.744 -1.6551  0.9494  0.3708
16271TIP3   OH270227   4.639   3.680  11.380  0.2576 -0.5452 -0.8215
16271TIP3    H170228   4.731   3.704  11.381 -0.1203  1.2525 -2.4272
16271TIP3    H270229   4.637   3.586  11.397  2.2470 -0.3469  0.8074
16272TIP3   OH270230   0.228   2.097  12.227 -0.3578 -0.3465  0.3713
16272TIP3    H170231   0.243   2.154  12.152  0.9285  0.4862  1.2154
16272TIP3    H270232   0.203   2.157  12.298  0.6705 -0.8459  1.1874
16273TIP3   OH270233   1.727   2.193  11.020  0.6060 -0.0660  0.3837
16273TIP3    H170234   1.754   2.101  11.020  0.0268 -0.2528  1.1129
16273TIP3    H270235   1.635   2.190  10.992  0.8604  0.3909 -0.5194
16274TIP3   OH270236   2.314   5.168  11.636  1.0281  0.3163  0.5333
16274TIP3    H170237   2.365   5.240  11.600  1.5002 -0.5677 -0.6372
16274TIP3    H270238   2.246   5.210  11.689  2.0965  1.5567  0.9689
16275TIP3   OH270239   5.883   0.817   3.945 -0.3234  0.1601  0.1141
16275TIP3    H170240   5.925   0.771   4.017 -0.9889 -1.5577 -0.5377
16275TIP3    H270241   5.806   0.858   3.984  0.4192  0.9695  0.7555
16276TIP3   OH270242   4.500   0.560   0.792 -0.0303 -0.2213  0.4667
16276TIP3    H170243   4.476   0.495   0.726  0.3081 -0.6678  0.7770
16276TIP3    H270244   4.445   0.539   0.868 -3.2371  2.5713 -0.8092
16277TIP3   OH270245   3.910   3.634  11.334  0.1252  0.1724  0.2637
16277TIP3    H170246   3.949   3.558  11.290  1.7185  0.7369  0.6336
16277TIP3    H270247   3.817   3.631  11.310  0.7257 -0.0958 -2.3315
16278TIP3   OH270248   3.150   3.631   0.264 -0.2670 -0.3769  0.1967
16278TIP3    H170249   3.090   3.618   0.191 -0.0088 -0.0842 -0.0645
16278TIP3    H270250   3.184   3.543   0.283 -1.7511 -0.7661  1.1900
16279TIP3   OH270251   1.949   2.235  11.745 -0.1888  0.8078 -0.3416
16279TIP3    H170252   2.042   2.242  11.723 -0.2328 -0.4721 -0.9942
16279TIP3    H270253   1.941   2.281  11.829  0.7202  2.3277 -1.0548
16280TIP3   OH270254   1.667   6.527  14.222 -0.5893  0.1830  0.1865
16280TIP3    H170255   1.698   6.495  14.138 -1.2889  0.2520 -0.1025
16280TIP3    H270256   1.743   6.520  14.280 -0.5023 -1.2651 -0.0624
16281TIP3   OH270257   5.863   1.876  11.698 -0.2185  0.3166  0.5402
16281TIP3    H170258   5.779   1.896  11.656 -0.3383 -0.8645  0.1705
16281TIP3    H270259   5.912   1.958  11.694 -1.1643  0.8902  0.3088
16282TIP3   OH270260   0.275   4.495   1.568  0.4356 -0.4718 -0.3149
16282TIP3    H170261   0.273   4.554   1.643  1.0149 -0.6461 -0.1584
16282TIP3    H270262   0.227   4.541   1.500  0.4301 -0.0505 -0.0278
16283TIP3   OH270263   1.756   6.161   4.375 -0.8441  0.0741 -0.3671
16283TIP3    H170264   1.691   6.090   4.378  0.1272 -0.8358 -0.2313
16283TIP3    H270265   1.736   6.207   4.294 -1.5459 -0.3052 -0.4252
16284TIP3   OH270266   1.406   6.455  11.919  0.3815  0.4646 -0.0844
16284TIP3    H170267   1.495   6.430  11.942 -0.0717 -1.1520  0.0651
16284TIP3    H270268   1.361   6.465  12.003 -0.2033 -1.2877 -0.1436
16285TIP3   OH270269   4.788   5.229  16.671 -0.1384  0.2675 -0.6870
16285TIP3    H170270   4.835   5.281  16.736  0.4459 -2.2908  1.0948
16285TIP3    H270271   4.697   5.257  16.679 -0.1944 -0.4048  1.7725
16286TIP3   OH270272   4.219   5.581  15.711  0.3754 -0.3004  0.3006
16286TIP3    H170273   4.268   5.541  15.639 -0.2251 -1.3364  0.4531
16286TIP3    H270274   4.147   5.520  15.728 -0.8384  1.0809  0.2395
16287TIP3   OH270275   3.389   2.596  16.976 -0.5201 -0.5365 -0.0549
16287TIP3    H170276   3.315   2.564  16.926 -1.6331  1.5258  0.1503
16287TIP3    H270277   3.351   2.631  17.057  0.3010  2.4951 -0.8372
16288TIP3   OH270278   1.848   1.264   6.231  0.4049 -0.0242  0.1963
16288TIP3    H170279   1.795   1.197   6.275 -1.9630  0.1147 -2.1909
16288TIP3    H270280   1.877   1.221   6.150  0.4688  1.2336 -0.4621
16289TIP3   OH270281   6.408   1.297   5.162 -0.0129 -0.5383  0.5518
16289TIP3    H170282   6.458   1.317   5.082  1.6619 -0.2650  1.6296
16289TIP3    H270283   6.445   1.355   5.228 -0.2125 -1.9400  1.9408
16290TIP3   OH270284   2.884   1.160  11.668 -0.5113 -0.2769 -0.7327
16290TIP3    H170285   2.803   1.208  11.682  0.3151  0.7236  0.9296
16290TIP3    H270286   2.890   1.149  11.573 -0.3830  3.6345 -1.3249
16291TIP3   OH270287   6.571   5.108   3.980  0.2999 -0.0337 -0.2223
16291TIP3    H170288   6.501   5.071   4.033  0.1814  1.2597  0.5573
16291TIP3    H270289   6.618   5.166   4.039  0.3757  1.1797 -1.4219
16292TIP3   OH270290   0.656   4.792   3.926  0.4819  0.2029  0.3938
16292TIP3    H170291   0.678   4.866   3.983  1.3805 -0.0032  0.3257
16292TIP3    H270292   0.613   4.832   3.851  1.5031  0.7379  0.0717
16293TIP3   OH270293   2.266   0.538   0.613  0.3352 -0.0339 -0.5959
16293TIP3    H170294   2.198   0.535   0.546 -0.3441 -1.6597  0.1116
16293TIP3    H270295   2.252   0.620   0.659 -0.0161  0.4764 -1.5949
16294TIP3   OH270296   4.654   0.242  14.895  0.1451 -0.4221 -0.1805
16294TIP3    H170297   4.727   0.303  14.887  0.6763 -1.1318 -0.8283
16294TIP3    H270298   4.664   0.182  14.822  0.2013 -1.9055  1.0000
16295TIP3   OH270299   6.150   1.442  14.300  0.1166 -0.1371  0.3229
16295TIP3    H170300   6.133   1.353  14.328  1.6334 -0.2393  1.0281
16295TIP3    H270301   6.147   1.494  14.380 -0.5472  0.4331 -0.0531
16296TIP3   OH270302   4.663   0.476  11.930  0.2063  0.0764 -0.1659
16296TIP3    H170303   4.725   0.494  12.000 -0.1792 -2.1562  0.8265
16296TIP3    H270304   4.707   0.413  11.873  0.0630  0.9715 -1.3224
16297TIP3   OH270305   1.956   0.894  14.503 -0.1290  0.2692  0.1527
16297TIP3    H170306   1.908   0.819  14.537  0.2510 -0.0851 -0.0812
16297TIP3    H270307   1.962   0.878  14.409  0.7637  0.1156  0.2201
16298TIP3   OH270308   3.514   3.453  12.791  0.7743  0.0422 -0.1099
16298TIP3    H170309   3.566   3.491  12.720  2.2973  0.7438  1.3106
16298TIP3    H270310   3.577   3.440  12.862 -0.4432 -1.8471  0.6850
16299TIP3   OH270311   3.445   4.867   3.436 -0.4580 -0.7184 -0.3895
16299TIP3    H170312   3.443   4.958   3.465 -0.6015 -0.7176 -0.4008
16299TIP3    H270313   3.449   4.816   3.517  0.7591 -0.6750 -0.4085
16300TIP3   OH270314   4.690   3.944  14.742 -0.4412  0.1195 -0.1411
16300TIP3    H170315   4.736   3.860  14.739 -0.6701 -0.0208  0.1894
16300TIP3    H270316   4.645   3.944  14.826  0.8827  1.3023  0.6038
16301TIP3   OH270317   2.621   4.646  14.097 -0.8724 -0.4380 -0.1314
16301TIP3    H170318   2.705   4.691  14.093 -0.5686 -0.9451  0.4581
16301TIP3    H270319   2.618   4.591  14.019 -0.3107 -1.0182  0.2529
16302TIP3   OH270320   3.562   0.157  17.336  0.1837  0.1662  0.1235
16302TIP3    H170321   3.632   0.222  17.327 -0.8229  1.4989  1.5106
16302TIP3    H270322   3.561   0.112  17.252  2.2447  0.5574 -0.1835
16303TIP3   OH270323   0.122   4.855   3.223  0.5892 -0.2038  0.3820
16303TIP3    H170324   0.033   4.844   3.258  1.1702 -1.3491  1.6170
16303TIP3    H270325   0.117   4.933   3.168 -1.3725 -0.7015 -0.2325
16304TIP3   OH270326   4.289   0.060  10.681  0.3510 -0.2091 -0.2956
16304TIP3    H170327   4.374   0.046  10.640  0.1696 -1.5220 -0.2750
16304TIP3    H270328   4.282   0.155  10.692  2.2962 -0.1382  0.7620
16305TIP3   OH270329   4.933   3.359  15.550 -0.3978 -0.1991  0.3846
16305TIP3    H170330   4.901   3.447  15.530  1.5781 -0.0008 -2.5305
16305TIP3    H270331   4.861   3.301  15.524 -0.4356  0.4487 -1.0653
16306TIP3   OH270332   1.974   1.207  11.778  0.0515 -0.3932  0.4110
16306TIP3    H170333   2.013   1.291  11.802  1.2664 -0.1685 -2.0730
16306TIP3    H270334   1.885   1.229  11.748 -0.5199 -0.3580  2.0275
16307TIP3   OH270335   0.042   2.025   5.143 -0.8285 -0.2703 -0.2025
16307TIP3    H170336   0.075   1.950   5.093 -2.7209 -0.7880 -0.7474
16307TIP3    H270337  -0.014   2.072   5.081  0.6963  1.9309 -0.0314
16308TIP3   OH270338   1.012   0.731  13.076  0.2483  0.0985  0.4282
16308TIP3    H170339   0.962   0.785  13.137 -0.2417 -1.3952  1.4308
16308TIP3    H270340   1.102   0.763  13.083  0.0445  0.4949  1.3316
16309TIP3   OH270341   4.136   2.120  15.175  0.0524  0.0219 -0.0564
16309TIP3    H170342   4.223   2.087  15.154  0.0301  0.1298 -0.3280
16309TIP3    H270343   4.135   2.125  15.271 -0.0494 -1.0251  0.0083
16310TIP3   OH270344   0.542   6.350   6.863  0.5202 -0.3286  0.3709
16310TIP3    H170345   0.564   6.415   6.930 -4.2898  0.2054  1.8299
16310TIP3    H270346   0.541   6.267   6.910 -2.7991  0.0391  1.2197
16311TIP3   OH270347   6.574   5.446   5.859  0.2934 -0.3265 -0.5548
16311TIP3    H170348   6.653   5.392   5.870  0.2927 -0.3638 -0.7288
16311TIP3    H270349   6.561   5.451   5.764 -0.1568 -0.6761 -0.5157
16312TIP3   OH270350   3.608   2.343   2.010  0.0116 -0.0007  0.9836
16312TIP3    H170351   3.585   2.397   2.086 -2.4056  2.2403 -1.1726
16312TIP3    H270352   3.671   2.396   1.961 -0.3853 -0.2931  0.1427
16313TIP3   OH270353   2.313   1.918   0.583 -0.3465  0.0936 -0.0617
16313TIP3    H170354   2.292   1.939   0.492 -0.7248  0.5660  0.1291
16313TIP3    H270355   2.365   1.993   0.614  0.0856 -0.2301  0.0077
16314TIP3   OH270356   1.302   1.862   0.824 -0.5991 -0.2329  0.0492
16314TIP3    H170357   1.297   1.776   0.865  0.6174 -0.0322  0.6542
16314TIP3    H270358   1.395   1.879   0.812 -0.7943  1.1074  0.1704
16315TIP3   OH270359   1.396   3.849   3.642 -0.1675 -0.2291  0.2708
16315TIP3    H170360   1.423   3.778   3.585  0.9799  0.4006  0.0051
16315TIP3    H270361   1.470   3.863   3.701  0.6335  2.2470 -1.1810
16316TIP3   OH270362   6.247   4.569   3.949  0.3193  0.2014 -0.0394
16316TIP3    H170363   6.176   4.512   3.920  0.1239  0.6931 -0.5530
16316TIP3    H270364   6.274   4.533   4.033  0.2550 -0.6913 -0.3909
16317TIP3   OH270365   6.612   4.902   1.770  0.1284 -0.7131  0.1029
16317TIP3    H170366   6.604   4.985   1.816 -1.7470 -1.2388  0.8070
16317TIP3    H270367   6.637   4.927   1.680  2.4495  0.3836  0.9623
16318TIP3   OH270368   4.754   3.866  15.882  0.3179  0.7334  0.4091
16318TIP3    H170369   4.716   3.924  15.816 -1.0672 -0.3562  0.2077
16318TIP3    H270370   4.830   3.827  15.838  1.4183  2.5343  0.6364
16319TIP3   OH270371   2.031   6.232  16.678 -0.5673 -0.7561  0.6192
16319TIP3    H170372   2.095   6.227  16.749  0.3551  0.3941 -0.0989
16319TIP3    H270373   2.039   6.147  16.634  1.3428 -0.2500 -0.1471
16320TIP3   OH270374   3.324   6.676   3.456 -0.3005  0.1643  0.1911
16320TIP3    H170375   3.388   6.661   3.387  0.0339 -0.6612  0.6618
16320TIP3    H270376   3.373   6.662   3.537 -0.4058  2.2102  0.6469
16321TIP3   OH270377   3.308   4.399   1.063 -0.2791 -0.3356  0.1255
16321TIP3    H170378   3.222   4.441   1.071 -0.1951 -0.0202 -0.5843
16321TIP3    H270379   3.287   4.308   1.040 -0.4537 -0.6703  1.5168
16322TIP3   OH270380   1.829   4.032  14.196 -0.2989 -0.1822 -0.5770
16322TIP3    H170381   1.829   4.118  14.237  4.0587  1.4633 -3.3143
16322TIP3    H270382   1.875   3.976  14.259 -1.5574 -0.1267  0.4402
16323TIP3   OH270383   1.960   3.288  11.506  0.3198 -0.2303 -0.4586
16323TIP3    H170384   1.914   3.276  11.423 -0.2264  1.6302 -0.4766
16323TIP3    H270385   2.053   3.281  11.484  0.1626 -0.4004 -1.0970
16324TIP3   OH270386   4.436   3.396   0.222 -0.4916 -0.3775  0.4340
16324TIP3    H170387   4.479   3.342   0.288  1.7126  1.7404  0.8654
16324TIP3    H270388   4.416   3.335   0.150  1.8975 -1.7790  0.8539
16325TIP3   OH270389   3.776   5.871   0.648  0.1027  0.0193 -0.0304
16325TIP3    H170390   3.850   5.920   0.682  0.4481 -1.4005  1.3746
16325TIP3    H270391   3.757   5.805   0.715 -1.2114 -0.8858 -1.2128
16326TIP3   OH270392   0.252   0.067  14.186  0.1493 -0.1786 -0.2426
16326TIP3    H170393   0.214   0.153  14.200  0.1099 -0.2612  0.1862
16326TIP3    H270394   0.315   0.079  14.115 -0.1072  0.1254 -0.4155
16327TIP3   OH270395   1.095   3.181  15.935 -0.1494 -0.0941  0.5319
16327TIP3    H170396   1.071   3.212  15.848 -0.4607 -1.6835  0.0250
16327TIP3    H270397   1.189   3.163  15.930  0.1179  1.0946  0.9482
16328TIP3   OH270398   1.188   2.045   3.647  0.1404  0.5609  0.1876
16328TIP3    H170399   1.156   2.060   3.558 -0.3227  1.9461  0.5724
16328TIP3    H270400   1.279   2.018   3.635  0.8795  3.1842 -0.6211
16329TIP3   OH270401   4.826   5.821   3.755 -0.3409 -0.4336 -0.4852
16329TIP3    H170402   4.910   5.862   3.775 -0.0616 -1.4795  0.6633
16329TIP3    H270403   4.776   5.828   3.835 -0.4939 -1.7777 -0.4326
16330TIP3   OH270404   6.300   5.345  17.338 -0.4273 -0.4473 -0.8216
16330TIP3    H170405   6.279   5.433  17.369  0.7925 -0.1795 -0.7213
16330TIP3    H270406   6.232   5.290  17.377  0.1614  0.0992  1.0720
16331TIP3   OH270407   2.710   4.309   2.756 -0.4439 -0.3314 -0.3687
16331TIP3    H170408   2.780   4.245   2.763 -0.1682 -0.0699 -0.6971
16331TIP3    H270409   2.714   4.340   2.666 -2.0825 -1.5466 -0.8992
16332TIP3   OH270410   2.597   0.778  13.693  0.3515 -0.1243 -0.0388
16332TIP3    H170411   2.687   0.803  13.711 -0.0780  1.3206  0.2083
16332TIP3    H270412   2.590   0.779  13.597  0.3927  0.5597 -0.0383
16333TIP3   OH270413   2.784   4.358  14.770  0.2429  0.1406  0.1001
16333TIP3    H170414   2.726   4.316  14.834  0.3347 -1.3160 -0.7140
16333TIP3    H270415   2.748   4.445  14.758 -2.1871 -0.9028 -0.8215
16334TIP3   OH270416   3.258   4.704  11.046  0.3532 -0.4175 -0.3572
16334TIP3    H170417   3.180   4.696  11.100  0.7940 -1.9769  0.0908
16334TIP3    H270418   3.276   4.798  11.043 -0.1312 -0.2405  1.5451
16335TIP3   OH270419   3.330   4.440  13.452  0.2206  0.7120 -0.2532
16335TIP3    H170420   3.364   4.507  13.512  1.2709  0.4406 -0.5242
16335TIP3    H270421   3.301   4.369  13.510 -2.4149  2.0033  0.1415
16336TIP3   OH270422   4.147   1.236  15.775 -0.2834 -0.5208  0.1038
16336TIP3    H170423   4.171   1.325  15.749 -0.0896 -0.2565  1.1391
16336TIP3    H270424   4.163   1.233  15.870 -0.1560 -1.7008  0.0651
16337TIP3   OH270425   3.926   6.215  12.706 -0.4831 -0.0522  0.5706
16337TIP3    H170426   3.965   6.280  12.764  0.5420  1.4330 -1.6599
16337TIP3    H270427   3.910   6.262  12.624 -0.8601 -2.3010 -0.7283
16338TIP3   OH270428   2.152   6.604  14.482  0.6344  0.0212  0.1871
16338TIP3    H170429   2.107   6.563  14.555 -1.1330 -1.3436 -1.5571
16338TIP3    H270430   2.238   6.563  14.480  0.7238  0.1133  1.4990
16339TIP3   OH270431   6.354   1.297   1.683  0.4357 -0.2571 -0.3578
16339TIP3    H170432   6.351   1.297   1.779  1.1355 -0.2185 -0.3307
16339TIP3    H270433   6.408   1.221   1.660  0.8149  0.1095 -0.6981
16340TIP3   OH270434   5.261   1.758   4.403 -0.3358  0.2185 -0.4166
16340TIP3    H170435   5.294   1.808   4.478  1.9563 -1.4139 -0.2334
16340TIP3    H270436   5.278   1.667   4.426 -3.2306 -0.6321 -1.2838
16341TIP3   OH270437   0.766   6.027  16.995 -0.5471  0.0575  0.2574
16341TIP3    H170438   0.711   6.008  17.071  0.2400 -0.0019  0.8241
16341TIP3    H270439   0.705   6.026  16.921 -1.3988  0.5078  0.9249
16342TIP3   OH270440   1.698   0.010  12.943  0.7340  0.2697  0.3365
16342TIP3    H170441   1.726   0.041  13.029  1.0143  1.3187 -0.1169
16342TIP3    H270442   1.752   0.059  12.881 -0.0791  0.1705 -0.4678
16343TIP3   OH270443   4.067   4.160  11.148  0.3199 -0.2294 -0.0209
16343TIP3    H170444   3.989   4.208  11.117  0.8104  0.1587 -0.6798
16343TIP3    H270445   4.115   4.225  11.200  1.5162  0.3425 -1.7739
16344TIP3   OH270446   3.636   1.123  17.027  0.1130  0.2973 -0.3314
16344TIP3    H170447   3.603   1.144  17.114  3.3146  0.8015  0.9156
16344TIP3    H270448   3.591   1.185  16.969  0.7933  2.7583  1.5905
16345TIP3   OH270449   1.660   0.441   1.898 -0.1607 -0.4921 -0.8555
16345TIP3    H170450   1.581   0.496   1.892 -0.6382 -1.1717 -0.9605
16345TIP3    H270451   1.689   0.431   1.807  0.1880 -0.0537 -0.7970
16346TIP3   OH270452   0.615   5.677   1.218  0.2028  0.2689 -0.1215
16346TIP3    H170453   0.634   5.612   1.151 -0.0236  0.9180 -0.8299
16346TIP3    H270454   0.532   5.650   1.256 -1.1733  1.4379 -2.1018
16347TIP3   OH270455   3.545   5.681   4.569 -0.1349 -0.3963  0.0113
16347TIP3    H170456   3.565   5.772   4.593 -0.1126 -0.5149  0.4629
16347TIP3    H270457   3.550   5.679   4.474 -3.7601  0.9510 -0.3665
16348TIP3   OH270458   0.962   3.753   5.419  0.3753  0.7065 -0.2337
16348TIP3    H170459   1.040   3.706   5.448  0.1612 -0.5651 -1.5828
16348TIP3    H270460   0.889   3.707   5.460  0.2435  0.8791 -0.2737
16349TIP3   OH270461   4.431   6.616   3.600 -0.1863  0.2953 -0.2446
16349TIP3    H170462   4.484   6.685   3.559  0.2730 -0.1131 -0.3483
16349TIP3    H270463   4.462   6.612   3.690 -1.8634  1.8622  0.4607
16350TIP3   OH270464   2.265   1.325  14.106 -0.1634  0.1074  0.2600
16350TIP3    H170465   2.211   1.327  14.184  0.3548 -0.0404  0.6325
16350TIP3    H270466   2.355   1.315  14.139  0.0084 -0.5444 -0.3658
16351TIP3   OH270467   5.740   3.488   5.949  0.3760 -0.2385  0.0329
16351TIP3    H170468   5.728   3.474   5.856  0.0195  0.1880  0.0152
16351TIP3    H270469   5.825   3.447   5.969  0.6098 -0.0283 -0.5374
16352TIP3   OH270470   2.047   6.281  14.544  0.1370 -0.4963 -0.1843
16352TIP3    H170471   2.096   6.205  14.576  1.4590 -0.2722 -1.5918
16352TIP3    H270472   1.955   6.254  14.551  0.5799 -2.3518 -0.9365
16353TIP3   OH270473   6.412   2.290   4.236  0.4011  0.4553  0.7583
16353TIP3    H170474   6.366   2.209   4.257  0.6403  0.2642  0.5576
16353TIP3    H270475   6.369   2.323   4.157  0.6469  0.2401  0.5306
16354TIP3   OH270476   6.014   3.351  12.082 -0.1553  0.2978  0.6773
16354TIP3    H170477   6.104   3.350  12.114  0.2461 -0.9800 -0.3924
16354TIP3    H270478   5.981   3.438  12.104  1.3752  0.8140  0.9999
16355TIP3   OH270479   5.465   6.593   5.811 -0.2312 -0.4214 -0.2386
16355TIP3    H170480   5.475   6.526   5.878 -0.2402 -0.0943  0.0923
16355TIP3    H270481   5.386   6.568   5.763  0.3298 -1.2074 -0.7715
16356TIP3   OH270482   5.552   6.319  17.400  0.3934  0.1472  0.4449
16356TIP3    H170483   5.494   6.248  17.427 -1.1364  0.5446 -1.5232
16356TIP3    H270484   5.507   6.398  17.429  0.2768  0.4284 -0.4621
16357TIP3   OH270485   0.603   5.552   4.533 -0.1118  0.6617  0.4466
16357TIP3    H170486   0.555   5.496   4.472 -0.6160  1.3276  0.2109
16357TIP3    H270487   0.688   5.568   4.490 -0.0925  0.3412  0.3685
16358TIP3   OH270488   1.821   3.577  14.533  0.1351  0.1145 -0.1878
16358TIP3    H170489   1.767   3.642  14.488  0.3482  1.4639  1.3844
16358TIP3    H270490   1.782   3.493  14.510 -0.9232  0.8713 -1.2917
16359TIP3   OH270491   0.405   0.600   6.074 -0.0090 -0.2150 -1.0723
16359TIP3    H170492   0.463   0.672   6.097 -0.5307 -0.7454  2.6836
16359TIP3    H270493   0.435   0.527   6.129 -2.0676 -1.5501 -1.5962
16360TIP3   OH270494   2.846   3.613   3.142 -0.5976  0.3487  0.4804
16360TIP3    H170495   2.854   3.609   3.047 -0.9708  0.3430  0.4446
16360TIP3    H270496   2.752   3.628   3.157 -0.4099  1.2106  0.8268
16361TIP3   OH270497   0.741   1.512  11.984 -0.5779  0.3450  0.1560
16361TIP3    H170498   0.668   1.451  11.976 -0.2960 -0.1128  0.9933
16361TIP3    H270499   0.732   1.570  11.908 -1.5896  0.0637  0.0489
16362TIP3   OH270500   4.220   5.807  14.766  0.2576 -0.1557 -0.4277
16362TIP3    H170501   4.294   5.818  14.706  3.5833 -1.0559  3.0957
16362TIP3    H270502   4.253   5.747  14.833 -3.2300  0.5333  2.1755
16363TIP3   OH270503   2.319   1.749  11.091  0.2430 -0.0204  0.3202
16363TIP3    H170504   2.387   1.686  11.067 -0.1572 -0.3018 -0.0773
16363TIP3    H270505   2.368   1.828  11.116  0.6902  0.3520 -1.5798
16364TIP3   OH270506   3.722   3.517  15.141 -0.5997  0.0431 -0.5681
16364TIP3    H170507   3.741   3.579  15.070  0.5069  0.0109 -0.3149
16364TIP3    H270508   3.660   3.455  15.102 -0.0620  0.0625 -1.5031
16365TIP3   OH270509   1.930   4.866   4.308 -0.0870 -0.2044  0.3438
16365TIP3    H170510   1.873   4.903   4.376 -1.6417  0.0719 -1.0423
16365TIP3    H270511   1.934   4.934   4.241  1.1958 -0.5860  0.0089
16366TIP3   OH270512   1.969   1.514   4.982 -0.0430 -0.1683 -0.4956
16366TIP3    H170513   1.905   1.493   4.914  0.4740 -0.3179 -0.9478
16366TIP3    H270514   1.997   1.429   5.016  1.4235 -0.2396 -1.7374
16367TIP3   OH270515   0.958   4.936  16.897  0.6950 -0.1707  1.0210
16367TIP3    H170516   0.914   4.916  16.979 -1.9195  0.5166 -0.1312
16367TIP3    H270517   1.006   5.017  16.914 -0.5137  0.4317  1.6629
16368TIP3   OH270518   6.584   5.491  15.046  0.3756  0.3694  0.2418
16368TIP3    H170519   6.490   5.511  15.045  0.7795  2.5612 -1.7042
16368TIP3    H270520   6.595   5.423  14.979  0.2132  0.2069  0.3772
16369TIP3   OH270521   6.467   4.359   2.686 -0.4932 -0.1361 -0.2647
16369TIP3    H170522   6.459   4.454   2.678  0.6883  0.4164  3.2967
16369TIP3    H270523   6.512   4.332   2.606 -1.8384  2.0941 -1.8818
16370TIP3   OH270524   3.360   0.305   0.380 -0.2327  0.0913  0.2955
16370TIP3    H170525   3.358   0.242   0.453 -1.1518 -0.0496  0.1573
16370TIP3    H270526   3.311   0.262   0.310  0.9623  0.0708 -0.5502
16371TIP3   OH270527   1.300   5.581   3.143 -0.2132  0.5910 -0.6491
16371TIP3    H170528   1.287   5.489   3.165 -0.4415  0.6113 -0.6935
16371TIP3    H270529   1.373   5.582   3.082  1.9618  0.7260  1.7800
16372TIP3   OH270530   6.038   2.381   3.268  0.3537 -0.1592  0.2173
16372TIP3    H170531   5.952   2.382   3.226  1.4153  1.1619 -2.0562
16372TIP3    H270532   6.064   2.289   3.267  0.0192 -0.2640 -1.4234
16373TIP3   OH270533   4.051   3.401   2.596  0.3810  0.4014 -0.2310
16373TIP3    H170534   4.129   3.440   2.634  0.1811  0.6467 -0.0722
16373TIP3    H270535   3.995   3.476   2.574  0.0162  0.2057  0.0334
16374TIP3   OH270536   6.563   6.145   2.328 -0.1106  0.3023 -0.3817
16374TIP3    H170537   6.486   6.202   2.334  0.4324  1.6474 -3.9676
16374TIP3    H270538   6.532   6.069   2.278  0.1114 -0.8273  1.1377
16375TIP3   OH270539   0.443   2.680   3.750  0.2999  0.1440  0.1995
16375TIP3    H170540   0.399   2.672   3.835 -0.1618  3.1525  0.3408
16375TIP3    H270541   0.396   2.619   3.693 -0.8833 -0.2454  1.5343
16376TIP3   OH270542   5.120   4.766  15.852  0.0444 -0.7317  0.0810
16376TIP3    H170543   5.159   4.703  15.792  0.2565  0.2797 -0.8808
16376TIP3    H270544   5.151   4.851  15.821 -1.4370 -0.0331  0.4102
16377TIP3   OH270545   0.806   4.508  12.760 -0.0638  0.4567 -0.2491
16377TIP3    H170546   0.818   4.567  12.686 -0.3350  0.8200 -0.0059
16377TIP3    H270547   0.785   4.423  12.720  0.3655  0.5173 -0.5981
16378TIP3   OH270548   4.198   0.145   2.690  0.9000 -0.2914 -0.7799
16378TIP3    H170549   4.194   0.185   2.603 -0.5939 -0.4225 -0.7887
16378TIP3    H270550   4.280   0.177   2.727  1.3922  0.0349 -2.1061
16379TIP3   OH270551   5.572   3.643  16.659 -0.2433 -0.6075  0.6106
16379TIP3    H170552   5.632   3.605  16.595  0.6967  0.6802  0.6881
16379TIP3    H270553   5.492   3.592  16.650  0.5338 -1.7383 -0.1845
16380TIP3   OH270554   2.269   1.969   0.997 -0.1762  0.6688 -0.2720
16380TIP3    H170555   2.211   1.894   0.981  0.1483  0.5973 -1.1718
16380TIP3    H270556   2.354   1.941   0.961  0.3334  0.9084  0.7040
16381TIP3   OH270557   2.427   5.632   0.030 -0.2515  0.1333 -0.2608
16381TIP3    H170558   2.506   5.584   0.052  0.3611  1.7542  1.3111
16381TIP3    H270559   2.395   5.590  -0.050  2.9977  0.3255 -1.8212
16382TIP3   OH270560   0.278   5.253  16.780  0.1777 -0.0596 -0.2602
16382TIP3    H170561   0.279   5.163  16.812  0.2983 -0.3976 -1.2040
16382TIP3    H270562   0.333   5.252  16.702 -1.5237  0.3542 -1.5228
16383TIP3   OH270563   2.168   1.405   6.104  0.2427 -0.8101 -0.1970
16383TIP3    H170564   2.107   1.452   6.047 -0.3955 -0.7822  0.4886
16383TIP3    H270565   2.179   1.319   6.062 -0.3850 -0.8650 -0.2605
16384TIP3   OH270566   1.432   5.049   0.868 -0.4903  0.0479  0.5635
16384TIP3    H170567   1.430   5.028   0.775  0.1026  0.4488  0.4505
16384TIP3    H270568   1.378   4.982   0.910  1.3958 -1.7816  0.2423
16385TIP3   OH270569   5.747   4.528   5.357 -0.3153  0.0249 -0.1218
16385TIP3    H170570   5.805   4.601   5.334 -0.3248  0.5117  1.3402
16385TIP3    H270571   5.730   4.540   5.450  0.1325 -2.1618  0.2824
16386TIP3   OH270572   2.593   1.778   4.758  0.0764  0.0737 -0.2226
16386TIP3    H170573   2.643   1.856   4.783  1.0013 -0.8321  0.8443
16386TIP3    H270574   2.504   1.810   4.744  0.0816  1.0865  1.7488
16387TIP3   OH270575   5.523   1.296  15.140 -0.1334 -0.3719  0.1300
16387TIP3    H170576   5.490   1.386  15.143  0.2991 -0.2208  0.4922
16387TIP3    H270577   5.618   1.306  15.143 -0.0626 -0.8175 -0.5002
16388TIP3   OH270578   4.373   0.283   4.229  0.2497 -0.4071 -0.6473
16388TIP3    H170579   4.442   0.253   4.287 -1.0958  2.2370  2.6685
16388TIP3    H270580   4.301   0.223   4.243  0.8414 -1.4567 -1.8940
16389TIP3   OH270581   3.412   6.169   4.918  0.3482 -0.0999  0.4243
16389TIP3    H170582   3.420   6.252   4.871 -0.7337 -1.3754 -2.2004
16389TIP3    H270583   3.318   6.156   4.928  0.5247 -0.6192  1.6084
16390TIP3   OH270584   3.229   1.141  14.633 -0.3175 -0.1323  0.3028
16390TIP3    H170585   3.191   1.200  14.698 -0.2311 -2.1641  2.3270
16390TIP3    H270586   3.220   1.054  14.672  1.7030 -1.2264 -1.4777
16391TIP3   OH270587   3.593   6.156  16.405 -0.2012  0.2799  0.2515
16391TIP3    H170588   3.584   6.073  16.358  1.0139  0.3632 -0.1768
16391TIP3    H270589   3.504   6.178  16.434 -0.7618 -0.4604 -0.8440
16392TIP3   OH270590   2.010   1.340   4.733 -0.1146  0.2626 -0.1579
16392TIP3    H170591   1.919   1.313   4.721 -0.1081  0.3051 -0.3105
16392TIP3    H270592   2.041   1.288   4.807 -0.2994  0.3357 -0.0275
16393TIP3   OH270593   0.201   5.584   5.178 -0.5722 -0.4084  1.0733
16393TIP3    H170594   0.130   5.648   5.183 -2.9773 -2.9368  2.7886
16393TIP3    H270595   0.190   5.543   5.092 -0.1600  0.2666  0.6946
16394TIP3   OH270596   5.786   3.024   2.454  0.3752 -0.3399 -0.2066
16394TIP3    H170597   5.813   2.937   2.482  1.4064  0.2090  0.5824
16394TIP3    H270598   5.691   3.018   2.445  0.1975 -1.0350  1.7423
16395TIP3   OH270599   6.000   4.450   4.276 -0.5014  0.1256  0.6017
16395TIP3    H170600   5.945   4.528   4.272 -0.2977  0.3691 -5.5419
16395TIP3    H270601   5.941   4.378   4.251  0.4914 -0.8058  0.8679
16396TIP3   OH270602   3.803   1.985  17.058 -0.2954 -0.3437  0.4026
16396TIP3    H170603   3.834   1.894  17.064  1.2602  0.0209 -1.3375
16396TIP3    H270604   3.878   2.034  17.026 -1.2392  1.5143  0.9168
16397TIP3   OH270605   5.356   4.359  15.780  0.4085  0.0881 -0.1099
16397TIP3    H170606   5.406   4.317  15.849  1.1121  0.1595 -0.5556
16397TIP3    H270607   5.274   4.384  15.821 -0.1374 -1.9129  0.1109
16398TIP3   OH270608   0.931   2.798   0.181 -0.0011  0.1756 -0.3231
16398TIP3    H170609   0.925   2.705   0.204  2.1459 -0.2383 -1.1601
16398TIP3    H270610   0.971   2.840   0.257  0.6120  0.0977 -0.6015
16399TIP3   OH270611   1.824   6.510  17.332 -0.8338  0.5006  0.1446
16399TIP3    H170612   1.757   6.555  17.280 -0.0296  3.1302  1.2340
16399TIP3    H270613   1.875   6.460  17.268  0.6683  4.2394 -1.9104
16400TIP3   OH270614   3.694   6.138   4.942 -0.3956  0.0600  0.2506
16400TIP3    H170615   3.601   6.134   4.921 -0.2057 -0.5907 -0.5269
16400TIP3    H270616   3.698   6.137   5.037 -1.2578  1.9547  0.3496
16401TIP3   OH270617   2.544   0.692  11.170 -0.2697 -0.0532  0.2883
16401TIP3    H170618   2.592   0.671  11.090 -1.8501  1.8420 -1.2514
16401TIP3    H270619   2.489   0.615  11.186  1.0578 -1.0168  0.3909
16402TIP3   OH270620   6.659   2.116  14.057 -0.2694 -0.2893 -0.0514
16402TIP3    H170621   6.689   2.030  14.028  0.8072 -0.6081  1.8635
16402TIP3    H270622   6.633   2.160  13.976  0.2865 -1.9643 -1.2097
16403TIP3   OH270623   4.476   4.410  12.390 -0.3317  0.1810  0.1602
16403TIP3    H170624   4.556   4.411  12.338 -0.1983  0.2839  0.3642
16403TIP3    H270625   4.471   4.497  12.429 -1.4148  0.7457 -1.1541
16404TIP3   OH270626   5.894   6.700  14.803  0.0115  0.0809 -0.2814
16404TIP3    H170627   5.886   6.778  14.748 -2.6413 -1.0858 -1.7157
16404TIP3    H270628   5.949   6.641  14.751 -0.2442 -0.0096 -0.4519
16405TIP3   OH270629   4.185   1.167  12.610 -0.5628 -0.5918 -0.0825
16405TIP3    H170630   4.159   1.136  12.524 -0.3350 -3.2036  0.7017
16405TIP3    H270631   4.276   1.194  12.600 -0.8618  0.1593 -0.8673
16406TIP3   OH270632   4.405   3.608  14.759 -0.3276  0.4545 -0.2326
16406TIP3    H170633   4.372   3.551  14.690  0.1345 -0.0356 -0.0548
16406TIP3    H270634   4.378   3.696  14.733  0.5848  0.3883 -1.4955
16407TIP3   OH270635   5.001   5.421  13.020  0.4308  0.2557  0.7249
16407TIP3    H170636   5.090   5.390  13.001 -0.3392 -0.5061 -2.2466
16407TIP3    H270637   5.014   5.500  13.072  2.7399 -0.9971  2.2326
16408TIP3   OH270638   2.465   1.931  11.172 -0.1679 -0.8081  0.2324
16408TIP3    H170639   2.541   1.938  11.114  1.0635 -0.3654  1.8423
16408TIP3    H270640   2.459   2.016  11.215 -1.6782 -0.7928  0.0527
16409TIP3   OH270641   6.670   6.151  16.542  0.1973 -0.3052 -0.1241
16409TIP3    H170642   6.640   6.228  16.495  0.4588  0.5050  0.9820
16409TIP3    H270643   6.766   6.157  16.541  0.2623 -1.2019 -0.9472
16410TIP3   OH270644   0.791   5.591  13.218 -0.2961  0.2313  0.4284
16410TIP3    H170645   0.843   5.541  13.281 -2.4481 -1.9461  0.6344
16410TIP3    H270646   0.829   5.571  13.133 -0.8941 -1.5558  0.5454
16411TIP3   OH270647   4.307   6.512  15.342 -0.4219 -0.1687 -0.3437
16411TIP3    H170648   4.281   6.600  15.314  0.2872 -0.2311 -1.2413
16411TIP3    H270649   4.401   6.517  15.357 -0.6441 -0.3472  1.3461
16412TIP3   OH270650   2.643   1.956  12.763 -0.2698 -0.0215  0.2097
16412TIP3    H170651   2.639   2.012  12.686 -0.0087  1.6236  1.3574
16412TIP3    H270652   2.735   1.958  12.790 -1.0912  3.9772  3.7061
16413TIP3   OH270653   4.759   4.155   0.971 -0.3341  0.2448  0.1195
16413TIP3    H170654   4.761   4.231   1.029 -3.9299 -0.1213  0.9526
16413TIP3    H270655   4.839   4.107   0.991 -0.3530  1.2868  3.1592
16414TIP3   OH270656   4.249   6.464   1.275  0.6379 -0.6339 -0.0061
16414TIP3    H170657   4.196   6.500   1.204  2.0498 -1.2299 -1.4179
16414TIP3    H270658   4.298   6.538   1.309 -0.9894 -0.0925  1.2603
16415TIP3   OH270659   3.556   4.957   2.604  0.4121  0.3383 -0.0952
16415TIP3    H170660   3.649   4.976   2.613  1.3699 -2.9988 -1.2928
16415TIP3    H270661   3.541   4.954   2.509 -1.1787  1.6352  0.0582
16416TIP3   OH270662   2.852   2.574  16.804 -0.3515 -0.1755 -0.4387
16416TIP3    H170663   2.762   2.544  16.818 -0.7244 -0.7292 -3.3647
16416TIP3    H270664   2.906   2.497  16.820 -0.6134 -0.4313 -0.7653
16417TIP3   OH270665   4.353   1.709  12.559  0.1214 -0.6723 -0.1026
16417TIP3    H170666   4.415   1.680  12.492  1.3106 -0.2400  0.7587
16417TIP3    H270667   4.393   1.789  12.595 -0.6871 -0.6700  0.8330
16418TIP3   OH270668   5.868   3.422  14.841  0.1513  0.1481 -0.0290
16418TIP3    H170669   5.914   3.451  14.920 -0.1742 -0.3224  0.3371
16418TIP3    H270670   5.938   3.395  14.781  0.3402 -1.5991  0.9285
16419TIP3   OH270671   1.278   3.830  13.071  0.1516  0.4524 -0.6451
16419TIP3    H170672   1.295   3.739  13.097  0.2299 -0.1995 -2.8181
16419TIP3    H270673   1.357   3.877  13.095  0.1600 -0.0543  0.4004
16420TIP3   OH270674   1.038   3.260   4.883 -0.2770 -0.2316  0.2794
16420TIP3    H170675   1.005   3.247   4.794 -0.7376  0.5879  0.3306
16420TIP3    H270676   0.986   3.332   4.918  0.1462 -0.3148  1.0914
16421TIP3   OH270677   4.212   2.203  15.605 -0.4264  0.1922 -0.6563
16421TIP3    H170678   4.287   2.242  15.562 -1.6841  1.5539 -1.7217
16421TIP3    H270679   4.170   2.150  15.537 -0.9810  0.2427 -0.3589
16422TIP3   OH270680   0.308   2.820  11.383 -0.0392  0.0500  0.8697
16422TIP3    H170681   0.369   2.790  11.450  0.7543 -0.1637  0.0759
16422TIP3    H270682   0.318   2.915  11.381  0.7194 -0.0283  0.3457
16423TIP3   OH270683   6.310   3.136   2.423  0.2610  0.5687 -0.9292
16423TIP3    H170684   6.256   3.064   2.393  1.0486 -0.3426 -0.2127
16423TIP3    H270685   6.269   3.165   2.505  1.3297 -0.7475  0.1255
16424TIP3   OH270686   6.432   6.037  16.893 -0.2377  0.4033 -0.3410
16424TIP3    H170687   6.441   5.944  16.910 -0.8485  0.4814  0.5078
16424TIP3    H270688   6.521   6.067  16.873 -0.0555 -0.3734 -0.7125
16425TIP3   OH270689   4.906   2.856  13.003 -0.0136 -0.2213  0.1697
16425TIP3    H170690   4.838   2.853  13.071 -1.1993  0.3749 -0.9407
16425TIP3    H270691   4.863   2.900  12.929  2.0319  1.5070 -0.0808
16426TIP3   OH270692   4.063   1.485   4.468  0.7628 -0.4169  0.3606
16426TIP3    H170693   4.130   1.528   4.415  0.7037  0.6928  1.1588
16426TIP3    H270694   3.987   1.542   4.460  0.1129 -1.3161  0.0116
16427TIP3   OH270695   2.078   5.574   6.532  0.1732  0.1865  0.4311
16427TIP3    H170696   2.166   5.581   6.569  0.7291  0.2081 -0.8586
16427TIP3    H270697   2.020   5.598   6.605  1.1315 -1.2881  1.7500
16428TIP3   OH270698   4.546   2.470  12.699  0.4766 -0.0612 -0.5749
16428TIP3    H170699   4.469   2.432  12.655  1.7700 -0.3641 -2.7545
16428TIP3    H270700   4.603   2.395  12.715  1.2632  0.4290 -1.0491
16429TIP3   OH270701   4.131   3.480  14.779 -0.2251 -0.3290  0.5928
16429TIP3    H170702   4.141   3.491  14.874  0.1710  1.1370  0.3945
16429TIP3    H270703   4.179   3.399  14.760  1.4094  0.3956  1.3781
16430TIP3   OH270704   1.780   0.229  14.129  0.3773  0.1511 -0.6460
16430TIP3    H170705   1.779   0.153  14.071  0.4320  0.2260 -0.7445
16430TIP3    H270706   1.724   0.293  14.086 -1.9153 -0.7776  0.7257
16431TIP3   OH270707   4.106   4.965  13.998 -0.3228  0.7256 -0.3690
16431TIP3    H170708   4.067   4.955  13.912 -1.4046 -0.5983  0.2316
16431TIP3    H270709   4.038   4.934  14.059  0.6695  0.9475  0.9021
16432TIP3   OH270710   2.122   6.068  12.422  0.5285 -0.2039 -0.4973
16432TIP3    H170711   2.133   6.132  12.352  0.5148 -1.5290 -1.7638
16432TIP3    H270712   2.029   6.072  12.443  0.3572 -0.4061 -1.1821
16433TIP3   OH270713   1.074   0.821   4.766  0.2041 -0.0344 -0.3426
16433TIP3    H170714   1.163   0.847   4.740 -0.0097  2.4617  1.1240
16433TIP3    H270715   1.084   0.783   4.853  0.0100 -1.6384 -0.9710
16434TIP3   OH270716   2.677   5.751  16.633 -0.1162  0.0463  0.3929
16434TIP3    H170717   2.715   5.696  16.701 -2.9480 -3.1507 -0.3357
16434TIP3    H270718   2.747   5.762  16.568  0.8344 -1.9986  1.0071
16435TIP3   OH270719   2.189   2.425  15.577  0.1564  0.4682 -0.3607
16435TIP3    H170720   2.277   2.426  15.615  0.2483  1.4207 -0.5710
16435TIP3    H270721   2.153   2.511  15.597 -0.6012  0.2154 -0.5865
16436TIP3   OH270722   4.734   6.408  15.824 -0.6702 -0.4631 -0.1129
16436TIP3    H170723   4.728   6.329  15.877 -0.9526 -0.6397 -0.4042
16436TIP3    H270724   4.644   6.441  15.820 -0.4037  0.4555  0.8792
16437TIP3   OH270725   5.398   4.168   2.378  0.0771 -0.2199 -0.0463
16437TIP3    H170726   5.334   4.210   2.436  0.0546  0.9058 -0.8717
16437TIP3    H270727   5.439   4.240   2.331 -0.0720 -1.1255 -1.6239
16438TIP3   OH270728   1.948   6.516   3.081 -0.6384 -0.0934  0.1149
16438TIP3    H170729   1.874   6.462   3.109  0.1435 -1.2999 -0.0389
16438TIP3    H270730   1.996   6.459   3.021 -0.6734  1.3805 -1.3632
16439TIP3   OH270731   0.251   1.108  17.587  0.0056  0.4435  0.6132
16439TIP3    H170732   0.292   1.034  17.541  0.0287  0.6702  0.2641
16439TIP3    H270733   0.172   1.070  17.627  0.0626  0.2094  0.5104
16440TIP3   OH270734   4.482   3.296   1.487 -0.5218  0.6830 -0.0402
16440TIP3    H170735   4.466   3.235   1.415  0.5249 -1.3856  1.4085
16440TIP3    H270736   4.411   3.278   1.550  0.8020 -0.4011  1.2111
16441TIP3   OH270737   2.896   6.636   4.539  0.0658 -0.4627  0.2961
16441TIP3    H170738   2.990   6.653   4.549  0.1694 -1.1561  0.5659
16441TIP3    H270739   2.892   6.549   4.500 -0.4601 -0.1026 -0.4724
16442TIP3   OH270740   2.867   4.315   2.324  0.4764  0.0963  0.2760
16442TIP3    H170741   2.796   4.357   2.275 -0.1800 -0.7210  0.5076
16442TIP3    H270742   2.841   4.223   2.330  2.0966 -0.4445 -0.5850
16443TIP3   OH270743   4.476   5.167   5.057  0.0246  0.1859 -0.5377
16443TIP3    H170744   4.498   5.219   4.979 -0.3132 -0.4122 -1.0466
16443TIP3    H270745   4.390   5.199   5.083 -0.2069 -0.1386 -0.8823
16444TIP3   OH270746   5.388   2.526   2.970 -0.3314 -0.5121 -0.3134
16444TIP3    H170747   5.428   2.494   3.051  0.3408 -1.3237 -0.9493
16444TIP3    H270748   5.295   2.537   2.992  0.2195  1.6094  1.2521
16445TIP3   OH270749   2.612   4.257   6.091  0.6282  0.3706  0.0800
16445TIP3    H170750   2.611   4.300   6.176  1.1116  0.5718 -0.0115
16445TIP3    H270751   2.579   4.323   6.030  0.0692  0.1530  0.1422
16446TIP3   OH270752   4.221   4.842  12.460 -0.1774 -1.0239  0.0557
16446TIP3    H170753   4.268   4.917  12.422  2.1601 -1.5959  1.6000
16446TIP3    H270754   4.141   4.881  12.496 -0.8302  0.0624 -2.3573
16447TIP3   OH270755   1.026   6.309  17.475 -0.0533  0.4362  0.0083
16447TIP3    H170756   1.026   6.405  17.478 -0.1529  0.4191  1.6251
16447TIP3    H270757   1.071   6.283  17.556 -0.4424 -0.8819 -0.1756
16448TIP3   OH270758   2.723   1.692   1.745 -0.0047  0.6677 -0.3853
16448TIP3    H170759   2.662   1.618   1.744 -0.3389  0.9087 -2.3010
16448TIP3    H270760   2.777   1.679   1.667  0.3795  2.0667 -0.3742
16449TIP3   OH270761   0.245   0.499   0.472 -0.3497 -0.3640 -0.3904
16449TIP3    H170762   0.296   0.427   0.434  1.4864  0.2042  0.8456
16449TIP3    H270763   0.298   0.577   0.454 -0.5131  0.1848  1.3517
16450TIP3   OH270764   2.127   1.683  13.276  0.5370 -0.2529  0.3826
16450TIP3    H170765   2.131   1.717  13.365 -2.4713  1.7619 -0.0703
16450TIP3    H270766   2.106   1.590  13.286  0.9551 -0.2198  1.7430
16451TIP3   OH270767   2.765   0.813  16.269 -0.9585  0.2144  0.0270
16451TIP3    H170768   2.819   0.769  16.335 -1.6450  1.0020  1.1460
16451TIP3    H270769   2.825   0.875  16.227 -0.7080  0.2891  0.4858
16452TIP3   OH270770   4.516   0.864  16.170 -0.5474 -0.5362  0.1360
16452TIP3    H170771   4.447   0.885  16.234 -1.0464  1.0147 -0.8415
16452TIP3    H270772   4.548   0.950  16.142  2.2488 -1.1994  1.0018
16453TIP3   OH270773   3.462   2.040  13.092  0.1226 -0.1811 -0.1006
16453TIP3    H170774   3.552   2.065  13.111  0.2009 -0.8271  0.4371
16453TIP3    H270775   3.429   2.109  13.035  1.5351 -0.8403 -1.8307
16454TIP3   OH270776   3.269   5.097  14.293  0.0567 -0.3294 -0.0089
16454TIP3    H170777   3.284   5.165  14.228  1.8768 -0.5605  0.1154
16454TIP3    H270778   3.316   5.020  14.259 -1.2365 -1.2882  0.2683
16455TIP3   OH270779   1.986   3.655   2.593  0.3330 -0.0258  0.2810
16455TIP3    H170780   1.950   3.702   2.517 -0.3944 -1.2102 -0.1440
16455TIP3    H270781   1.991   3.721   2.662 -0.5144  0.7151 -0.3390
16456TIP3   OH270782   5.732   1.415  16.153  0.0854  0.3030 -0.1706
16456TIP3    H170783   5.672   1.490  16.143 -1.6078 -0.6732  1.8229
16456TIP3    H270784   5.779   1.411  16.070 -0.5310  2.9065 -0.7486
16457TIP3   OH270785   3.958   4.920  13.658 -0.2680  0.2499 -0.0046
16457TIP3    H170786   4.023   4.850  13.663 -0.0683  0.4159 -0.2535
16457TIP3    H270787   3.960   4.948  13.567  0.8759  1.7299  0.4200
16458TIP3   OH270788   1.246   2.564   5.155  0.1111  0.2731  0.0440
16458TIP3    H170789   1.162   2.524   5.178  0.0249 -0.1653 -0.9968
16458TIP3    H270790   1.223   2.644   5.109  0.2828  0.8840  0.9885
16459TIP3   OH270791   6.218   1.284  12.094  0.3489 -0.5253 -0.2498
16459TIP3    H170792   6.172   1.266  12.012  0.3589 -0.0445 -0.3657
16459TIP3    H270793   6.192   1.213  12.152  0.5247 -1.0015 -0.7422
16460TIP3   OH270794   1.110   2.986   1.076  0.1164  0.1429  0.6635
16460TIP3    H170795   1.042   3.052   1.090  1.3146  1.4362  0.5971
16460TIP3    H270796   1.188   3.024   1.115  0.6997 -1.5590  1.2474
16461TIP3   OH270797   2.630   3.929   5.388  0.6075 -0.5232 -0.4574
16461TIP3    H170798   2.683   3.856   5.421  1.7101  0.7992  0.8875
16461TIP3    H270799   2.686   3.972   5.323  0.3943 -0.2793 -0.4824
16462TIP3   OH270800   3.124   0.600  15.741 -0.2270  0.1446  0.6551
16462TIP3    H170801   3.134   0.560  15.827 -1.9492  0.7814  1.2144
16462TIP3    H270802   3.069   0.677  15.757  0.6590  1.1292 -0.8018
16463TIP3   OH270803   0.799   0.115  13.085  0.1532 -0.0016 -0.0567
16463TIP3    H170804   0.838   0.079  13.165  0.7631  1.4794  0.3506
16463TIP3    H270805   0.768   0.038  13.036  1.1401 -1.0352  0.8908
16464TIP3   OH270806   1.312   3.918   6.191  0.1949 -0.1412 -0.1213
16464TIP3    H170807   1.341   3.909   6.282 -1.4775 -0.6983  0.3969
16464TIP3    H270808   1.298   4.011   6.179  0.8922 -0.0079  0.0119
16465TIP3   OH270809   0.423   3.287   2.195 -0.5458 -0.1910 -0.1667
16465TIP3    H170810   0.346   3.340   2.173 -0.5789 -0.6013 -1.0669
16465TIP3    H270811   0.494   3.325   2.143  0.8163  2.5549  3.3089
16466TIP3   OH270812   6.607   1.991   4.846 -0.0455 -0.8013  0.0487
16466TIP3    H170813   6.697   1.994   4.813 -0.6803 -0.5631 -1.7830
16466TIP3    H270814   6.565   2.068   4.808 -0.5918  0.1385  2.3722
16467TIP3   OH270815   0.397   1.703   1.749  0.3167  0.6342 -0.0578
16467TIP3    H170816   0.362   1.635   1.806 -1.7033  0.3547 -1.5025
16467TIP3    H270817   0.338   1.778   1.763  1.5807  1.5742  0.3740
16468TIP3   OH270818   2.030   3.206  16.398 -0.5692 -0.3380  0.4907
16468TIP3    H170819   1.968   3.134  16.384 -0.4765 -0.6494  1.5872
16468TIP3    H270820   1.979   3.285  16.381 -1.3985 -0.5701  1.7394
16469TIP3   OH270821   3.191   2.705   2.096 -0.4574  0.0716  0.5785
16469TIP3    H170822   3.146   2.646   2.157 -0.1590  0.4638  1.1936
16469TIP3    H270823   3.176   2.792   2.132  1.8667  0.1390  1.5529
16470TIP3   OH270824   6.119   0.370   0.412  0.2873 -0.1891 -0.3438
16470TIP3    H170825   6.138   0.459   0.383  1.5752 -0.6987 -1.1501
16470TIP3    H270826   6.192   0.318   0.380 -1.5268 -1.9576 -1.9267
16471TIP3   OH270827   4.173   6.504   3.081 -0.4043  0.1224 -0.4842
16471TIP3    H170828   4.187   6.531   3.172 -3.2615  0.0440  0.0772
16471TIP3    H270829   4.205   6.414   3.078  1.9015  0.8670 -0.2533
16472TIP3   OH270830   1.752   6.035  15.481  0.0628  0.6185  0.0420
16472TIP3    H170831   1.828   5.976  15.477 -0.7755 -0.5106  0.2372
16472TIP3    H270832   1.728   6.048  15.390 -0.5876 -0.4993  0.0307
16473TIP3   OH270833   3.762   2.091  16.676  0.5126 -0.2173  0.1937
16473TIP3    H170834   3.834   2.095  16.740  0.5690 -0.0773  0.1215
16473TIP3    H270835   3.799   2.129  16.596  0.6552 -0.9799 -0.1202
16474TIP3   OH270836   4.662   2.980  13.583  0.0345  0.0166  0.2055
16474TIP3    H170837   4.644   3.073  13.568  1.9642  0.3186 -0.4922
16474TIP3    H270838   4.677   2.974  13.678  0.4979  0.5440  0.1719
16475TIP3   OH270839   0.430   4.212  12.467 -0.4403 -0.0919  0.0993
16475TIP3    H170840   0.473   4.211  12.381 -0.8642 -1.5783 -0.1279
16475TIP3    H270841   0.383   4.129  12.471 -0.2847 -0.1390  1.8440
16476TIP3   OH270842   5.939   1.569   3.854  0.8041  0.7056  0.0410
16476TIP3    H170843   5.967   1.633   3.789  3.2830 -0.9343 -0.6696
16476TIP3    H270844   6.018   1.518   3.873 -0.0260  0.4733  3.6545
16477TIP3   OH270845   4.683   1.782  16.795 -0.4573  0.2678 -0.6114
16477TIP3    H170846   4.602   1.825  16.766  0.8785  1.9601 -2.1404
16477TIP3    H270847   4.694   1.708  16.735 -0.4145  0.6162 -1.0453
16478TIP3   OH270848   4.350   1.846   4.206  0.4586  0.3371 -0.3267
16478TIP3    H170849   4.358   1.770   4.264  1.1749  0.8862  0.3230
16478TIP3    H270850   4.342   1.921   4.266 -2.4662  0.5990 -0.9332
16479TIP3   OH270851   6.394   1.110  15.488  0.6030 -0.0699 -0.2996
16479TIP3    H170852   6.386   1.036  15.428  0.2651  0.5870 -1.0969
16479TIP3    H270853   6.331   1.174  15.455  1.2950  0.8015  0.0148
16480TIP3   OH270854   5.097   3.791  17.413 -0.0725 -0.2684  0.0372
16480TIP3    H170855   5.045   3.816  17.337 -2.7109 -0.6336  1.5845
16480TIP3    H270856   5.066   3.849  17.483  1.7005 -0.4631  1.0478
16481TIP3   OH270857   5.080   6.153   3.190  0.4863 -0.1595  0.4568
16481TIP3    H170858   5.155   6.212   3.181 -0.1061  0.6549  0.7671
16481TIP3    H270859   5.006   6.210   3.206  0.1009 -1.0513  2.1256
16482TIP3   OH270860   6.554   2.983  12.790 -0.4762 -0.0059  0.1832
16482TIP3    H170861   6.601   2.917  12.739 -0.3933 -0.7848  1.2314
16482TIP3    H270862   6.525   3.047  12.726 -0.9812 -1.3219 -0.9404
16483TIP3   OH270863   6.219   5.904  13.767  0.0447  0.2276 -0.1128
16483TIP3    H170864   6.253   5.829  13.816 -1.7495  0.3539  1.4240
16483TIP3    H270865   6.284   5.973  13.779  0.8560 -0.5260 -0.0667
16484TIP3   OH270866   5.651   3.238  11.533 -0.1260  0.3390 -0.2601
16484TIP3    H170867   5.581   3.179  11.504 -0.0425 -0.1768  0.5444
16484TIP3    H270868   5.730   3.184  11.531  0.0122  0.5194  0.1461
16485TIP3   OH270869   0.031   5.828  11.742 -0.1333  0.7652  0.0295
16485TIP3    H170870   0.114   5.863  11.775  0.6042  0.0626 -1.0399
16485TIP3    H270871  -0.012   5.791  11.820  1.4187 -0.5651  0.3122
16486TIP3   OH270872   6.710   1.888  13.055  0.5658  0.4417  0.5999
16486TIP3    H170873   6.686   1.896  12.963 -1.5412  0.4328  1.0903
16486TIP3    H270874   6.719   1.794  13.070 -0.8280  0.3093  0.7601
16487TIP3   OH270875   3.477   5.681   1.197 -0.0046 -0.4799 -0.0900
16487TIP3    H170876   3.426   5.600   1.191 -0.8872  0.1219 -1.0850
16487TIP3    H270877   3.568   5.652   1.193 -0.3143 -1.3178 -2.3797
16488TIP3   OH270878   4.570   6.079   3.069  0.0718 -0.3529  0.6887
16488TIP3    H170879   4.552   6.150   3.007 -1.0079 -1.7188 -0.6307
16488TIP3    H270880   4.660   6.095   3.098  0.4320  0.6503 -0.8279
16489TIP3   OH270881   1.804   0.603   3.040 -0.3456 -0.2241 -0.0723
16489TIP3    H170882   1.743   0.559   3.099  1.5825 -0.8343  1.6144
16489TIP3    H270883   1.888   0.600   3.087  0.3179  3.6044 -0.7148
16490TIP3   OH270884   4.069   5.689   2.952  0.7438 -0.0225  0.2491
16490TIP3    H170885   4.151   5.657   2.988  1.1954  0.6417 -0.1741
16490TIP3    H270886   4.056   5.774   2.995 -0.1168 -0.4556  0.8920
16491TIP3   OH270887   5.845   0.669  17.548 -0.2341 -0.3500  0.0370
16491TIP3    H170888   5.931   0.646  17.584  0.4326 -2.7102 -2.6836
16491TIP3    H270889   5.782   0.629  17.608  0.7843 -2.7714 -0.3695
16492TIP3   OH270890   0.236   0.802   4.807 -0.0706 -0.2030  0.0519
16492TIP3    H170891   0.219   0.791   4.713 -0.0999  1.9382 -0.2519
16492TIP3    H270892   0.328   0.829   4.812 -0.6901  2.0903  0.3459
16493TIP3   OH270893   6.175   6.707   5.603 -0.0097 -0.3233 -0.1471
16493TIP3    H170894   6.126   6.652   5.665  0.3418 -1.8943 -1.1947
16493TIP3    H270895   6.266   6.679   5.614  0.5354  1.6459  0.8485
16494TIP3   OH270896   3.689   2.929   0.780  0.1875 -0.0796 -0.4238
16494TIP3    H170897   3.778   2.916   0.750  0.3118  0.3619 -0.2682
16494TIP3    H270898   3.699   2.967   0.868 -0.1627 -1.2943  0.1676
16495TIP3   OH270899   3.168   2.277   0.615  0.1943 -0.2225  0.2661
16495TIP3    H170900   3.140   2.365   0.640  1.7810  0.0570  1.2144
16495TIP3    H270901   3.245   2.260   0.670  1.5746 -1.1132 -1.8091
16496TIP3   OH270902   0.412   5.170  16.538  0.7533  0.1276 -0.5499
16496TIP3    H170903   0.398   5.220  16.457  0.7272 -1.5276 -1.6217
16496TIP3    H270904   0.399   5.079  16.512  0.8264 -0.4562  1.3260
16497TIP3   OH270905   2.393   6.010  13.160 -0.0407  0.1059 -0.0674
16497TIP3    H170906   2.375   6.094  13.202  2.6309  1.0808 -0.6657
16497TIP3    H270907   2.411   5.950  13.233  1.3182  0.9507  0.3333
16498TIP3   OH270908   1.941   1.659   0.365 -0.3025  0.0179  0.3956
16498TIP3    H170909   1.930   1.754   0.371  0.8267  0.1964  0.0459
16498TIP3    H270910   2.016   1.648   0.306 -0.7692 -1.1099 -0.0042
16499TIP3   OH270911   6.009   3.394  13.253 -0.1276 -0.2367  0.3871
16499TIP3    H170912   6.071   3.371  13.322  0.2563  0.5302  0.3174
16499TIP3    H270913   5.923   3.377  13.291  0.1143 -2.3459  0.1090
16500TIP3   OH270914   5.250   6.271  15.316  0.0581  0.1161  0.1191
16500TIP3    H170915   5.329   6.223  15.342  0.1004  0.3916  0.4890
16500TIP3    H270916   5.225   6.320  15.393 -0.2089  0.3974 -0.1464
16501TIP3   OH270917   2.487   3.499   2.021  0.4265  0.1155 -0.0392
16501TIP3    H170918   2.538   3.575   1.995  0.4951  0.4083  0.9259
16501TIP3    H270919   2.405   3.507   1.972 -0.3139  1.7958  1.3469
16502TIP3   OH270920   6.319   0.932   3.497 -0.1049 -0.4316  0.2782
16502TIP3    H170921   6.297   0.880   3.575 -0.5911 -1.3903 -0.4720
16502TIP3    H270922   6.415   0.937   3.498 -0.0095 -1.8306  0.0878
16503TIP3   OH270923   5.980   5.898  12.336  0.1616  0.1159 -0.3704
16503TIP3    H170924   5.958   5.837  12.266 -0.5172  0.6637 -0.6529
16503TIP3    H270925   6.021   5.972  12.291  0.7424 -0.0127 -0.0615
16504TIP3   OH270926   3.824   0.217   3.475 -0.3799  0.3193 -0.1763
16504TIP3    H170927   3.873   0.296   3.499  0.8932  0.0766 -1.8349
16504TIP3    H270928   3.737   0.249   3.450 -0.0449  1.1253 -0.3275
16505TIP3   OH270929   5.337   2.349  12.338  0.2933  0.2399  0.4073
16505TIP3    H170930   5.329   2.435  12.379  1.0037  1.2387 -1.4477
16505TIP3    H270931   5.296   2.359  12.252  0.0854 -1.3820  0.2709
16506TIP3   OH270932   6.135   0.618  13.394 -0.1122 -0.2126  0.5208
16506TIP3    H170933   6.194   0.658  13.330 -0.4733 -0.9139 -0.2696
16506TIP3    H270934   6.047   0.637  13.362 -0.3177 -2.7310 -0.6626
16507TIP3   OH270935   3.195   3.370   5.109  0.0841  0.4116 -0.0865
16507TIP3    H170936   3.127   3.336   5.050  0.7147 -1.0378 -0.0179
16507TIP3    H270937   3.250   3.424   5.052  0.9044 -1.2720 -0.9572
16508TIP3   OH270938   6.257   0.344  13.664  0.7638 -0.1287 -0.4121
16508TIP3    H170939   6.282   0.411  13.728 -0.5333 -0.8175  0.8700
16508TIP3    H270940   6.287   0.262  13.702 -1.9099 -0.7952  0.4146
16509TIP3   OH270941   0.259   3.927  15.873  0.4316  0.5239 -0.1132
16509TIP3    H170942   0.183   3.869  15.878  0.4029  0.5748  0.0618
16509TIP3    H270943   0.321   3.891  15.937  0.4238  0.6694 -0.0220
16510TIP3   OH270944   0.886   5.057   5.889 -0.4195 -0.2239  0.8864
16510TIP3    H170945   0.865   4.998   5.962 -1.3296  0.7483  1.4305
16510TIP3    H270946   0.955   5.114   5.923 -0.9693  0.3464  1.0433
16511TIP3   OH270947   1.586   5.114   2.106 -0.2828  0.1122 -0.4241
16511TIP3    H170948   1.540   5.071   2.178 -0.1528  0.8239  0.0816
16511TIP3    H270949   1.587   5.047   2.036 -0.6452 -0.4808  0.1244
16512TIP3   OH270950   2.308   3.910  15.329  0.4223 -0.3192 -0.0240
16512TIP3    H170951   2.247   3.836  15.332  1.5615 -1.2494  1.4533
16512TIP3    H270952   2.339   3.918  15.419  0.6151  1.7413 -0.2376
16513TIP3   OH270953   5.811   0.934  14.633 -0.1712  0.5189  0.0072
16513TIP3    H170954   5.800   0.839  14.625  0.7382  0.5033 -1.2669
16513TIP3    H270955   5.724   0.966  14.656 -0.7724 -0.5003 -0.7557
16514TIP3   OH270956   4.261   6.171   6.047 -0.0606 -0.8564  0.1946
16514TIP3    H170957   4.290   6.099   6.104 -0.8130 -0.8560  0.5897
16514TIP3    H270958   4.294   6.250   6.090  0.1775 -0.9161  0.1252
16515TIP3   OH270959   0.290   1.307   3.092 -0.5304  0.4535  0.4474
16515TIP3    H170960   0.257   1.362   3.021 -1.0140 -0.8528 -0.3618
16515TIP3    H270961   0.380   1.336   3.105 -0.2750  0.3800 -1.0281
16516TIP3   OH270962   5.885   4.172   6.390  0.2933 -0.1443  0.5620
16516TIP3    H170963   5.811   4.222   6.423 -0.9724 -2.2746  1.1281
16516TIP3    H270964   5.900   4.207   6.302 -0.4783  1.2230  0.9426
16517TIP3   OH270965   5.877   4.689   4.325 -0.1673 -0.1302 -0.0358
16517TIP3    H170966   5.792   4.691   4.283 -0.0843  1.6809 -0.2091
16517TIP3    H270967   5.864   4.735   4.408  0.7677  0.8058 -0.3805
16518TIP3   OH270968   4.477   0.916   0.914 -0.5466 -0.5284 -0.2429
16518TIP3    H170969   4.484   1.009   0.935 -0.3113 -0.8433  1.1771
16518TIP3    H270970   4.390   0.892   0.944 -1.1766 -0.4756 -1.9253
16519TIP3   OH270971   6.190   0.504  15.084 -0.6215 -0.0273 -0.7080
16519TIP3    H170972   6.151   0.419  15.104 -1.2479 -0.0432 -1.8607
16519TIP3    H270973   6.120   0.552  15.040  0.0482  0.6962 -1.0099
16520TIP3   OH270974   0.398   0.604   4.618 -0.1366  0.3582  0.1125
16520TIP3    H170975   0.473   0.659   4.642  0.1254 -0.2356  0.6812
16520TIP3    H270976   0.437   0.524   4.585 -0.5225 -0.0738  0.6951
16521TIP3   OH270977   6.119   1.725   1.901 -0.1980 -0.4391 -0.0139
16521TIP3    H170978   6.173   1.654   1.937  0.1706 -0.8296 -1.2789
16521TIP3    H270979   6.039   1.723   1.954  1.2310  0.6075  2.3793
16522TIP3   OH270980   5.965   2.079  14.291  0.4441 -0.0962 -0.1908
16522TIP3    H170981   5.893   2.035  14.335  0.2049 -0.0780 -0.5571
16522TIP3    H270982   5.975   2.032  14.208  1.8804 -1.0991  0.5059
16523TIP3   OH270983   4.267   6.386  13.433  0.7941 -0.8088  0.9967
16523TIP3    H170984   4.305   6.474  13.431  1.4813 -1.1084 -0.3628
16523TIP3    H270985   4.312   6.339  13.363 -2.7946 -0.9046 -1.4995
16524TIP3   OH270986   1.818   2.652   1.431 -0.3120  0.2726  0.2305
16524TIP3    H170987   1.762   2.644   1.354 -1.5309 -1.4221  1.2018
16524TIP3    H270988   1.906   2.633   1.399 -0.7021  0.2413 -0.8547
16525TIP3   OH270989   5.221   1.191   6.730  0.0614 -0.4650 -0.0397
16525TIP3    H170990   5.236   1.099   6.711 -0.5019 -0.6076  0.1786
16525TIP3    H270991   5.300   1.235   6.698 -1.2608 -0.4880 -3.7964
16526TIP3   OH270992   2.722   3.950   4.606  0.3949  0.0003 -0.0727
16526TIP3    H170993   2.643   3.936   4.659  0.1388  0.7489 -0.2512
16526TIP3    H270994   2.695   4.012   4.539  1.0503 -0.0055 -0.3472
16527TIP3   OH270995   0.095   2.327  15.405  0.4674  0.2551 -0.4304
16527TIP3    H170996   0.104   2.234  15.423 -1.2802 -0.0036 -0.6387
16527TIP3    H270997   0.007   2.349  15.437  1.2854  2.1185  0.7012
16528TIP3   OH270998   5.589   5.720  12.140 -0.4150 -0.0400 -0.3950
16528TIP3    H170999   5.499   5.712  12.105 -1.6308 -0.5495  2.5764
16528TIP3    H271000   5.632   5.782  12.080 -2.7293  0.2298 -1.9284
16529TIP3   OH271001   6.669   6.693  15.435 -0.0973  0.1059 -0.7748
16529TIP3    H171002   6.642   6.781  15.411  1.5105  0.9808  0.4081
16529TIP3    H271003   6.758   6.684  15.399 -0.1230 -0.9271 -0.6207
16530TIP3   OH271004   2.682   2.231   4.869 -0.3162 -0.1339  0.3197
16530TIP3    H171005   2.729   2.203   4.948 -0.6367  1.9002  1.3077
16530TIP3    H271006   2.590   2.237   4.898 -0.2649  1.8586  0.2146
16531TIP3   OH271007   0.952   2.984  12.275  0.0716  0.1382  0.2180
16531TIP3    H171008   0.874   2.985  12.330  0.6977  1.0676  1.1240
16531TIP3    H271009   0.977   2.891  12.270  0.5712  0.0953  2.3743
16532TIP3   OH271010   5.932   5.545  15.354 -0.4291 -0.0821  0.2554
16532TIP3    H171011   6.006   5.582  15.402 -0.5332 -2.1299  2.1958
16532TIP3    H271012   5.878   5.503  15.422 -3.2415  1.0363 -1.1100
16533TIP3   OH271013   3.456   4.442  12.052  0.3218  0.1187 -0.1023
16533TIP3    H171014   3.546   4.417  12.071  0.6402  1.2000 -0.1142
16533TIP3    H271015   3.409   4.359  12.042  1.6839 -0.5102 -1.8892
16534TIP3   OH271016   5.141   3.006  14.689 -0.3677 -0.3614  0.5263
16534TIP3    H171017   5.152   3.071  14.619 -1.1667  0.8736  1.5016
16534TIP3    H271018   5.052   2.973  14.677 -0.7818  0.4131  1.4014
16535TIP3   OH271019   1.317   6.433   2.161 -0.3058  0.3936  0.2971
16535TIP3    H171020   1.409   6.407   2.168 -0.7660 -1.1102  1.1361
16535TIP3    H271021   1.299   6.434   2.068 -0.5183 -3.4927  0.1350
16536TIP3   OH271022   0.409   1.827  11.696  0.6052 -0.1901 -0.0263
16536TIP3    H171023   0.402   1.732  11.693 -0.6734 -0.1212  0.6479
16536TIP3    H271024   0.483   1.847  11.637  0.2643 -1.5184 -0.9405
16537TIP3   OH271025   0.299   6.491  10.904  0.5968 -0.2741  0.0448
16537TIP3    H171026   0.349   6.564  10.868  0.8874 -0.4437  0.1085
16537TIP3    H271027   0.308   6.499  10.999 -0.0649  0.0968  0.0892
16538TIP3   OH271028   4.438   0.954  12.607  0.1260  0.0956 -0.1670
16538TIP3    H171029   4.361   0.925  12.657  0.3118 -2.2065 -1.0895
16538TIP3    H271030   4.427   0.913  12.521  1.3187  1.5066 -1.0359
16539TIP3   OH271031   4.398   6.502   6.013 -0.6155 -0.3695 -0.1950
16539TIP3    H171032   4.378   6.435   6.077  0.9221 -2.9394 -2.1949
16539TIP3    H271033   4.314   6.544   5.994 -1.2593 -0.2503  2.5935
16540TIP3   OH271034   6.277   4.838  14.707  0.0721 -0.1453 -0.0153
16540TIP3    H171035   6.252   4.746  14.709  1.2418 -0.5582 -1.9781
16540TIP3    H271036   6.210   4.882  14.760 -0.2766 -2.1398  1.3043
16541TIP3   OH271037   6.360   3.353   3.735  0.8569  0.1800 -0.2979
16541TIP3    H171038   6.319   3.271   3.763  0.5588  0.3525 -0.2329
16541TIP3    H271039   6.424   3.373   3.803  0.8484  0.0651 -0.2561
16542TIP3   OH271040   4.623   4.682  13.349 -0.4551 -0.2380 -0.7257
16542TIP3    H171041   4.644   4.743  13.420 -0.1813  0.0061 -1.0102
16542TIP3    H271042   4.683   4.609  13.361  0.6508  0.4931 -1.5810
16543TIP3   OH271043   5.670   5.859   4.698 -0.5015 -0.2618 -0.0989
16543TIP3    H171044   5.604   5.919   4.732 -1.3455 -1.3993  0.3242
16543TIP3    H271045   5.686   5.890   4.608 -0.3255  1.0535  0.3651
16544TIP3   OH271046   3.756   1.157   4.601 -0.4168 -0.1781 -0.2955
16544TIP3    H171047   3.704   1.217   4.547  0.9292  0.4202 -0.9900
16544TIP3    H271048   3.846   1.171   4.571 -0.0985 -3.0682 -0.9573
16545TIP3   OH271049   4.945   2.391   1.676 -0.0762  0.0320 -0.5113
16545TIP3    H171050   4.999   2.399   1.597 -0.2007  0.7638 -0.5292
16545TIP3    H271051   4.865   2.348   1.646 -0.5949  1.2904 -1.0321
16546TIP3   OH271052   1.638   0.400  11.865 -0.0508  0.1988 -0.4317
16546TIP3    H171053   1.581   0.354  11.927 -0.9021  2.8974  0.9123
16546TIP3    H271054   1.688   0.461  11.918  0.2735  1.5985 -2.2450
16547TIP3   OH271055   4.022   0.173  14.231  0.1442 -0.6090 -0.2276
16547TIP3    H171056   3.970   0.250  14.209 -2.4048 -1.4566  2.1333
16547TIP3    H271057   3.996   0.107  14.167  0.2141 -0.3138 -0.5642
16548TIP3   OH271058   3.398   1.969   2.485 -0.3756  0.0638 -0.1604
16548TIP3    H171059   3.392   1.976   2.580 -4.1631 -0.8505 -0.1488
16548TIP3    H271060   3.419   1.877   2.469  1.6479  0.5107 -0.2706
16549TIP3   OH271061   2.318   4.564   1.883  0.5575 -0.0673 -0.0504
16549TIP3    H171062   2.383   4.543   1.951  1.1041  0.3529 -0.4363
16549TIP3    H271063   2.281   4.648   1.911 -0.7101 -0.8744  0.8130
16550TIP3   OH271064   2.770   5.759   1.890  0.0448 -0.5500 -0.2713
16550TIP3    H171065   2.830   5.705   1.943  0.2735  0.9684  1.1059
16550TIP3    H271066   2.712   5.696   1.847  1.2964 -1.9550  0.0152
16551TIP3   OH271067   2.903   2.809   2.440  0.2657 -0.1907  0.3369
16551TIP3    H171068   2.936   2.889   2.400 -0.6029  0.6563  1.2347
16551TIP3    H271069   2.980   2.768   2.478  1.0115 -0.7009 -1.5947
16552TIP3   OH271070   0.783   4.449   1.821 -0.1622 -0.1011  0.3215
16552TIP3    H171071   0.744   4.493   1.745  2.3598  1.4919 -0.1558
16552TIP3    H271072   0.877   4.465   1.813  0.4649 -2.1693  2.3935
16553TIP3   OH271073   3.627   2.646  17.435 -0.0323 -0.0287  0.2544
16553TIP3    H171074   3.669   2.606  17.359 -2.0080 -3.0783  0.5997
16553TIP3    H271075   3.534   2.629  17.422 -0.7720  2.4209  1.7460
16554TIP3   OH271076   5.916   4.798  15.749 -0.1563  0.3025 -0.5529
16554TIP3    H171077   5.958   4.724  15.705  1.9192  0.2008  1.4126
16554TIP3    H271078   5.836   4.761  15.787  1.1923 -1.2316  1.0004
16555TIP3   OH271079   1.634   3.549  16.477 -0.0670  0.2881  0.1509
16555TIP3    H171080   1.635   3.490  16.552  3.0216 -0.9334 -0.7120
16555TIP3    H271081   1.543   3.579  16.472 -0.9962 -1.7023  2.6877
16556TIP3   OH271082   0.806   0.598   4.441  0.2139 -0.2928 -0.0043
16556TIP3    H171083   0.744   0.669   4.423  0.7030  0.2616  0.4724
16556TIP3    H271084   0.889   0.643   4.459  0.4247 -0.9735  0.7308
16557TIP3   OH271085   0.788   6.610   4.492  0.3477 -0.2084  0.2774
16557TIP3    H171086   0.702   6.652   4.489  0.4369  0.1929  2.0008
16557TIP3    H271087   0.806   6.585   4.402 -0.7899  1.3028 -0.4173
16558TIP3   OH271088   4.985   0.170  11.609 -0.2063 -0.4392 -0.0759
16558TIP3    H171089   4.967   0.086  11.567  0.1325 -0.2753 -0.5544
16558TIP3    H271090   5.000   0.230  11.536 -0.6597  0.0855  0.2607
16559TIP3   OH271091   5.182   1.375   6.944  0.0434 -0.2279 -0.4476
16559TIP3    H171092   5.193   1.314   7.017 -1.4780 -0.3703 -0.3151
16559TIP3    H271093   5.189   1.320   6.866 -1.3955 -0.6041 -0.3260
16560TIP3   OH271094   3.424   5.215   1.365 -0.2650 -0.3566  0.3855
16560TIP3    H171095   3.337   5.180   1.343 -1.9815  1.7583  3.1625
16560TIP3    H271096   3.447   5.269   1.290 -1.5597 -0.6206 -0.2339
16561TIP3   OH271097   5.544   3.144  17.456  0.4383 -0.0684  0.3295
16561TIP3    H171098   5.521   3.051  17.465  3.3112 -0.8531  0.7683
16561TIP3    H271099   5.530   3.180  17.543  3.1247 -1.1948  1.3550
16562TIP3   OH271100   5.421   4.146  15.483 -0.6941 -0.5564  0.1878
16562TIP3    H171101   5.469   4.118  15.561 -1.7317 -3.1787 -0.0008
16562TIP3    H271102   5.476   4.118  15.410 -1.4891 -1.7407  0.0002
16563TIP3   OH271103   5.212   2.120   3.840  0.3726  0.0942 -0.0031
16563TIP3    H171104   5.168   2.078   3.913  1.2952  0.0819  0.5581
16563TIP3    H271105   5.141   2.143   3.779 -0.5499  1.1337  1.3876
16564TIP3   OH271106   5.683   2.426  16.663 -0.6378  0.3265 -0.1559
16564TIP3    H171107   5.771   2.462  16.645 -0.2665  0.1744  1.2681
16564TIP3    H271108   5.650   2.479  16.735 -1.1335 -0.5469  0.2725
16565TIP3   OH271109   1.902   4.943   0.166 -1.0068  0.3628  0.3080
16565TIP3    H171110   1.920   4.935   0.072 -1.4743  1.3210  0.1255
16565TIP3    H271111   1.811   4.971   0.170 -0.5122  1.9455  0.9811
16566TIP3   OH271112   4.333   1.167  16.647 -0.5057 -0.2070 -0.1031
16566TIP3    H171113   4.360   1.241  16.702  1.8698 -1.7801  0.9954
16566TIP3    H271114   4.267   1.121  16.699 -1.7915  0.8901 -0.6768
16567TIP3   OH271115   4.317   1.776   3.086  0.3223  0.3281  0.6393
16567TIP3    H171116   4.228   1.741   3.096  0.9008 -1.0294  1.2198
16567TIP3    H271117   4.350   1.735   3.006  1.1178 -0.7491  1.4925
16568TIP3   OH271118   6.551   1.783  11.305 -0.0908 -0.5415  0.6961
16568TIP3    H171119   6.481   1.718  11.317 -1.6788  1.1399  1.0219
16568TIP3    H271120   6.529   1.825  11.222  0.9375 -0.4262  0.4716
16569TIP3   OH271121   2.776   0.449  12.748 -0.0624  0.6190 -0.2184
16569TIP3    H171122   2.801   0.396  12.824 -1.6017 -1.3823 -1.0208
16569TIP3    H271123   2.723   0.391  12.695 -0.0456  2.3564 -2.2594
16570TIP3   OH271124   4.944   1.926   1.127 -0.3154  0.0568 -0.1754
16570TIP3    H171125   4.905   1.987   1.065  0.8798  0.1780 -0.8302
16570TIP3    H271126   4.970   1.851   1.074  0.6671  0.1361  0.1701
16571TIP3   OH271127   3.346   3.348  11.501  0.1430  0.1183 -0.0014
16571TIP3    H171128   3.264   3.378  11.540  1.0257  0.6155  1.5554
16571TIP3    H271129   3.320   3.277  11.442 -1.4612  0.6861 -0.0244
16572TIP3   OH271130   1.035   0.224   5.208 -0.7846  0.1928  0.5188
16572TIP3    H171131   0.995   0.224   5.121 -0.7037 -0.3571  0.4776
16572TIP3    H271132   1.124   0.192   5.194 -0.5853  0.6332  0.7300
16573TIP3   OH271133   2.886   1.692   0.078  0.0438 -0.0640  0.0387
16573TIP3    H171134   2.835   1.611   0.072  0.2813 -0.2541  0.5579
16573TIP3    H271135   2.886   1.714   0.171 -0.1708  0.6349 -0.1231
16574TIP3   OH271136   1.365   5.952   5.245 -0.0721 -0.3309  0.2547
16574TIP3    H171137   1.338   5.926   5.333  2.1639 -1.0576  0.7912
16574TIP3    H271138   1.385   5.869   5.201  0.0818  0.0975 -0.4939
16575TIP3   OH271139   1.315   0.039   0.654  0.1820 -0.2548 -0.4184
16575TIP3    H171140   1.343  -0.039   0.607 -0.9938  0.4538 -2.3959
16575TIP3    H271141   1.349   0.027   0.743  0.5004 -2.7324 -0.8101
16576TIP3   OH271142   5.990   5.358  13.334 -0.3612 -0.3689  0.4128
16576TIP3    H171143   6.029   5.294  13.275  0.3745  0.6513 -0.2404
16576TIP3    H271144   5.896   5.350  13.318 -0.3238 -1.6340  0.7275
16577TIP3   OH271145   5.507   3.172  17.195 -0.2765  0.3662 -0.1894
16577TIP3    H171146   5.513   3.182  17.290  2.8212 -1.7459  0.0178
16577TIP3    H271147   5.433   3.114  17.181 -0.1108 -0.1864  1.0799
16578TIP3   OH271148   0.299   0.610   5.110  0.3606  0.4544 -0.1352
16578TIP3    H171149   0.237   0.538   5.119 -0.1165  0.8831  0.0206
16578TIP3    H271150   0.383   0.567   5.091  0.0911 -0.1417  0.0051
16579TIP3   OH271151   6.636   1.013  13.082 -0.9372  0.0137  0.0966
16579TIP3    H171152   6.548   1.049  13.089 -0.8848 -0.0170  1.0237
16579TIP3    H271153   6.623   0.919  13.078 -1.0021  0.0618 -0.9223
16580TIP3   OH271154   0.790   0.772   2.217 -0.0276 -0.1472 -0.7962
16580TIP3    H171155   0.774   0.726   2.300 -0.4037  1.3904  0.0163
16580TIP3    H271156   0.857   0.719   2.174 -0.2802 -1.3355  0.1914
16581TIP3   OH271157   4.904   1.926   2.827  0.7279 -0.3249 -0.0392
16581TIP3    H171158   4.948   1.880   2.756  2.0785 -0.1074  0.6044
16581TIP3    H271159   4.833   1.868   2.853  2.6466 -2.3625  1.0595
16582TIP3   OH271160   0.075   5.036  16.926 -0.8147  0.6218 -0.4866
16582TIP3    H171161   0.063   4.941  16.921  1.6994  0.3032 -2.2000
16582TIP3    H271162   0.038   5.068  16.844 -1.9924  1.2226  0.2485
16583TIP3   OH271163   3.016   4.702  12.865  0.3197 -0.3873  0.2332
16583TIP3    H171164   2.923   4.699  12.885 -0.2180 -0.3253 -2.0257
16583TIP3    H271165   3.042   4.610  12.856  0.7826 -0.4628  1.9222
16584TIP3   OH271166   5.128   6.415   3.385 -0.2055 -0.2292  0.0129
16584TIP3    H171167   5.131   6.474   3.460 -0.4985  1.4840 -1.2572
16584TIP3    H271168   5.158   6.468   3.311  0.7658 -2.0625 -0.9888
16585TIP3   OH271169   0.165   4.916  11.428 -0.2663 -0.3301  0.4284
16585TIP3    H171170   0.179   5.003  11.390  2.9608 -0.5287  0.8785
16585TIP3    H271171   0.127   4.864  11.357 -1.3788  1.1887 -0.1245
16586TIP3   OH271172   4.434   0.073   2.015  0.2629 -0.2505  0.6140
16586TIP3    H171173   4.477   0.123   2.084  0.6156  1.4796 -0.7878
16586TIP3    H271174   4.499   0.069   1.944 -0.5369 -0.8929 -0.1047
16587TIP3   OH271175   2.368   5.044   4.531  0.3133 -0.3589 -0.8252
16587TIP3    H171176   2.322   5.083   4.456  0.8691  1.3672 -0.3244
16587TIP3    H271177   2.456   5.082   4.527  0.1984  0.2001  0.9714
16588TIP3   OH271178   1.076   0.603   0.066 -0.0080  0.1389 -0.8352
16588TIP3    H171179   1.038   0.534   0.011  1.2275 -0.5089 -0.9249
16588TIP3    H271180   1.146   0.640   0.012 -0.0372  0.8072 -0.4165
16589TIP3   OH271181   0.511   6.063   5.151  0.2348  0.0319  0.3232
16589TIP3    H171182   0.535   6.054   5.059  2.6801 -2.1014  1.0499
16589TIP3    H271183   0.524   6.156   5.170  1.9366  0.1021 -0.9602
16590TIP3   OH271184   4.468   2.636   0.472 -0.2955  0.6305 -0.0419
16590TIP3    H171185   4.483   2.643   0.378  0.6938 -0.9596 -0.0360
16590TIP3    H271186   4.547   2.671   0.512 -0.5959  1.0446  0.1935
16591TIP3   OH271187   6.110   1.315  17.262  0.0799  0.0785  0.3383
16591TIP3    H171188   6.131   1.295  17.171 -1.4766  0.0180 -0.0361
16591TIP3    H271189   6.092   1.230  17.302  2.3467 -0.0835  1.1912
16592TIP3   OH271190   0.622   4.549  11.626  0.5226  0.3703  0.0286
16592TIP3    H171191   0.627   4.595  11.542 -0.7594  1.1660  0.3586
16592TIP3    H271192   0.540   4.499  11.620 -0.4841  1.7574  1.4188
16593TIP3   OH271193   6.662   4.997  13.649 -0.2513 -0.0023 -0.4765
16593TIP3    H171194   6.720   4.998  13.573 -1.0481 -2.9551 -1.2626
16593TIP3    H271195   6.577   4.970  13.614 -0.9919 -0.1122  1.2915
16594TIP3   OH271196   2.881   5.379  14.361 -0.0781 -1.1413 -0.5335
16594TIP3    H171197   2.928   5.398  14.279 -1.1562  1.5447 -0.6463
16594TIP3    H271198   2.789   5.375  14.335 -0.3593 -1.0988  0.4327
16595TIP3   OH271199   6.394   3.776   5.733 -0.3379  0.0762  0.5908
16595TIP3    H171200   6.362   3.686   5.745  0.1324 -0.2126 -0.2081
16595TIP3    H271201   6.315   3.829   5.730 -0.6114 -0.2750  1.3400
16596TIP3   OH271202   1.925   3.992   4.397  0.0498  0.0700  0.4279
16596TIP3    H171203   1.899   3.923   4.458 -1.4115  0.3037  0.1005
16596TIP3    H271204   2.021   3.992   4.400  0.0417 -1.2139  1.2671
16597TIP3   OH271205   0.417   2.320  15.711  0.6637  0.5281 -0.3351
16597TIP3    H171206   0.411   2.412  15.685  1.6794  0.6326 -0.2517
16597TIP3    H271207   0.505   2.293  15.682  0.1198 -0.6141 -0.9687
16598TIP3   OH271208   1.212   5.099   5.128  0.7365 -0.2945 -0.3792
16598TIP3    H171209   1.181   5.029   5.069  0.3037 -0.0417 -0.4558
16598TIP3    H271210   1.205   5.061   5.216 -1.8545  0.4736 -0.1921
16599TIP3   OH271211   2.180   5.799  12.442 -0.0785  0.1259 -0.3555
16599TIP3    H171212   2.160   5.780  12.350  1.4715 -0.5111 -0.5931
16599TIP3    H271213   2.151   5.889  12.455 -0.9131  0.0068 -1.2803
16600TIP3   OH271214   6.639   1.191   4.385  0.2016 -0.8861 -0.0411
16600TIP3    H171215   6.622   1.117   4.327  0.9458 -0.6110 -0.6206
16600TIP3    H271216   6.567   1.252   4.368  0.1112 -1.0543 -0.2630
16601TIP3   OH271217   5.008   4.746   1.026  0.0068 -0.1952 -0.2391
16601TIP3    H171218   4.992   4.679   0.960  0.0428  0.4054 -0.8678
16601TIP3    H271219   5.054   4.816   0.979 -0.7688  0.6364  0.2004
16602TIP3   OH271220   0.420   0.845  16.581 -0.3320  0.0608  0.0179
16602TIP3    H171221   0.515   0.859  16.586 -0.1501 -0.8676 -0.6180
16602TIP3    H271222   0.394   0.894  16.503  0.0092 -1.4935 -1.1251
16603TIP3   OH271223   1.736   1.763   5.699  0.2928 -0.2350 -0.1827
16603TIP3    H171224   1.724   1.832   5.634  3.3239 -0.4640 -1.1314
16603TIP3    H271225   1.702   1.684   5.657 -1.2664  0.2456  0.0953
16604TIP3   OH271226   6.469   5.875   3.616  0.1404  0.3776  0.0480
16604TIP3    H171227   6.415   5.948   3.645 -0.9266 -0.1581 -0.5441
16604TIP3    H271228   6.410   5.800   3.615  0.3811  0.1455 -2.4405
16605TIP3   OH271229   4.632   3.284   5.639  0.2570  0.8206  0.1897
16605TIP3    H171230   4.668   3.206   5.682  0.9016  1.0286  0.0247
16605TIP3    H271231   4.537   3.267   5.635  0.5823 -0.9193 -1.7833
16606TIP3   OH271232   5.024   3.200   4.497  0.1509 -0.4685  1.0367
16606TIP3    H171233   5.080   3.216   4.421 -2.5972  0.4878 -0.9595
16606TIP3    H271234   5.072   3.135   4.549  1.4713 -2.4886 -2.3427
16607TIP3   OH271235   1.020   0.230  15.203  1.1125 -0.3501  0.1462
16607TIP3    H171236   1.015   0.201  15.295  1.6721  4.2704  1.9284
16607TIP3    H271237   0.929   0.232  15.174  1.0715 -4.8318 -0.7436
16608TIP3   OH271238   6.233   6.514   5.300  0.3795  0.0697  0.0798
16608TIP3    H171239   6.302   6.552   5.354  0.2152  0.5127 -0.0148
16608TIP3    H271240   6.159   6.502   5.360 -0.1526  1.5134 -0.2369
16609TIP3   OH271241   0.466   0.446  11.756  0.2068 -0.1804 -0.6833
16609TIP3    H171242   0.416   0.411  11.829  0.3019 -1.2871 -1.1348
16609TIP3    H271243   0.558   0.435  11.782  0.2368  0.3062 -0.5691
16610TIP3   OH271244   5.830   1.218  16.320 -0.2926  0.9921  0.1611
16610TIP3    H171245   5.771   1.262  16.259 -0.3172  0.2187 -0.3920
16610TIP3    H271246   5.911   1.269  16.316  0.8534 -0.7866 -2.9704
16611TIP3   OH271247   1.424   5.261  17.561  0.6594  0.0295  0.0451
16611TIP3    H171248   1.361   5.246  17.632  1.9036  0.0400  1.1898
16611TIP3    H271249   1.370   5.260  17.482 -1.4144  3.8346  1.1612
16612TIP3   OH271250   5.713   5.707  14.316 -0.5071 -0.2590 -0.3572
16612TIP3    H171251   5.720   5.660  14.233 -0.5388 -1.0466  0.0750
16612TIP3    H271252   5.803   5.711  14.349 -0.5995 -0.6283 -0.0613
16613TIP3   OH271253   2.756   3.521  15.470 -0.5128  0.4074  0.0322
16613TIP3    H171254   2.784   3.609  15.495 -1.1182  0.0982  1.9088
16613TIP3    H271255   2.770   3.518  15.375 -0.6586  2.5911 -0.1131
16614TIP3   OH271256   1.888   2.617   4.350 -0.4125  0.0442 -0.0573
16614TIP3    H171257   1.827   2.665   4.406 -0.5148 -0.0394 -0.0963
16614TIP3    H271258   1.974   2.654   4.371 -0.3244 -0.6386  0.8549
16615TIP3   OH271259   5.636   5.104  10.814 -0.2857 -0.3234  0.1015
16615TIP3    H171260   5.561   5.051  10.785 -0.0811 -0.0077 -1.0512
16615TIP3    H271261   5.686   5.121  10.734  1.5943 -1.3911  0.9986
16616TIP3   OH271262   6.589   3.122  17.444 -0.8434  0.4846 -0.3091
16616TIP3    H171263   6.662   3.170  17.483 -0.6010 -0.5638  0.5952
16616TIP3    H271264   6.519   3.127  17.509  0.1738 -2.8623  1.2978
16617TIP3   OH271265   2.022   1.499  11.917 -0.3427 -0.0034  0.5596
16617TIP3    H171266   2.064   1.531  11.837  1.4264 -0.3570  1.3025
16617TIP3    H271267   2.072   1.539  11.988 -1.3117 -0.4189  1.5020
16618TIP3   OH271268   0.143   2.113   6.624  0.3316  0.0283 -0.3240
16618TIP3    H171269   0.068   2.093   6.568 -0.5338  2.1808 -0.0227
16618TIP3    H271270   0.135   2.054   6.698 -0.8366 -0.0446 -0.4983
16619TIP3   OH271271   4.063   5.103  15.588  0.0876  0.1201 -0.6091
16619TIP3    H171272   3.979   5.068  15.619  0.0168  0.3280 -0.5627
16619TIP3    H271273   4.120   5.027  15.581  0.3963  0.1643  0.9505
16620TIP3   OH271274   1.462   5.892   1.732 -0.8889 -0.0331  0.8625
16620TIP3    H171275   1.435   5.949   1.660  2.3219  1.3104  0.5384
16620TIP3    H271276   1.416   5.926   1.808 -2.9676 -0.3515 -0.1820
16621TIP3   OH271277   2.881   6.360   1.952 -0.1911  0.4609  0.1472
16621TIP3    H171278   2.807   6.299   1.963  1.8425 -2.0291  1.1525
16621TIP3    H271279   2.911   6.345   1.863 -0.3232  0.8004  0.0441
16622TIP3   OH271280   0.168   4.018  17.203 -0.3721 -0.1267  0.3759
16622TIP3    H171281   0.146   4.067  17.282  0.8372  0.3734  0.4196
16622TIP3    H271282   0.125   3.933  17.215 -1.0825  0.3170  1.0703
16623TIP3   OH271283   5.538   0.071  15.868 -0.1442  0.5428 -0.0164
16623TIP3    H171284   5.596   0.144  15.890 -0.3312  0.5985  0.2882
16623TIP3    H271285   5.538   0.069  15.772  0.5528  0.3888 -0.0178
16624TIP3   OH271286   0.118   3.062  16.496 -0.4950  0.5015 -0.0980
16624TIP3    H171287   0.049   2.997  16.485 -1.6475  1.4797  0.9641
16624TIP3    H271288   0.181   3.043  16.427 -1.3928 -0.9744 -0.5467
16625TIP3   OH271289   0.771   1.789   1.477 -0.5591 -0.1310  0.3053
16625TIP3    H171290   0.796   1.870   1.521  0.4572 -0.8951  1.1932
16625TIP3    H271291   0.822   1.789   1.396  0.5613 -0.5549  0.9900
16626TIP3   OH271292   5.375   2.311   4.304  0.5296  0.3073  0.0871
16626TIP3    H171293   5.435   2.292   4.232 -1.0511 -0.9392 -0.9571
16626TIP3    H271294   5.292   2.272   4.277 -0.8484  2.2264  1.3736
16627TIP3   OH271295   1.752   6.377   0.378  0.0103  0.0798  0.5540
16627TIP3    H171296   1.818   6.309   0.390  1.3582  1.5891  2.0921
16627TIP3    H271297   1.685   6.335   0.322  1.6947 -1.8406 -0.1622
16628TIP3   OH271298   0.961   6.046  15.208 -0.1444 -0.2072  0.4331
16628TIP3    H171299   1.028   6.113  15.219  0.8696 -1.4085  2.0973
16628TIP3    H271300   1.009   5.963  15.220 -1.5493 -1.1949 -0.4754
16629TIP3   OH271301   4.188   2.833   4.308 -0.6106 -0.1776  0.0938
16629TIP3    H171302   4.275   2.864   4.284  0.5320 -0.9422  2.7767
16629TIP3    H271303   4.199   2.738   4.320 -1.9090 -0.3406  0.1558
16630TIP3   OH271304   3.261   3.311  12.261 -0.1927 -0.4759 -0.1146
16630TIP3    H171305   3.311   3.367  12.202  0.3924  0.1226  0.9195
16630TIP3    H271306   3.180   3.359  12.278 -0.1169 -0.3860 -0.0010
16631TIP3   OH271307   6.376   2.439  13.660  0.4155  0.3748 -0.2327
16631TIP3    H171308   6.360   2.455  13.753 -2.0733 -0.1279 -0.4852
16631TIP3    H271309   6.359   2.524  13.618 -1.8771 -0.1479 -0.4980
16632TIP3   OH271310   4.616   6.144  14.124  0.9496 -0.0444  0.2846
16632TIP3    H171311   4.575   6.230  14.137  1.6689  0.1194  1.7108
16632TIP3    H271312   4.684   6.141  14.191  1.0765 -1.6505  0.0998
16633TIP3   OH271313   2.890   4.003   5.606  0.2404  0.2853  0.5536
16633TIP3    H171314   2.961   3.951   5.643 -0.0821 -1.7364 -1.4562
16633TIP3    H271315   2.889   3.981   5.513 -1.3430  2.2906  0.0179
16634TIP3   OH271316   0.190   2.610  12.123  0.4466  0.3966  0.1088
16634TIP3    H171317   0.096   2.623  12.136  0.1660 -0.8192 -0.4915
16634TIP3    H271318   0.215   2.549  12.192  0.5143 -0.2779 -0.5003
16635TIP3   OH271319   1.658   4.089  15.586  0.8827 -0.0487  0.1267
16635TIP3    H171320   1.661   4.182  15.607 -0.1187  0.1183 -0.3837
16635TIP3    H271321   1.595   4.052  15.648 -1.1175  0.2189 -1.6359
16636TIP3   OH271322   5.459   1.067  14.139  0.4243  0.2903 -0.2942
16636TIP3    H171323   5.470   1.046  14.046 -1.1714  0.9963 -0.6749
16636TIP3    H271324   5.496   0.992  14.185  2.0768  0.3296 -1.4600
16637TIP3   OH271325   1.892   6.321  13.354  0.0941  0.2702  0.5661
16637TIP3    H171326   1.887   6.278  13.269  0.7785  0.9151  0.1904
16637TIP3    H271327   1.835   6.269  13.411 -1.1667  0.4115 -0.5209
16638TIP3   OH271328   4.120   5.831   3.890  0.5911  0.5038  0.4571
16638TIP3    H171329   4.024   5.832   3.889  0.5604 -1.1727  0.1684
16638TIP3    H271330   4.145   5.824   3.798  0.9527 -0.4389  0.6220
16639TIP3   OH271331   5.228   1.197   0.911  0.6054  0.5521 -0.3327
16639TIP3    H171332   5.244   1.291   0.899 -0.5685  1.2549  2.7461
16639TIP3    H271333   5.306   1.165   0.956  1.3855 -0.2091 -2.1383
16640TIP3   OH271334   1.454   0.567  13.839  0.2131  0.1562  0.2412
16640TIP3    H171335   1.361   0.575  13.816  0.2103  1.5143  0.6337
16640TIP3    H271336   1.497   0.542  13.758 -0.4807 -0.4050  0.0359
16641TIP3   OH271337   0.870   2.106   0.565 -0.0985  0.0633  0.1134
16641TIP3    H171338   0.938   2.047   0.532  0.5206  0.9925 -0.2950
16641TIP3    H271339   0.793   2.050   0.575  0.7763 -1.0695  0.8229
16642TIP3   OH271340   2.972   0.663  17.592 -0.0377 -0.2221 -0.5191
16642TIP3    H171341   2.917   0.585  17.599  0.7035 -0.6101  1.8210
16642TIP3    H271342   3.010   0.674  17.679  1.8247  1.3320 -1.4374
16643TIP3   OH271343   0.257   2.277   2.946 -0.4916 -0.1263  0.1627
16643TIP3    H171344   0.224   2.310   2.862 -0.6012 -1.2614 -0.2599
16643TIP3    H271345   0.301   2.352   2.985  0.5848  0.1370 -1.4479
16644TIP3   OH271346   4.691   5.900  10.990  0.0241 -0.1168 -0.3421
16644TIP3    H171347   4.768   5.879  10.936 -0.1135 -1.4272 -0.0717
16644TIP3    H271348   4.722   5.891  11.080  0.0669  1.3778 -0.1803
16645TIP3   OH271349   0.526   2.899   1.644  0.0105  0.4210 -0.3595
16645TIP3    H171350   0.613   2.938   1.637  0.7790 -1.1179  0.1685
16645TIP3    H271351   0.467   2.973   1.660  1.0877  1.5803 -1.5812
16646TIP3   OH271352   2.112   5.036  11.926 -0.0196 -0.2136  0.4987
16646TIP3    H171353   2.100   5.131  11.930 -0.3767 -0.1592 -1.1411
16646TIP3    H271354   2.199   5.024  11.888  1.0350 -0.6021  2.8283
16647TIP3   OH271355   5.985   3.377  16.270  0.1961  0.2227 -0.1944
16647TIP3    H171356   6.028   3.333  16.344  0.4648  0.9802  0.1110
16647TIP3    H271357   5.958   3.306  16.212  0.5858 -0.3442  0.3078
16648TIP3   OH271358   2.127   0.534  14.302 -0.2978 -0.3196  0.2405
16648TIP3    H171359   2.108   0.626  14.286 -1.4138 -0.8044 -1.5703
16648TIP3    H271360   2.221   0.526  14.291 -0.1109  0.6776  0.9650
16649TIP3   OH271361   4.065   1.733  14.318 -0.1977  0.6697  0.1731
16649TIP3    H171362   4.153   1.761  14.294  0.3898 -0.6024  0.7348
16649TIP3    H271363   4.058   1.752  14.412 -0.0020 -0.4248  0.4315
16650TIP3   OH271364   2.795   1.429   2.169  0.5749  0.2448  0.0435
16650TIP3    H171365   2.766   1.520   2.172  2.2514  0.8562 -0.6252
16650TIP3    H271366   2.877   1.429   2.219  0.3068 -1.0377  0.5218
16651TIP3   OH271367   3.022   2.166  14.804 -0.2162  0.2694  0.0745
16651TIP3    H171368   2.941   2.216  14.818  0.8070  1.9760  0.2141
16651TIP3    H271369   3.091   2.220  14.843  1.1209 -0.7251 -0.7968
16652TIP3   OH271370   4.501   4.664   3.009  0.1329  0.6028 -0.0456
16652TIP3    H171371   4.568   4.619   3.060 -1.6155 -3.0346 -0.5747
16652TIP3    H271372   4.446   4.707   3.075  1.1865  0.9527  0.6300
16653TIP3   OH271373   0.822   0.663  13.739 -0.1337  0.3762  0.3452
16653TIP3    H171374   0.774   0.713  13.673 -0.0814  1.2114  0.9257
16653TIP3    H271375   0.855   0.729  13.800  0.2453 -0.3386  0.9338
16654TIP3   OH271376   6.342   3.852   1.139  0.3209 -0.1265 -0.6793
16654TIP3    H171377   6.309   3.790   1.074  1.6280 -0.9132 -0.6147
16654TIP3    H271378   6.329   3.808   1.223  3.8775 -1.6787 -0.7816
16655TIP3   OH271379   6.649   2.463  17.168 -0.7899  0.0242 -0.3402
16655TIP3    H171380   6.646   2.559  17.176 -0.9866  0.1906 -2.1154
16655TIP3    H271381   6.557   2.436  17.169 -0.7223 -0.2352  0.7497
16656TIP3   OH271382   0.846   2.159  16.703 -0.2554  0.0152  0.0557
16656TIP3    H171383   0.768   2.191  16.657  0.0527  1.4084  0.4366
16656TIP3    H271384   0.915   2.162  16.637 -0.2587  0.0217  0.0520
16657TIP3   OH271385   0.775   0.493   2.349  0.0792  0.1498 -0.0194
16657TIP3    H171386   0.845   0.558   2.352 -0.1235  0.4534 -1.3278
16657TIP3    H271387   0.797   0.431   2.419  1.0713  0.8117  0.2753
16658TIP3   OH271388   0.350   4.287  13.294 -0.3055 -0.1919 -0.6084
16658TIP3    H171389   0.383   4.226  13.227  2.3077  2.3745 -1.8794
16658TIP3    H271390   0.408   4.273  13.369  0.8265  1.1484 -1.1859
16659TIP3   OH271391   5.986   4.679   5.343  0.0645 -0.4801 -0.0556
16659TIP3    H171392   6.020   4.602   5.389 -1.6125 -0.7636  0.7729
16659TIP3    H271393   6.015   4.753   5.396  0.4596 -0.6164 -0.0726
16660TIP3   OH271394   1.413   0.297   2.948 -0.0855  0.2976 -0.2339
16660TIP3    H171395   1.421   0.216   2.998 -3.7448  0.4851  0.9172
16660TIP3    H271396   1.421   0.269   2.857  1.3176 -0.8934  0.2117
16661TIP3   OH271397   5.436   0.372   4.598  0.3913 -0.4779 -0.3541
16661TIP3    H171398   5.373   0.307   4.567 -1.0692  0.8004 -0.1667
16661TIP3    H271399   5.411   0.388   4.689  0.3359  0.7769 -0.5738
16662TIP3   OH271400   4.263   3.086  16.622 -0.1931 -0.3661  0.5059
16662TIP3    H171401   4.343   3.137  16.608  1.0550 -1.8019  2.0807
16662TIP3    H271402   4.224   3.080  16.535  1.0054  0.9890 -0.1778
16663TIP3   OH271403   3.966   2.055   4.983  0.0983  0.6333 -0.4748
16663TIP3    H171404   3.924   2.121   5.038  0.6432  1.2142 -0.7340
16663TIP3    H271405   4.059   2.077   4.987  0.2704 -0.0375 -0.6821
16664TIP3   OH271406   4.616   4.159  13.107 -0.1366  0.2262  0.2184
16664TIP3    H171407   4.642   4.069  13.085 -0.9998 -0.1782  0.8024
16664TIP3    H271408   4.605   4.202  13.022  0.8173 -0.0486 -0.0650
16665TIP3   OH271409   0.265   6.246   6.072 -0.2387  0.0742 -0.1710
16665TIP3    H171410   0.294   6.223   6.160 -1.6490 -0.5907  0.1601
16665TIP3    H271411   0.221   6.167   6.041 -1.5250  0.9515 -0.6639
16666TIP3   OH271412   3.052   5.580  16.278 -0.4327  0.2402 -0.6695
16666TIP3    H171413   3.130   5.625  16.309 -0.6159  0.9533 -1.2197
16666TIP3    H271414   3.077   5.541  16.194 -0.0468 -1.3769  0.1469
16667TIP3   OH271415   6.607   0.146   3.281 -0.0556  0.8328 -0.0673
16667TIP3    H171416   6.618   0.231   3.326  1.3836  1.4412 -1.4678
16667TIP3    H271417   6.517   0.120   3.301 -0.1445  2.0953  1.4017
16668TIP3   OH271418   2.566   0.170  11.883 -0.2261  0.5910  0.2227
16668TIP3    H171419   2.651   0.215  11.880 -0.3624  0.9680  1.2590
16668TIP3    H271420   2.556   0.131  11.797  0.6674  1.1642 -0.1607
16669TIP3   OH271421   0.629   1.271  14.103  0.0364  0.4520  0.0315
16669TIP3    H171422   0.631   1.303  14.013  0.6931  0.0826 -0.0932
16669TIP3    H271423   0.565   1.199  14.102  0.1670  0.3380 -0.1793
16670TIP3   OH271424   6.696   4.780   0.820 -0.1702 -0.2077 -0.2013
16670TIP3    H171425   6.736   4.701   0.784 -1.4212 -2.1156  2.2866
16670TIP3    H271426   6.636   4.810   0.752  0.6923 -1.1053 -1.3832
16671TIP3   OH271427   4.886   2.100  11.385 -0.4041  0.0488 -0.0514
16671TIP3    H171428   4.811   2.148  11.421  0.8810  1.4951  0.8639
16671TIP3    H271429   4.923   2.159  11.319 -0.0879 -0.6601 -0.5204
16672TIP3   OH271430   2.942   1.824  13.214 -0.1060 -0.2994 -0.3418
16672TIP3    H171431   2.941   1.821  13.119  1.8077  0.9445 -0.4585
16672TIP3    H271432   3.029   1.858  13.236 -1.6205  2.6531  1.7040
16673TIP3   OH271433   0.222   3.690   0.565 -0.0972 -0.6181 -0.3421
16673TIP3    H171434   0.256   3.776   0.544  0.2678 -0.8491 -0.7044
16673TIP3    H271435   0.127   3.702   0.565 -0.0588 -0.2827 -0.6870
16674TIP3   OH271436   1.832   3.436   3.476  0.1048 -0.3238 -0.4534
16674TIP3    H171437   1.827   3.507   3.411  0.5708  0.5864  0.4864
16674TIP3    H271438   1.842   3.480   3.560  0.0405 -1.5045  0.1999
16675TIP3   OH271439   1.916   2.866   0.341 -0.0631  0.1954 -0.5423
16675TIP3    H171440   1.927   2.931   0.271  1.6826 -1.0951 -1.5423
16675TIP3    H271441   1.902   2.918   0.420  1.3461  1.8031 -1.2942
16676TIP3   OH271442   1.235   6.323  15.614  0.9463 -0.3076  0.2101
16676TIP3    H171443   1.240   6.295  15.705  1.1987 -1.7102 -0.2040
16676TIP3    H271444   1.272   6.411  15.613  1.1568 -0.3722  1.4153
16677TIP3   OH271445   0.860   5.257  16.296 -0.0108  0.3170 -0.2650
16677TIP3    H171446   0.849   5.258  16.201 -0.0866  0.0791 -0.2614
16677TIP3    H271447   0.780   5.216  16.328  0.3911 -0.3997 -0.1580
16678TIP3   OH271448   1.627   6.358  16.355 -0.3453  0.1316  0.0935
16678TIP3    H171449   1.645   6.444  16.316  3.0269 -1.6261 -2.7990
16678TIP3    H271450   1.702   6.342  16.412 -0.4469 -1.2594 -0.1369
16679TIP3   OH271451   1.398   4.357   2.656 -0.3828 -0.0647 -0.0127
16679TIP3    H171452   1.466   4.407   2.700 -0.6206  2.0677 -1.8260
16679TIP3    H271453   1.316   4.389   2.695 -0.4334 -2.0987  1.6642
16680TIP3   OH271454   5.824   3.712  14.493 -0.0196 -0.1829 -0.8012
16680TIP3    H171455   5.830   3.742  14.583 -2.3203  0.7290 -0.8910
16680TIP3    H271456   5.785   3.785  14.445 -0.6604 -1.3534 -2.1533
16681TIP3   OH271457   2.407   2.385   4.145  0.5190  0.1135  0.0589
16681TIP3    H171458   2.490   2.412   4.107  0.7934  0.9323  1.2098
16681TIP3    H271459   2.344   2.452   4.117  0.2595 -0.4193 -0.6776
16682TIP3   OH271460   0.615   4.842  17.562 -0.1709  0.1345  0.5661
16682TIP3    H171461   0.624   4.888  17.478 -0.4234  0.6268  0.8108
16682TIP3    H271462   0.665   4.894  17.624  1.5296 -1.1938  0.3682
16683TIP3   OH271463   3.954   1.971  14.224  0.5034 -0.2351  0.0689
16683TIP3    H171464   3.962   2.028  14.300  1.2024  0.0489 -0.2066
16683TIP3    H271465   3.994   1.889  14.251 -2.6769 -1.5020  1.3109
16684TIP3   OH271466   1.599   6.678   2.775 -0.0047  0.3992  0.7379
16684TIP3    H171467   1.547   6.609   2.815 -2.3640  0.7943 -1.3952
16684TIP3    H271468   1.668   6.695   2.839 -2.0282 -0.6755  3.4503
16685TIP3   OH271469   3.943   2.711  13.198 -0.3860 -0.1752  0.1435
16685TIP3    H171470   3.939   2.805  13.178  0.8386 -0.3530 -1.1252
16685TIP3    H271471   4.029   2.699  13.239 -0.3923 -0.7906 -0.0144
16686TIP3   OH271472   4.342   5.894  15.253  1.1557  0.4855 -0.7984
16686TIP3    H171473   4.269   5.861  15.201 -0.0282  0.1847  0.9925
16686TIP3    H271474   4.365   5.821  15.311  0.9685  1.5221  0.6269
16687TIP3   OH271475   2.287   3.132   0.025 -0.0760  0.2220  0.2884
16687TIP3    H171476   2.292   3.181  -0.057 -0.7683 -0.0820  0.0585
16687TIP3    H271477   2.209   3.078   0.016  0.4549 -0.6319  0.7024
16688TIP3   OH271478   5.684   3.246  10.647 -0.0768  0.3660 -0.0584
16688TIP3    H171479   5.756   3.272  10.589  0.7156  0.7022  1.0420
16688TIP3    H271480   5.627   3.323  10.649  0.3262  0.6619  0.2536
16689TIP3   OH271481   2.193   0.616   1.111 -0.0511  0.0937  0.0848
16689TIP3    H171482   2.123   0.673   1.081 -1.6522 -2.0916 -0.5746
16689TIP3    H271483   2.178   0.605   1.205 -0.0268  0.3447  0.1185
16690TIP3   OH271484   2.489   3.872   1.189  0.3854  0.3122 -0.7850
16690TIP3    H171485   2.431   3.937   1.228 -0.1478 -1.0185  0.7451
16690TIP3    H271486   2.576   3.912   1.192 -0.1494  1.5362 -1.2794
16691TIP3   OH271487   6.664   5.999   4.430  0.5759 -0.1045  0.1039
16691TIP3    H171488   6.614   6.022   4.509 -0.4572  2.0332 -1.0629
16691TIP3    H271489   6.609   5.936   4.384 -0.0916  0.6365 -0.1431
16692TIP3   OH271490   4.715   0.324   4.080 -0.1612  0.7226  0.1471
16692TIP3    H171491   4.760   0.291   4.158 -0.0756  3.1272  1.1755
16692TIP3    H271492   4.743   0.264   4.010  2.0504  0.1929  1.3864
16693TIP3   OH271493   2.490   6.572   1.584 -0.6017 -0.2029  0.0315
16693TIP3    H171494   2.513   6.662   1.560 -1.0134 -0.3720 -1.0762
16693TIP3    H271495   2.547   6.517   1.530 -0.4515 -0.6171  0.5961
16694TIP3   OH271496   1.787   1.027   6.349  0.0538 -0.5332 -0.0366
16694TIP3    H171497   1.837   1.027   6.431 -0.9529  1.9789  0.6472
16694TIP3    H271498   1.702   0.992   6.373  0.4980 -2.0559 -0.5765
16695TIP3   OH271499   1.871   1.560  12.691 -0.0173 -0.2612  0.4405
16695TIP3    H171500   1.939   1.588  12.753  0.1942  1.2833 -0.4439
16695TIP3    H271501   1.919   1.541  12.610 -0.1606 -3.2123  0.9158
16696TIP3   OH271502   6.319   0.000   0.402  0.5803  0.1418 -0.3558
16696TIP3    H171503   6.312   0.000   0.498  0.6497  1.4649 -0.3308
16696TIP3    H271504   6.232  -0.025   0.372  0.7825 -1.1092  0.0472
16697TIP3   OH271505   3.211   2.554  14.227 -0.5046  0.2048 -0.4715
16697TIP3    H171506   3.162   2.534  14.147 -2.0951  2.4436 -0.1747
16697TIP3    H271507   3.143   2.581  14.289  0.8191 -0.2366  1.2102
16698TIP3   OH271508   5.509   2.482   5.793 -0.2796  0.0037  0.7038
16698TIP3    H171509   5.449   2.438   5.732  0.8296 -0.2596 -0.2353
16698TIP3    H271510   5.468   2.567   5.809 -0.7474 -0.0392 -0.1854
16699TIP3   OH271511   1.459   2.992   1.311 -0.0090  0.1098 -0.4876
16699TIP3    H171512   1.414   3.032   1.385 -1.3686  0.5541 -1.5244
16699TIP3    H271513   1.429   3.042   1.235 -1.4547 -2.5846 -1.7952
16700TIP3   OH271514   0.129   4.155  16.448 -0.2669 -0.2601 -0.2634
16700TIP3    H171515   0.035   4.168  16.464 -0.8840 -1.6056 -2.3325
16700TIP3    H271516   0.172   4.212  16.511 -2.4780  0.6629  0.5284
16701TIP3   OH271517   5.418   4.955   6.212  0.1190  0.1214 -0.1234
16701TIP3    H171518   5.323   4.967   6.211 -0.0956 -1.1195  1.3409
16701TIP3    H271519   5.450   5.014   6.144 -1.7498  0.0975 -1.1125
16702TIP3   OH271520   5.023   6.696   5.556 -0.3189  0.3445 -0.2607
16702TIP3    H171521   4.970   6.714   5.633  1.2394  0.9370  0.7180
16702TIP3    H271522   5.107   6.666   5.591 -0.0539 -0.7931 -1.7552
16703TIP3   OH271523   2.407   2.071   3.153  0.3956  0.3823  0.7914
16703TIP3    H171524   2.496   2.084   3.184  0.3896 -1.1379  1.5152
16703TIP3    H271525   2.379   2.158   3.122  1.5615  1.2149  1.9877
16704TIP3   OH271526   2.807   0.213   5.084 -0.5791  0.1614  0.5447
16704TIP3    H171527   2.743   0.206   5.013  1.3797 -2.4110 -1.1209
16704TIP3    H271528   2.855   0.294   5.065 -1.4569  0.6107  0.1828
16705TIP3   OH271529   1.170   1.893   1.856  0.2777 -0.4455 -0.8450
16705TIP3    H171530   1.200   1.804   1.877 -0.8583 -0.4962  0.7952
16705TIP3    H271531   1.145   1.930   1.941 -0.1748  1.1089 -1.6172
16706TIP3   OH271532   2.088   2.901  12.798  0.3647 -0.5417 -0.1128
16706TIP3    H171533   2.162   2.861  12.752 -0.8246 -1.9761 -0.8876
16706TIP3    H271534   2.044   2.953  12.731  0.7139  0.3929  0.3708
16707TIP3   OH271535   4.482   3.163  12.144  0.0643  0.4081 -0.2266
16707TIP3    H171536   4.494   3.070  12.158  0.9710  0.5205 -0.2261
16707TIP3    H271537   4.535   3.205  12.212  0.3675  0.9277 -0.7680
16708TIP3   OH271538   4.130   5.086  17.479  0.4192 -0.1863 -0.1397
16708TIP3    H171539   4.098   5.015  17.424 -0.3815  0.3849 -0.4307
16708TIP3    H271540   4.137   5.161  17.419 -0.8347  0.5483  0.5937
16709TIP3   OH271541   2.913   4.340   5.958 -0.1316  0.6452  0.4660
16709TIP3    H171542   2.917   4.380   6.045 -0.4854 -0.7864  1.1708
16709TIP3    H271543   2.844   4.388   5.912 -1.0832  0.3412  1.5510
16710TIP3   OH271544   0.618   4.335  15.056 -0.2297  0.3120  0.3819
16710TIP3    H171545   0.706   4.298  15.060 -0.9697 -1.4883  1.0647
16710TIP3    H271546   0.571   4.294  15.129 -1.9147  0.4546 -0.5628
16711TIP3   OH271547   2.881   6.052   6.140  0.0726  0.6126  0.5709
16711TIP3    H171548   2.957   6.104   6.164 -0.1586  1.1142  0.2216
16711TIP3    H271549   2.815   6.072   6.206 -0.1037  0.9685  0.2932
16712TIP3   OH271550   1.329   2.487  15.151 -0.5513 -0.0235  0.4477
16712TIP3    H171551   1.292   2.573  15.165 -2.3496 -0.6119 -0.3930
16712TIP3    H271552   1.262   2.440  15.101  1.1454 -1.3097 -0.7306
16713TIP3   OH271553   1.943   6.572  14.678  0.0309  0.9305 -0.3077
16713TIP3    H171554   1.866   6.530  14.717  0.4751  0.7611  0.3976
16713TIP3    H271555   1.966   6.642  14.739  0.1704  1.2674 -0.7432
16714TIP3   OH271556   2.337   2.930  11.705  0.3033 -0.1045 -0.0174
16714TIP3    H171557   2.363   2.846  11.742  1.9995  0.9097  1.2907
16714TIP3    H271558   2.259   2.955  11.755 -0.8093 -1.3011 -1.0918
16715TIP3   OH271559   0.166   3.285   2.367  0.4339 -0.0905 -0.1039
16715TIP3    H171560   0.212   3.231   2.431 -2.0312 -1.2524  0.7891
16715TIP3    H271561   0.142   3.364   2.416 -0.4117 -0.4575  0.0867
16716TIP3   OH271562   0.733   1.937   4.018  0.3500  0.0439  0.2096
16716TIP3    H171563   0.648   1.979   4.001  0.2013 -0.5612 -0.5497
16716TIP3    H271564   0.784   1.953   3.939  0.9138  0.2876  0.6111
16717TIP3   OH271565   5.681   1.635  13.392 -0.8924  0.1400 -0.5041
16717TIP3    H171566   5.733   1.715  13.389 -1.4179  0.5102  0.0036
16717TIP3    H271567   5.746   1.564  13.395 -0.4134  0.6024  0.3449
16718TIP3   OH271568   3.253   4.894  11.313 -0.4254  0.0975 -0.3674
16718TIP3    H171569   3.217   4.982  11.323  0.6329  0.5383 -0.2705
16718TIP3    H271570   3.201   4.840  11.372 -2.3012  0.2661 -1.7703
16719TIP3   OH271571   1.323   1.009  16.865 -0.0268 -0.5454  0.2607
16719TIP3    H171572   1.286   1.072  16.803 -0.9787 -2.6502 -1.4472
16719TIP3    H271573   1.260   1.008  16.937 -0.1124  0.2515  0.2133
16720TIP3   OH271574   1.853   3.815  11.392  1.1527 -0.0499  0.1638
16720TIP3    H171575   1.832   3.767  11.312  0.3345  0.8447 -0.1887
16720TIP3    H271576   1.927   3.769  11.430  1.7357 -0.3340 -1.2597
16721TIP3   OH271577   0.498   2.968   2.503 -0.0495  0.2296 -0.3776
16721TIP3    H171578   0.473   2.951   2.412 -1.2607  0.2782 -0.0678
16721TIP3    H271579   0.517   2.881   2.539 -0.0159  0.1635 -0.5515
16722TIP3   OH271580   2.694   2.012  13.201 -0.2931 -0.0261  0.0696
16722TIP3    H171581   2.752   2.088  13.206 -2.2313  1.4821  0.6887
16722TIP3    H271582   2.753   1.936  13.204  1.9156  1.3723 -3.0813
16723TIP3   OH271583   1.794   5.301   0.282 -0.0118 -0.0916  0.2234
16723TIP3    H171584   1.754   5.214   0.281 -0.3204  0.0311 -1.8774
16723TIP3    H271585   1.790   5.330   0.192 -1.0518  2.6532  1.0566
16724TIP3   OH271586   1.657   4.046   3.240  0.1813  0.0118 -0.3041
16724TIP3    H171587   1.738   4.010   3.278  1.3330  0.5763 -2.1022
16724TIP3    H271588   1.634   3.985   3.171  0.1260  0.8212 -1.0183
16725TIP3   OH271589   0.259   0.415   5.745 -0.4791 -0.3962  0.0656
16725TIP3    H171590   0.238   0.484   5.682  0.7739  0.4744  0.5452
16725TIP3    H271591   0.178   0.400   5.793 -0.4421  1.8536  0.9555
16726TIP3   OH271592   0.885   0.488   2.916 -0.1828 -0.0124  0.0675
16726TIP3    H171593   0.913   0.398   2.934  1.5751  0.4906  0.0180
16726TIP3    H271594   0.839   0.515   2.995  1.3538 -0.1894  1.0624
16727TIP3   OH271595   1.603   1.610   2.797  0.4280  0.1696  0.2812
16727TIP3    H171596   1.572   1.525   2.764 -0.8696  0.2517  1.1955
16727TIP3    H271597   1.690   1.621   2.759  0.1512 -1.0530 -0.7536
16728TIP3   OH271598   0.501   1.782   6.405 -0.0081  0.0667  0.2180
16728TIP3    H171599   0.591   1.808   6.383 -0.2803  0.3316 -0.6378
16728TIP3    H271600   0.466   1.745   6.324 -1.3452  1.8852 -0.1073
16729TIP3   OH271601   0.580   3.258  13.096 -0.3185  0.3865  0.7683
16729TIP3    H171602   0.560   3.346  13.063 -1.8152  1.1549  3.4504
16729TIP3    H271603   0.526   3.200  13.042 -1.1192  1.3721  0.4595
16730TIP3   OH271604   6.447   5.235  10.930 -0.2524  0.1445 -0.5795
16730TIP3    H171605   6.540   5.230  10.952 -0.0731  0.5912 -1.1963
16730TIP3    H271606   6.439   5.185  10.848  0.1561  3.0721 -2.5689
16731TIP3   OH271607   4.597   4.974   0.027 -0.1024 -0.5745 -0.1980
16731TIP3    H171608   4.577   5.037  -0.042 -0.8615 -0.2111  0.3425
16731TIP3    H271609   4.665   5.017   0.079  0.3006 -0.7497 -0.5707
16732TIP3   OH271610   1.878   6.642  12.573  0.3063 -0.2734  0.2693
16732TIP3    H171611   1.846   6.732  12.583  0.0376 -0.1122 -1.6655
16732TIP3    H271612   1.970   6.646  12.599 -0.4801 -0.1954  3.4080
16733TIP3   OH271613   0.920   5.884   0.757 -0.4058 -0.2695  0.5235
16733TIP3    H171614   0.993   5.860   0.814 -0.6153  0.1992  0.9982
16733TIP3    H271615   0.843   5.880   0.813 -0.6845 -0.3189  0.1378
16734TIP3   OH271616   2.590   1.954   0.445  0.3529 -0.5193 -0.3738
16734TIP3    H171617   2.506   1.930   0.407  0.5206 -2.2382  0.2529
16734TIP3    H271618   2.634   1.871   0.461  1.3064  0.2533  1.2680
16735TIP3   OH271619   4.593   0.837   5.919 -0.5506 -0.1993 -0.0562
16735TIP3    H171620   4.529   0.777   5.880  0.6001  0.3639 -2.9981
16735TIP3    H271621   4.571   0.923   5.884  1.6114  0.0423 -0.9759
16736TIP3   OH271622   4.469   6.474  15.926 -0.3316  0.3256  0.4288
16736TIP3    H171623   4.424   6.517  15.999 -3.6821  0.1728 -1.3503
16736TIP3    H271624   4.478   6.543  15.860 -1.7637 -0.5542 -0.7704
16737TIP3   OH271625   3.949   3.909   4.009 -0.0471 -0.5522  0.0648
16737TIP3    H171626   3.940   3.986   3.954 -1.0460 -0.3024  0.5596
16737TIP3    H271627   3.963   3.837   3.948 -2.1845 -0.4487 -0.6164
16738TIP3   OH271628   0.015   3.969  12.704  1.1238 -0.1781  0.1395
16738TIP3    H171629   0.093   3.990  12.756  0.9964  1.7546 -0.3550
16738TIP3    H271630  -0.002   4.049  12.655 -0.2042 -1.1413 -1.0269
16739TIP3   OH271631   0.022   5.499   0.307 -0.0752 -0.0335  0.1651
16739TIP3    H171632  -0.025   5.424   0.270  0.5043  0.1390 -0.9644
16739TIP3    H271633   0.115   5.474   0.302  0.0529  0.2532  0.9466
16740TIP3   OH271634   0.125   5.802   2.301 -0.4339 -0.0961 -0.0501
16740TIP3    H171635   0.161   5.843   2.380 -2.3863  0.9818  0.3427
16740TIP3    H271636   0.105   5.712   2.328  1.0877 -0.4563 -0.0384
16741TIP3   OH271637   6.206   3.110   4.730  0.4766  0.4097 -0.3958
16741TIP3    H171638   6.123   3.140   4.766  0.2869  0.3598 -0.7817
16741TIP3    H271639   6.224   3.172   4.659  0.7987  0.4567 -0.2739
16742TIP3   OH271640   1.504   6.020   0.073 -0.1597 -0.3997  0.3676
16742TIP3    H171641   1.528   5.928   0.081 -2.2397 -1.2316 -1.6550
16742TIP3    H271642   1.421   6.028   0.120 -0.9472 -0.0717 -0.9888
16743TIP3   OH271643   0.653   3.373   1.707  0.3663 -0.3639 -0.3843
16743TIP3    H171644   0.640   3.335   1.620 -1.5686 -0.9097  0.0885
16743TIP3    H271645   0.570   3.418   1.726  0.9871  0.2961  0.9249
16744TIP3   OH271646   2.269   4.149  15.245 -0.4254  0.5551  0.1881
16744TIP3    H171647   2.277   4.056  15.265  0.5257  0.6933  0.4833
16744TIP3    H271648   2.230   4.152  15.158  1.8191 -0.1807 -0.9205
16745TIP3   OH271649   0.186   3.936   0.794 -0.4427  0.3281 -0.2158
16745TIP3    H171650   0.257   3.900   0.741 -0.8703 -0.0182 -0.5596
16745TIP3    H271651   0.166   4.021   0.754 -1.7279 -0.5334 -1.5372
16746TIP3   OH271652   3.704   4.627  14.797  0.2163  0.3602 -0.1009
16746TIP3    H171653   3.786   4.668  14.770 -0.4810  0.9059 -1.4854
16746TIP3    H271654   3.682   4.568  14.724  0.1652 -0.9841  0.9573
16747TIP3   OH271655   4.029   1.561  16.653  0.3816  0.4479  0.2790
16747TIP3    H171656   4.039   1.627  16.584  1.2164  2.0138  1.8248
16747TIP3    H271657   4.113   1.559  16.697  0.2789 -1.4914  0.4685
16748TIP3   OH271658   0.440   2.940  14.906  0.1384  0.0338  0.4478
16748TIP3    H171659   0.450   3.017  14.962 -0.5314 -0.2519  0.9779
16748TIP3    H271660   0.437   2.976  14.817  0.6766  0.5410  0.6295
16749TIP3   OH271661   0.605   3.997   6.067 -0.5153  0.4087  0.3096
16749TIP3    H171662   0.610   3.903   6.048  0.4707  0.4698  0.2250
16749TIP3    H271663   0.620   4.002   6.162 -0.9689  0.4482  0.3786
16750TIP3   OH271664   6.120   6.496  12.263 -0.4678  0.5392 -0.4392
16750TIP3    H171665   6.183   6.424  12.270  1.1935  1.8230 -1.3419
16750TIP3    H271666   6.060   6.468  12.194  0.5935  0.2896 -1.2943
16751TIP3   OH271667   2.210   1.233   3.340 -0.8990 -0.1142  0.2252
16751TIP3    H171668   2.270   1.289   3.290 -2.8782  0.1362 -2.0301
16751TIP3    H271669   2.183   1.287   3.414 -0.7661  0.9752 -0.4942
16752TIP3   OH271670   1.876   2.639   2.829 -0.9143  0.8508 -0.6076
16752TIP3    H171671   1.894   2.733   2.818  1.0667  0.5540 -0.2227
16752TIP3    H271672   1.931   2.596   2.764  1.8462 -0.2514  2.2264
16753TIP3   OH271673   3.108   4.185  17.169  0.5115 -0.2396  0.4655
16753TIP3    H171674   3.031   4.201  17.223  0.6868 -1.9021  1.2618
16753TIP3    H271675   3.073   4.150  17.087  0.3234  1.1221 -0.0723
16754TIP3   OH271676   4.451   0.287  13.151 -0.1585  0.1510 -0.1902
16754TIP3    H171677   4.532   0.306  13.102  0.9875  0.2337  1.6392
16754TIP3    H271678   4.459   0.194  13.174 -1.4494 -0.3083 -1.4424
16755TIP3   OH271679   5.546   4.653  16.815 -0.4367  0.3163 -0.5868
16755TIP3    H171680   5.459   4.613  16.818 -1.7009  2.7755 -1.3566
16755TIP3    H271681   5.584   4.620  16.734 -0.4462 -1.0939 -0.0472
16756TIP3   OH271682   1.097   0.265   1.315  0.2615 -0.4637  0.3609
16756TIP3    H171683   1.064   0.323   1.246  2.1413  0.1866 -0.0325
16756TIP3    H271684   1.149   0.322   1.372 -0.0928 -1.2721  1.5446
16757TIP3   OH271685   3.947   3.270   2.260 -0.2388  0.4790 -0.2402
16757TIP3    H171686   3.913   3.303   2.343  0.4982 -2.2894  1.2891
16757TIP3    H271687   3.884   3.203   2.233 -0.2956  1.1116 -1.7980
16758TIP3   OH271688   4.669   0.062   2.673 -0.3649 -0.3130 -0.0611
16758TIP3    H171689   4.596   0.002   2.657  0.2679 -1.3684  0.8317
16758TIP3    H271690   4.711   0.028   2.753  2.3067 -0.9642 -1.6137
16759TIP3   OH271691   1.403   3.264   3.770 -0.1592 -0.4199 -0.0482
16759TIP3    H171692   1.458   3.192   3.738  0.6710 -0.6258  1.7415
16759TIP3    H271693   1.421   3.336   3.710  0.3004 -1.1739 -0.8485
16760TIP3   OH271694   5.347   2.004   1.555  0.1539  0.1616  0.1447
16760TIP3    H171695   5.411   2.018   1.485  0.7360 -0.7043  0.4837
16760TIP3    H271696   5.387   1.937   1.611 -0.7523  0.1035  0.7465
16761TIP3   OH271697   5.327   0.805  14.480  0.0921  0.0262 -0.2758
16761TIP3    H171698   5.363   0.877  14.532 -0.7459 -0.3819  0.9292
16761TIP3    H271699   5.306   0.844  14.395 -1.3008  1.4820  0.6718
16762TIP3   OH271700   3.525   5.479  13.631  0.2438  0.0181  0.3636
16762TIP3    H171701   3.443   5.449  13.669 -0.6359  0.7156 -0.9259
16762TIP3    H271702   3.508   5.570  13.606  1.1380 -0.0957 -0.7029
16763TIP3   OH271703   4.549   1.809  12.777  0.2148 -0.0826 -0.1901
16763TIP3    H171704   4.493   1.776  12.847 -1.4716 -1.3145 -1.9749
16763TIP3    H271705   4.606   1.735  12.755 -0.1398 -0.1409 -0.9386
16764TIP3   OH271706   5.212   1.940   1.194 -0.4209  0.3543 -0.3128
16764TIP3    H171707   5.121   1.970   1.191 -0.8018 -0.7195 -0.0128
16764TIP3    H271708   5.208   1.854   1.237  0.6527 -0.0140 -0.8977
16765TIP3   OH271709   1.818   3.011  16.804 -0.5327  0.1596 -0.1898
16765TIP3    H171710   1.826   3.062  16.723 -1.4940 -0.6929 -0.8436
16765TIP3    H271711   1.724   2.997  16.813 -0.3943 -0.1127  0.8610
16766TIP3   OH271712   0.573   2.298   4.017 -0.1483 -0.4190 -0.0542
16766TIP3    H171713   0.489   2.272   4.056 -1.1879  0.9441 -1.2974
16766TIP3    H271714   0.613   2.355   4.083 -0.9043  0.1450 -0.0737
16767TIP3   OH271715   3.745   2.090  13.122  0.0030  0.6403  0.1047
16767TIP3    H171716   3.775   2.152  13.189 -1.7703 -0.2370  1.8275
16767TIP3    H271717   3.749   2.005  13.166 -1.4625  0.0699 -0.8252
16768TIP3   OH271718   0.639   5.282  15.130 -0.1489  0.0431  0.0368
16768TIP3    H171719   0.718   5.327  15.101  1.0546 -0.8665  1.7102
16768TIP3    H271720   0.588   5.350  15.174  0.8743  0.1887  1.0731
16769TIP3   OH271721   6.473   2.979   4.438 -0.0044 -0.4056 -0.4396
16769TIP3    H171722   6.506   2.984   4.528 -1.3442  0.6971  0.0163
16769TIP3    H271723   6.545   3.012   4.385  0.7731 -0.9897  0.2154
16770TIP3   OH271724   1.398   2.690   2.682  0.0005  0.2523  0.0283
16770TIP3    H171725   1.489   2.704   2.710 -0.7622  0.3500  2.7710
16770TIP3    H271726   1.374   2.772   2.639  1.2622  0.1428 -0.9316
16771TIP3   OH271727   2.786   5.188   0.103 -0.0303  0.3610  0.1082
16771TIP3    H171728   2.827   5.111   0.064 -0.7382 -0.3515  0.7247
16771TIP3    H271729   2.858   5.238   0.140  0.3136 -0.7818  1.0387
16772TIP3   OH271730   0.734   5.111   6.549  0.0243  0.5585  0.1013
16772TIP3    H171731   0.749   5.020   6.524 -0.9473 -0.1675  1.9323
16772TIP3    H271732   0.801   5.130   6.614 -0.5166  0.7161  0.6315
16773TIP3   OH271733   1.157   2.462   4.408 -0.0873  0.2290 -0.2751
16773TIP3    H171734   1.067   2.472   4.379  0.3362  1.6951 -1.1455
16773TIP3    H271735   1.153   2.472   4.503 -1.0088 -1.1759 -0.1336
16774TIP3   OH271736   0.501   5.694   3.969  0.1533 -0.7762  0.3540
16774TIP3    H171737   0.538   5.780   3.950 -1.5549 -0.0506  0.0779
16774TIP3    H271738   0.569   5.649   4.018  1.0567  0.7687  0.5953
16775TIP3   OH271739   1.083   5.673  11.758  0.0923 -0.3862  0.5959
16775TIP3    H171740   1.114   5.724  11.683 -0.6273 -0.4915  0.2182
16775TIP3    H271741   1.105   5.582  11.736 -2.0470 -0.7035 -0.5320
16776TIP3   OH271742   4.939   0.334  14.837 -0.3533  0.2839 -0.8620
16776TIP3    H171743   4.925   0.389  14.759 -0.9353 -0.2112 -1.1102
16776TIP3    H271744   5.023   0.365  14.872  1.1206 -0.9981 -2.9861
16777TIP3   OH271745   1.496   1.854   2.334 -0.1923 -0.2215 -0.2067
16777TIP3    H171746   1.459   1.776   2.376 -1.0530  0.4862  0.3644
16777TIP3    H271747   1.463   1.850   2.244 -1.9135  0.5157  0.3433
16778TIP3   OH271748   6.250   4.039  13.148  0.3041  0.1719 -0.1906
16778TIP3    H171749   6.172   3.984  13.156 -0.4839  1.5312  2.8596
16778TIP3    H271750   6.320   3.977  13.127 -1.3967 -1.1490 -2.4753
16779TIP3   OH271751   5.888   3.301  12.623 -0.4298 -0.0270  0.6109
16779TIP3    H171752   5.920   3.309  12.533 -0.8005 -0.9103  0.3857
16779TIP3    H271753   5.829   3.376  12.635 -0.9428 -0.2971 -0.1378
16780TIP3   OH271754   4.169   0.239   6.640 -0.0201  0.1425 -0.4672
16780TIP3    H171755   4.253   0.197   6.624  0.6676  0.3805  2.0708
16780TIP3    H271756   4.173   0.322   6.592  1.5974  0.5677  0.3568
16781TIP3   OH271757   4.685   4.457  13.048  0.4538  0.2565  0.3902
16781TIP3    H171758   4.771   4.458  13.008  0.2736 -0.2264 -0.0168
16781TIP3    H271759   4.692   4.394  13.120 -0.2370 -1.8113 -1.2340
16782TIP3   OH271760   6.159   0.787  11.676  0.2094 -0.0452 -0.5685
16782TIP3    H171761   6.115   0.757  11.596  1.8094 -0.4285 -1.3514
16782TIP3    H271762   6.154   0.882  11.672  2.9612  0.1494 -2.8438
16783TIP3   OH271763   1.740   5.339   3.305  0.1969 -0.2987 -0.1362
16783TIP3    H171764   1.725   5.425   3.342 -1.4537 -0.4550 -0.3913
16783TIP3    H271765   1.799   5.296   3.368  0.0166  0.5571  0.6382
16784TIP3   OH271766   4.401   0.606   0.306 -0.2191 -0.0807 -0.2372
16784TIP3    H171767   4.373   0.621   0.216 -1.0150  0.0204  0.0246
16784TIP3    H271768   4.353   0.528   0.334 -2.7531  1.8620  1.2585
16785TIP3   OH271769   1.989   2.079   6.445 -0.3918  0.2985 -0.2900
16785TIP3    H171770   2.038   2.022   6.505 -1.2845 -2.0161 -1.6402
16785TIP3    H271771   1.987   2.164   6.490  1.2299 -0.6214  1.7093
16786TIP3   OH271772   1.898   4.224   2.716 -0.5921  0.0835 -0.1430
16786TIP3    H171773   1.861   4.305   2.681 -1.2563 -0.2639 -0.2566
16786TIP3    H271774   1.829   4.159   2.705 -0.7695 -0.0856  1.6268
16787TIP3   OH271775   3.308   1.618   2.681 -0.0065  0.1245 -0.0881
16787TIP3    H171776   3.310   1.539   2.627 -1.2654 -1.0609  1.4595
16787TIP3    H271777   3.220   1.652   2.670 -0.0863  0.2047  0.7070
16788TIP3   OH271778   5.357   2.388   2.167 -0.5188 -0.2950  0.0520
16788TIP3    H171779   5.440   2.399   2.122 -0.1558 -1.5985  0.3652
16788TIP3    H271780   5.376   2.409   2.258 -1.2073  2.1482 -0.2927
16789TIP3   OH271781   2.170   6.680   3.627  0.0901 -0.0726 -0.0623
16789TIP3    H171782   2.148   6.691   3.534  0.0192 -1.7367 -0.2901
16789TIP3    H271783   2.117   6.605   3.654  1.3478 -0.6510  0.8814
16790TIP3   OH271784   5.248   2.291   5.776 -0.1672 -0.2970  0.3160
16790TIP3    H171785   5.187   2.347   5.824  0.9829  1.3942 -0.0926
16790TIP3    H271786   5.298   2.247   5.844 -0.3986 -0.0273  0.6658
16791TIP3   OH271787   3.355   2.810   5.280  0.0975  0.2768  0.3587
16791TIP3    H171788   3.404   2.773   5.354  1.1988 -1.3955 -1.1282
16791TIP3    H271789   3.422   2.850   5.225 -0.5309  0.2287 -0.4555
16792TIP3   OH271790   0.417   5.820   5.547 -0.3131  0.5272 -0.3884
16792TIP3    H171791   0.353   5.752   5.527 -3.2890  3.1468 -0.5551
16792TIP3    H271792   0.428   5.815   5.642 -1.8099  0.7946 -0.1664
16793TIP3   OH271793   1.947   2.503  13.465  0.3425 -0.1727  0.1351
16793TIP3    H171794   1.997   2.463  13.536  2.8005  0.9111 -0.9056
16793TIP3    H271795   1.903   2.578  13.506  2.3091  0.8704  0.4158
16794TIP3   OH271796   1.389   4.140  15.420  0.4572  0.1903  0.1544
16794TIP3    H171797   1.367   4.217  15.473 -0.1718  0.4482 -0.4590
16794TIP3    H271798   1.433   4.176  15.343 -2.5544  0.3062 -1.6663
16795TIP3   OH271799   4.106   3.506  12.137 -0.6497 -0.3879  0.2467
16795TIP3    H171800   4.039   3.472  12.077  0.5258 -2.1222 -0.1560
16795TIP3    H271801   4.135   3.588  12.096 -3.5533  1.2911  1.2387
16796TIP3   OH271802   3.394   1.751   4.316  0.6464 -0.1275 -0.3518
16796TIP3    H171803   3.309   1.758   4.272 -0.9165 -1.0018  2.2983
16796TIP3    H271804   3.396   1.824   4.378  1.2821 -0.8067  0.4566
16797TIP3   OH271805   1.021   5.500  15.820 -0.3992  0.2464 -0.8354
16797TIP3    H171806   1.107   5.540  15.803  0.4267 -1.0485  0.1234
16797TIP3    H271807   0.974   5.509  15.737  0.6379  1.0113 -1.3719
16798TIP3   OH271808   5.653   2.443  11.294 -0.2651  0.0487 -0.0163
16798TIP3    H171809   5.729   2.470  11.242  1.3038 -0.4836  1.8509
16798TIP3    H271810   5.655   2.348  11.293 -1.2681  0.0248 -0.4206
16799TIP3   OH271811   1.102   2.847  13.998  0.3692  0.3194 -0.6631
16799TIP3    H171812   1.153   2.926  14.017  1.1714 -0.1679 -0.7494
16799TIP3    H271813   1.160   2.794  13.944 -0.0489 -0.4749 -0.3394
16800TIP3   OH271814   2.647   1.394  13.282  0.3232  0.1784 -0.5566
16800TIP3    H171815   2.701   1.452  13.229 -0.1941 -0.1575 -1.4575
16800TIP3    H271816   2.578   1.451  13.317  0.8579  0.4677  0.0509
16801TIP3   OH271817   5.059   6.191   0.560 -0.6112 -0.5453 -0.4402
16801TIP3    H171818   5.032   6.280   0.537  0.7215 -0.2607 -1.0123
16801TIP3    H271819   5.004   6.168   0.634 -1.5909  0.4213 -0.8324
16802TIP3   OH271820   3.750   4.236   0.810 -0.7325 -0.7756  0.7221
16802TIP3    H171821   3.671   4.225   0.864  0.5332 -0.9907  2.6352
16802TIP3    H271822   3.782   4.147   0.797 -2.2221 -0.9817 -2.4480
16803TIP3   OH271823   5.684   3.605   0.074 -0.3590  0.2949 -0.5212
16803TIP3    H171824   5.727   3.520   0.079 -0.8785 -0.0558 -1.7938
16803TIP3    H271825   5.754   3.668   0.092 -0.0062 -0.3815  0.5977
16804TIP3   OH271826   1.211   3.721  15.104  1.3146 -0.1744  0.0398
16804TIP3    H171827   1.164   3.749  15.183  0.3022 -0.9882 -0.2505
16804TIP3    H271828   1.227   3.803  15.056 -0.9517  0.0500 -0.4450
16805TIP3   OH271829   6.173   2.573  12.867  0.6183  0.4535 -0.0446
16805TIP3    H171830   6.155   2.666  12.853 -0.7006  0.0251 -1.4852
16805TIP3    H271831   6.164   2.561  12.961 -2.4995  1.1917 -0.1319
16806TIP3   OH271832   3.748   4.592   2.897 -0.6305  0.8631 -0.3603
16806TIP3    H171833   3.660   4.623   2.876 -1.1015 -0.4147 -0.3324
16806TIP3    H271834   3.774   4.645   2.973 -1.2882  1.3769 -0.4797
16807TIP3   OH271835   2.169   4.273   3.361 -0.1431  0.4580 -0.0847
16807TIP3    H171836   2.135   4.322   3.286 -0.8912  1.2378  0.7457
16807TIP3    H271837   2.198   4.340   3.423  2.9615 -0.1199 -0.7005
16808TIP3   OH271838   1.482   5.400  14.975  0.0662 -0.3760 -0.1436
16808TIP3    H171839   1.455   5.313  14.944  0.7520 -0.3749 -0.7878
16808TIP3    H271840   1.409   5.457  14.953 -0.4658 -0.8181  0.4431
16809TIP3   OH271841   6.604   3.101   3.450 -0.3687  0.3040  0.0913
16809TIP3    H171842   6.660   3.156   3.395  1.0022 -0.3083  0.8392
16809TIP3    H271843   6.661   3.032   3.483 -1.3993  0.0342  1.4364
16810TIP3   OH271844   2.635   4.977  15.443 -0.0578 -0.5322 -0.2324
16810TIP3    H171845   2.549   4.936  15.436  0.6163 -2.6186  2.2018
16810TIP3    H271846   2.698   4.906  15.429  1.2364  0.4115  0.4575
16811TIP3   OH271847   5.956   6.064   5.092  0.0869 -0.8694 -0.1473
16811TIP3    H171848   5.972   5.971   5.076  1.6055 -0.6607  0.0750
16811TIP3    H271849   5.967   6.074   5.186 -0.5426 -0.5414 -0.1059
16812TIP3   OH271850   0.707   6.535  12.561 -0.0348  0.1120 -1.0599
16812TIP3    H171851   0.740   6.537  12.471 -0.3963 -1.6626 -1.2695
16812TIP3    H271852   0.745   6.456  12.598 -0.6630  0.3243  0.0584
16813TIP3   OH271853   0.612   2.052  16.527 -0.8962  0.1853  0.3322
16813TIP3    H171854   0.615   2.115  16.455 -2.1539  1.4068  1.3098
16813TIP3    H271855   0.583   1.970  16.486  0.0691  0.3808 -0.8239
16814TIP3   OH271856   0.522   1.448   0.154 -0.4672 -0.4403  0.0263
16814TIP3    H171857   0.572   1.411   0.227 -1.6689 -0.6280  0.7699
16814TIP3    H271858   0.537   1.387   0.082 -0.4239 -1.0370  0.5296
16815TIP3   OH271859   2.405   6.199  14.346 -0.0426 -0.0842  0.4328
16815TIP3    H171860   2.496   6.225  14.358 -0.5882  1.4206  1.6263
16815TIP3    H271861   2.378   6.244  14.265 -0.1797  0.8263  0.9714
16816TIP3   OH271862   1.361   1.092   3.329 -0.5740 -0.2012  0.1198
16816TIP3    H171863   1.335   1.058   3.244 -0.1466  1.4830 -0.7309
16816TIP3    H271864   1.365   1.187   3.317  1.0769 -0.0329  1.5637
16817TIP3   OH271865   5.020   3.921   3.974  0.1770 -0.2846 -0.3659
16817TIP3    H171866   5.114   3.905   3.982  0.0510 -0.4315  1.1528
16817TIP3    H271867   4.982   3.875   4.050 -1.4420 -2.7787 -2.4978
16818TIP3   OH271868   6.514   3.126  13.492 -0.0142  0.2847  0.2708
16818TIP3    H171869   6.499   3.089  13.404  2.0903  0.8636 -0.3809
16818TIP3    H271870   6.482   3.058  13.552 -1.7871  0.0061 -0.9181
16819TIP3   OH271871   1.254   4.976  15.776 -0.0780  0.1150 -0.6658
16819TIP3    H171872   1.250   5.071  15.787  0.4982 -0.0408  1.1992
16819TIP3    H271873   1.323   4.947  15.836 -0.9499 -1.5857 -0.4092
16820TIP3   OH271874   6.709   0.960  16.323 -0.0729 -0.5888 -0.0422
16820TIP3    H171875   6.710   0.865  16.328 -1.7091 -0.5900  3.1502
16820TIP3    H271876   6.783   0.988  16.378 -0.1310 -0.0498 -0.2324
16821TIP3   OH271877   5.730   1.227  13.633 -0.0315 -0.3322  0.0253
16821TIP3    H171878   5.647   1.201  13.595 -0.1128 -0.7353  0.4721
16821TIP3    H271879   5.713   1.312  13.675 -0.1400 -0.2743 -0.1369
16822TIP3   OH271880   0.209   2.858   6.045 -0.2629  0.3202 -0.1691
16822TIP3    H171881   0.201   2.884   5.954 -1.4590  0.3167 -0.0819
16822TIP3    H271882   0.248   2.934   6.088 -2.0168  1.3276 -0.2519
16823TIP3   OH271883   1.467   3.007  14.991 -0.3727 -0.3385  0.2394
16823TIP3    H171884   1.544   3.062  15.008 -0.8581  0.2272  0.6859
16823TIP3    H271885   1.393   3.068  14.998 -0.7610 -0.4244 -2.2058
16824TIP3   OH271886   6.678   6.079   0.372 -0.6009 -0.2804  0.2932
16824TIP3    H171887   6.600   6.037   0.407 -0.5689  1.8754  3.3486
16824TIP3    H271888   6.749   6.019   0.392 -1.0935 -0.8919  0.2397
16825TIP3   OH271889   2.390   0.554   4.245 -0.4899  0.2564  0.1142
16825TIP3    H171890   2.328   0.491   4.281 -1.1599  0.5925 -0.4231
16825TIP3    H271891   2.341   0.636   4.241  0.2218  0.7042  0.3632
16826TIP3   OH271892   4.425   5.550   0.279 -0.7230 -0.2555  0.0003
16826TIP3    H171893   4.386   5.470   0.314 -2.4274  0.5215 -0.0162
16826TIP3    H271894   4.368   5.620   0.309  1.2140  1.1010  0.7657
16827TIP3   OH271895   3.209   0.476  14.511  0.0826 -0.4934  0.0222
16827TIP3    H171896   3.283   0.433  14.468 -1.2540 -2.7735 -0.1666
16827TIP3    H271897   3.159   0.516  14.440  1.2010  1.2964  0.1756
16828TIP3   OH271898   0.448   6.148  16.382  0.7889 -0.0996 -0.0175
16828TIP3    H171899   0.477   6.057  16.393 -2.0033 -1.2879 -1.5062
16828TIP3    H271900   0.460   6.166  16.289  0.7863  0.8730  0.1627
16829TIP3   OH271901   6.018   4.964  12.438  0.3122  0.2134  0.2484
16829TIP3    H171902   5.937   4.922  12.409  0.4804 -0.5237  0.8054
16829TIP3    H271903   5.990   5.050  12.469 -0.3289 -0.1673  0.7717
16830TIP3   OH271904   2.435   4.520   3.887 -0.5236  0.9336 -0.4193
16830TIP3    H171905   2.484   4.437   3.888 -1.5986  0.2857 -0.5428
16830TIP3    H271906   2.380   4.516   3.965 -0.9107  1.3329 -0.6724
16831TIP3   OH271907   5.677   6.208  17.162  0.5887  0.0947  1.0511
16831TIP3    H171908   5.645   6.234  17.248 -0.3793  0.1122  0.6912
16831TIP3    H271909   5.627   6.260  17.100 -0.5159 -1.6707  0.3732
16832TIP3   OH271910   2.885   3.674   1.390 -0.1990 -0.1633 -0.1415
16832TIP3    H171911   2.913   3.729   1.463  0.1391  2.7206 -2.2467
16832TIP3    H271912   2.809   3.719   1.353  1.6698  0.5269 -3.5610
16833TIP3   OH271913   0.113   2.654   1.650  0.5091 -0.0003 -0.3314
16833TIP3    H171914   0.200   2.660   1.611  1.6515 -0.8919  1.9407
16833TIP3    H271915   0.098   2.739   1.690  0.8988 -0.2673  0.3861
16834TIP3   OH271916   1.633   2.828   3.130 -0.1036  0.0175 -0.3417
16834TIP3    H171917   1.648   2.909   3.178  0.1402 -0.0542 -0.2941
16834TIP3    H271918   1.538   2.815   3.133  0.0098 -0.6760  1.2711
16835TIP3   OH271919   6.376   2.188  11.898 -0.0218  0.3225 -0.8054
16835TIP3    H171920   6.357   2.138  11.819 -1.0304  0.0800 -0.4126
16835TIP3    H271921   6.329   2.143  11.968  0.3720  0.8863 -0.1610
16836TIP3   OH271922   5.540   6.688   6.230 -0.0019  0.1368 -0.3277
16836TIP3    H171923   5.546   6.682   6.326 -1.7928  1.1145 -0.1106
16836TIP3    H271924   5.562   6.779   6.210 -0.3969  0.1349 -0.7759
16837TIP3   OH271925   1.111   1.367  15.468 -0.3551 -0.1537 -0.0494
16837TIP3    H171926   1.145   1.453  15.494  0.6446 -0.5337 -0.0621
16837TIP3    H271927   1.165   1.305  15.516 -0.1893 -0.8058 -1.0651
16838TIP3   OH271928   0.328   6.473   0.957  0.4889 -0.0303 -0.0842
16838TIP3    H171929   0.326   6.428   1.041 -1.1841 -1.2840 -0.7500
16838TIP3    H271930   0.251   6.441   0.910  0.7046  1.5535 -1.6339
16839TIP3   OH271931   3.600   5.484  14.557 -0.4159 -0.3313 -0.1573
16839TIP3    H171932   3.654   5.547  14.606 -0.8122  1.6542 -2.1178
16839TIP3    H271933   3.519   5.531  14.538 -1.0052 -1.6731 -1.1272
16840TIP3   OH271934   6.328   0.534  11.054  0.1939 -0.1045  0.1194
16840TIP3    H171935   6.269   0.460  11.069  1.4316 -0.9736  0.8520
16840TIP3    H271936   6.413   0.494  11.037  1.1769  1.1649  1.8107
16841TIP3   OH271937   0.280   5.431   6.622  0.0463 -0.2392 -0.0584
16841TIP3    H171938   0.198   5.398   6.658 -1.5760  0.4062 -2.8978
16841TIP3    H271939   0.311   5.360   6.565  2.2120 -0.9758  1.8438
16842TIP3   OH271940   4.349   1.191  13.817  0.2601 -0.3992 -0.0673
16842TIP3    H171941   4.307   1.263  13.863  3.1165 -0.1955  2.5306
16842TIP3    H271942   4.356   1.121  13.883  1.4917 -1.3859 -1.1847
16843TIP3   OH271943   0.625   3.778  15.827 -0.4264 -0.2204 -0.3290
16843TIP3    H171944   0.645   3.843  15.895 -0.9279 -0.3941 -0.0126
16843TIP3    H271945   0.644   3.823  15.745  1.2688 -0.3638 -0.0662
16844TIP3   OH271946   4.212   0.771   3.517 -0.7395  0.0357  0.0806
16844TIP3    H171947   4.168   0.850   3.549  1.1032  0.7849  0.8800
16844TIP3    H271948   4.254   0.798   3.436 -2.9984 -1.1119 -1.5806
16845TIP3   OH271949   2.647   3.747   4.429  0.8537 -0.2185  0.5715
16845TIP3    H171950   2.560   3.786   4.419  0.5610 -1.3436 -2.2183
16845TIP3    H271951   2.707   3.821   4.438 -0.1798  0.6383  0.5128
16846TIP3   OH271952   1.180   4.452  15.118 -0.2477  0.4223 -0.1848
16846TIP3    H171953   1.156   4.376  15.065  0.1752  1.1951 -1.5324
16846TIP3    H271954   1.101   4.506  15.119 -0.2629  0.3967  0.0010
16847TIP3   OH271955   3.075   2.315  15.105  0.2368 -0.0683  0.2478
16847TIP3    H171956   3.035   2.230  15.121  0.4239 -0.1968  0.0214
16847TIP3    H271957   3.167   2.304  15.128  0.0576  0.3606  1.2386
16848TIP3   OH271958   3.857   2.757  16.355 -0.3985 -0.1875 -0.4232
16848TIP3    H171959   3.802   2.835  16.352  0.4609  0.4790  0.5998
16848TIP3    H271960   3.822   2.707  16.429  0.6502  0.4812  0.5557
16849TIP3   OH271961   2.519   5.323  11.547 -0.4506 -0.4602  0.1433
16849TIP3    H171962   2.565   5.263  11.489 -1.5568 -2.5511  1.3342
16849TIP3    H271963   2.588   5.379  11.583  0.7108 -1.4399 -0.5004
16850TIP3   OH271964   2.772   2.587   2.649  0.1219 -0.0469 -0.0060
16850TIP3    H171965   2.736   2.532   2.580  1.7664  1.9224 -2.5886
16850TIP3    H271966   2.698   2.642   2.676 -0.2760 -0.0277 -1.0878
16851TIP3   OH271967   5.704   5.399  13.264 -0.1999  0.0743 -0.1794
16851TIP3    H171968   5.685   5.449  13.185 -2.0620 -0.1067  0.1193
16851TIP3    H271969   5.619   5.382  13.303  0.4224 -2.4727  0.2629
16852TIP3   OH271970   2.401   0.128  14.911 -0.5806  0.1292  0.1218
16852TIP3    H171971   2.495   0.136  14.896 -0.6405  3.1130  0.7225
16852TIP3    H271972   2.365   0.104  14.826  0.6529 -0.4651 -0.2566
16853TIP3   OH271973   3.692   2.121   2.630 -0.2773 -0.3495  0.2949
16853TIP3    H171974   3.632   2.143   2.558  0.6798 -0.5901 -0.6057
16853TIP3    H271975   3.641   2.138   2.709 -0.5391  2.5030 -0.3469
16854TIP3   OH271976   4.872   2.968  11.500  0.4542 -0.2125  0.5009
16854TIP3    H171977   4.865   2.909  11.575  1.1817  2.4435  2.8553
16854TIP3    H271978   4.965   2.968  11.478  0.3721 -0.3305  0.1484
16855TIP3   OH271979   4.084   0.682  16.468  0.1049  0.1229 -0.7220
16855TIP3    H171980   4.040   0.645  16.544  0.6417  1.8167  0.4664
16855TIP3    H271981   4.175   0.653  16.477  0.0130 -0.3085 -1.1505
16856TIP3   OH271982   4.880   3.981  13.150 -0.9751  0.5374  0.7042
16856TIP3    H171983   4.962   4.005  13.192  0.2788 -1.4297 -0.4307
16856TIP3    H271984   4.826   3.944  13.220  0.6108 -1.6108  0.8653
16857TIP3   OH271985   5.522   4.477   0.992  0.0461  0.1075  0.4251
16857TIP3    H171986   5.553   4.407   1.049  2.3324  2.4548  2.2769
16857TIP3    H271987   5.497   4.548   1.051  2.1597  2.5145 -1.3614
16858TIP3   OH271988   1.662   4.922  15.483 -0.3867  0.2476 -0.0673
16858TIP3    H171989   1.698   4.906  15.570 -0.9974  0.0575  0.1572
16858TIP3    H271990   1.655   5.018  15.477  0.8289  0.3351 -0.4048
16859TIP3   OH271991   3.168   0.287  15.764  0.2785  0.3307 -0.1482
16859TIP3    H171992   3.160   0.361  15.825 -0.8698 -0.9365  1.3454
16859TIP3    H271993   3.219   0.222  15.813  2.2667  0.5123 -1.8678
16860TIP3   OH271994   4.496   4.370   3.300  0.1617  0.3926  0.2515
16860TIP3    H171995   4.430   4.326   3.247 -0.8787  1.1339  0.8896
16860TIP3    H271996   4.552   4.300   3.332 -0.6327 -0.3142  0.1259
16861TIP3   OH271997   1.848   0.661   2.303 -0.5622  0.1690 -0.4736
16861TIP3    H171998   1.895   0.742   2.324  1.8380 -1.3132  0.3575
16861TIP3    H271999   1.814   0.675   2.215  0.6984  1.7103 -0.7636
16862TIP3   OH272000   5.595   2.014   5.389 -0.2432 -0.0357  0.0283
16862TIP3    H172001   5.546   2.066   5.324  0.3651 -0.9839 -1.2325
16862TIP3    H272002   5.589   2.065   5.470 -1.7421  0.7770 -0.5515
16863TIP3   OH272003   0.396   5.076  10.970 -0.3743 -0.1548  0.0172
16863TIP3    H172004   0.416   5.169  10.956 -0.8755 -0.2343 -1.3912
16863TIP3    H272005   0.305   5.077  11.001 -0.6792 -0.2237 -0.8691
16864TIP3   OH272006   5.467   1.633  15.632  0.0785  0.3921 -0.4687
16864TIP3    H172007   5.394   1.692  15.651  0.5644  0.7963  0.1850
16864TIP3    H272008   5.544   1.690  15.631  0.3722  0.0038 -1.3628
16865TIP3   OH272009   3.021   1.352  11.263 -0.1392 -0.0128 -0.2865
16865TIP3    H172010   2.936   1.309  11.250  0.8612 -1.7491 -1.4993
16865TIP3    H272011   3.083   1.280  11.274  1.3506  1.1739 -0.5303
16866TIP3   OH272012   4.913   0.093  15.445  0.8716 -0.7037  0.2439
16866TIP3    H172013   4.953   0.061  15.526  2.5202 -0.1023 -0.3003
16866TIP3    H272014   4.919   0.019  15.385  0.1000 -0.9850  0.4977
16867TIP3   OH272015   6.350   1.723   0.509 -0.3603  0.2250 -0.4138
16867TIP3    H172016   6.423   1.730   0.447 -0.2742  0.2602 -0.3083
16867TIP3    H272017   6.333   1.813   0.536  0.0144  0.1439  0.0917
16868TIP3   OH272018   0.507   2.305  14.948 -0.2841  0.1903  0.1630
16868TIP3    H172019   0.451   2.351  14.885  1.0369  0.7973 -0.6051
16868TIP3    H272020   0.533   2.225  14.903 -0.6293 -0.1643  0.5777
16869TIP3   OH272021   1.029   1.355  16.513 -0.1506 -0.1333  0.3448
16869TIP3    H172022   1.124   1.360  16.505  0.1790 -0.6181  3.1409
16869TIP3    H272023   1.004   1.438  16.553 -0.8211 -0.3608  0.4058
16870TIP3   OH272024   6.389   6.513   3.378  0.8009 -0.6046  0.2833
16870TIP3    H172025   6.395   6.431   3.328  0.6336 -1.3685  1.4670
16870TIP3    H272026   6.319   6.497   3.441  1.9510 -0.2330  1.7094
16871TIP3   OH272027   0.035   2.010   2.189  0.0079 -0.3039 -0.2328
16871TIP3    H172028  -0.049   2.040   2.156 -0.1072 -0.9018 -0.4909
16871TIP3    H272029   0.016   1.973   2.275  0.0102 -0.4204 -0.2823
16872TIP3   OH272030   4.045   6.619   2.874  0.8223  0.3161 -0.1894
16872TIP3    H172031   4.011   6.708   2.883  3.0830  1.1175  1.3609
16872TIP3    H272032   4.058   6.589   2.964  3.8426  0.0369 -0.6155
16873TIP3   OH272033   0.467   0.857   5.081 -0.2102  0.1572 -0.3179
16873TIP3    H172034   0.423   0.931   5.040  0.4447  0.7122 -0.0353
16873TIP3    H272035   0.399   0.790   5.089 -0.9767  0.9537  0.0041
16874TIP3   OH272036   1.166   4.640   2.832  0.2112 -1.1465  0.4824
16874TIP3    H172037   1.089   4.583   2.825 -0.2695 -0.4897  0.3336
16874TIP3    H272038   1.196   4.651   2.741 -1.4437  1.1667  0.1308
16875TIP3   OH272039   0.859   0.778   0.006 -0.3026  0.1664 -0.1069
16875TIP3    H172040   0.945   0.738   0.017 -1.2260 -1.5873  1.3478
16875TIP3    H272041   0.856   0.846   0.074  0.0476  0.4611 -0.3825
16876TIP3   OH272042   6.454   6.558  15.340 -0.5933 -0.0402 -0.1760
16876TIP3    H172043   6.470   6.546  15.246 -0.1606 -2.6297  0.1733
16876TIP3    H272044   6.536   6.598  15.372 -0.2837 -0.2342 -0.7045
16877TIP3   OH272045   4.756   1.069  16.089 -0.5766  0.0199  0.5318
16877TIP3    H172046   4.772   1.132  16.159 -0.1092  2.1790 -1.4102
16877TIP3    H272047   4.824   1.086  16.025 -1.2835 -1.5419 -0.7050
16878TIP3   OH272048   2.590   1.457   1.724 -0.1734 -0.4669 -0.1230
16878TIP3    H172049   2.578   1.434   1.632 -2.3581  0.7791 -0.2270
16878TIP3    H272050   2.556   1.381   1.772  1.3424 -1.2884 -0.2979
16879TIP3   OH272051   0.438   3.228   5.091  0.4945 -0.2283  0.0177
16879TIP3    H172052   0.494   3.200   5.163 -0.7881 -0.2145  1.0566
16879TIP3    H272053   0.402   3.147   5.055  1.1794 -0.2391 -0.6588
16880TIP3   OH272054   1.440   5.841  16.846  0.2156 -0.1431  0.4800
16880TIP3    H172055   1.535   5.849  16.845  0.2302 -0.1423 -0.9527
16880TIP3    H272056   1.408   5.931  16.859  0.4268  0.1806 -1.0558
16881TIP3   OH272057   3.251   1.456   5.952 -0.0836 -0.2659  0.0919
16881TIP3    H172058   3.174   1.458   6.009 -1.1730 -1.2567 -1.2755
16881TIP3    H272059   3.232   1.521   5.884  0.9319  0.4768  0.4999
16882TIP3   OH272060   5.625   3.526  15.355  0.0696 -0.5709  0.0405
16882TIP3    H172061   5.630   3.450  15.296  1.9609 -0.7356  0.3307
16882TIP3    H272062   5.533   3.549  15.357 -0.2008 -1.1483 -2.2518
16883TIP3   OH272063   1.727   3.101   5.842 -0.9595 -0.1883 -0.1012
16883TIP3    H172064   1.744   3.159   5.768 -0.5088  1.2393  1.0849
16883TIP3    H272065   1.812   3.060   5.860 -1.1121 -0.6803 -0.4762
16884TIP3   OH272066   2.698   5.062   6.207 -0.1331  0.6234 -0.0966
16884TIP3    H172067   2.768   5.002   6.233 -0.8620 -1.4591 -2.6026
16884TIP3    H272068   2.629   5.047   6.272 -0.2068 -1.1069 -0.5384
16885TIP3   OH272069   5.507   4.616  12.690 -0.2887  0.0503  0.2488
16885TIP3    H172070   5.516   4.523  12.669  0.0667 -0.4654  2.4970
16885TIP3    H272071   5.557   4.661  12.621 -1.3282 -1.3100 -1.4850
16886TIP3   OH272072   5.107   3.674  11.031 -0.3310 -0.0263 -0.2095
16886TIP3    H172073   5.077   3.744  10.972  0.2470  0.8088  0.4711
16886TIP3    H272074   5.141   3.607  10.972 -1.4420 -0.0098 -0.8991
16887TIP3   OH272075   6.115   3.254  17.603  1.2976  0.0223  0.2167
16887TIP3    H172076   6.144   3.292  17.520 -0.8574  0.6755 -0.3008
16887TIP3    H272077   6.157   3.168  17.606  1.9805  0.2723 -1.1985
16888TIP3   OH272078   0.093   4.296   6.001  0.1118  0.7491 -0.0876
16888TIP3    H172079   0.064   4.296   6.092  0.8845  0.8846  0.1613
16888TIP3    H272080   0.017   4.265   5.952 -0.8004  2.0250  0.4496
16889TIP3   OH272081   0.472   4.461  16.935  0.0054 -0.1342  0.1936
16889TIP3    H172082   0.404   4.451  17.002  0.7859  1.2509  1.2307
16889TIP3    H272083   0.469   4.554  16.912  2.1283  0.1504  0.9087
16890TIP3   OH272084   5.269   3.127  12.215 -0.5977  0.3759 -0.1965
16890TIP3    H172085   5.276   3.069  12.290 -0.3923 -0.2922 -0.7249
16890TIP3    H272086   5.190   3.179  12.232 -0.0518  0.8710  0.9102
16891TIP3   OH272087   2.985   4.091   0.312  0.2696 -0.4975  0.1583
16891TIP3    H172088   2.971   4.106   0.405  0.9585 -2.1607  0.5508
16891TIP3    H272089   2.990   3.996   0.303 -0.5915 -0.4076 -1.7036
16892TIP3   OH272090   4.745   4.406  15.945  0.2639  0.1984  0.2080
16892TIP3    H172091   4.753   4.372  16.034 -2.2223  0.3887  0.5779
16892TIP3    H272092   4.714   4.331  15.894 -0.0702  0.5511 -0.1086
16893TIP3   OH272093   0.497   3.097  14.367 -0.0718  0.3615  0.2557
16893TIP3    H172094   0.527   3.053  14.287 -0.7333  0.1552  0.1083
16893TIP3    H272095   0.509   3.190  14.349 -0.5583  0.3379 -0.2465
16894TIP3   OH272096   6.525   3.404   5.736 -0.2943  0.5537  0.5196
16894TIP3    H172097   6.548   3.431   5.825 -0.0642  0.8796  0.3628
16894TIP3    H272098   6.560   3.474   5.680  0.5057 -0.1783  0.0878
16895TIP3   OH272099   6.674   3.484  12.494  0.1900  0.0472 -0.4818
16895TIP3    H172100   6.668   3.433  12.414  2.2647 -2.5025  0.8550
16895TIP3    H272101   6.617   3.439  12.556 -0.0247  0.9555  0.0023
16896TIP3   OH272102   0.629   5.961   6.288  1.0695 -0.2012  0.3226
16896TIP3    H172103   0.716   5.999   6.299  0.0664  1.9235  1.3481
16896TIP3    H272104   0.577   5.998   6.359 -1.2548  0.3452 -1.5248
16897TIP3   OH272105   0.772   1.170  13.788 -0.1590 -0.2915  0.2252
16897TIP3    H172106   0.692   1.163  13.736  0.1827 -0.0124 -0.3566
16897TIP3    H272107   0.789   1.264  13.794 -0.1601 -0.3251  0.7980
16898TIP3   OH272108   3.613   4.548  17.074  0.5320 -0.1757 -0.5639
16898TIP3    H172109   3.558   4.533  17.150 -1.2028  0.7029 -1.5773
16898TIP3    H272110   3.693   4.587  17.110 -0.0290 -0.2541  0.8441
16899TIP3   OH272111   2.908   6.079   1.406  0.0841 -0.5397  0.2527
16899TIP3    H172112   2.838   6.098   1.468 -1.0790 -0.9926 -0.8731
16899TIP3    H272113   2.953   6.004   1.444  0.0614 -0.1587  1.0597
16900TIP3   OH272114   0.450   2.864   5.233 -0.6155  0.0256 -0.4370
16900TIP3    H172115   0.379   2.928   5.242 -1.0111 -0.3099 -1.0866
16900TIP3    H272116   0.505   2.899   5.163 -0.3958  0.0452 -0.2565
16901TIP3   OH272117   0.639   2.960  16.870  0.0625  0.6004  0.3386
16901TIP3    H172118   0.648   2.888  16.932 -2.8878 -0.6665 -0.5712
16901TIP3    H272119   0.707   2.944  16.804  0.3462 -0.5288  0.8918
16902TIP3   OH272120   6.250   2.930  15.892  0.1479  0.0007  0.1720
16902TIP3    H172121   6.285   2.850  15.853 -0.6969  0.1432 -0.9418
16902TIP3    H272122   6.186   2.899  15.957 -0.2784 -0.2334 -0.3552
16903TIP3   OH272123   0.033   0.816   2.369  0.1021  0.1360  0.2610
16903TIP3    H172124   0.018   0.773   2.454  0.4326  2.6666  1.6812
16903TIP3    H272125   0.093   0.887   2.388 -0.9984  1.7383 -1.8093
16904TIP3   OH272126   5.725   3.061  17.054 -0.4921 -0.1206  0.4079
16904TIP3    H172127   5.653   3.067  17.117  0.2998  0.4180  1.2782
16904TIP3    H272128   5.771   3.144  17.062 -1.6855  0.9776 -2.5380
16905TIP3   OH272129   5.300   5.449  16.999 -0.0457 -0.3097 -0.1194
16905TIP3    H172130   5.262   5.526  17.042  0.9422  0.7098 -1.0079
16905TIP3    H272131   5.249   5.439  16.919 -0.2206 -0.6310  0.0304
16906TIP3   OH272132   3.916   4.055  15.130 -0.1326 -0.0508 -0.2916
16906TIP3    H172133   3.913   3.966  15.165  0.3945 -0.0882 -0.3277
16906TIP3    H272134   4.010   4.076  15.126 -0.2041  0.1591 -1.1345
16907TIP3   OH272135   4.490   2.680   6.091  0.0725  0.0500  0.2894
16907TIP3    H172136   4.577   2.688   6.129  0.3900  1.3719 -0.6497
16907TIP3    H272137   4.506   2.646   6.003 -0.2126  1.5946 -0.3898
16908TIP3   OH272138   3.922   5.508   1.005  0.5658 -0.8236  0.0361
16908TIP3    H172139   3.947   5.418   0.982 -1.0499 -1.5456  0.8957
16908TIP3    H272140   3.994   5.562   0.974  0.8064 -2.2391 -2.0640
16909TIP3   OH272141   4.044   1.643   3.268  0.1160 -0.0777 -0.1478
16909TIP3    H172142   4.013   1.554   3.285 -0.2485  0.2205  0.8130
16909TIP3    H272143   4.108   1.660   3.337  0.4532  0.2788 -0.5410
16910TIP3   OH272144   0.568   2.431  17.348 -0.5025 -0.0672 -0.3519
16910TIP3    H172145   0.520   2.369  17.294  2.8379 -0.8734 -2.7068
16910TIP3    H272146   0.588   2.504  17.290  0.3683  0.6272  0.7671
16911TIP3   OH272147   5.784   5.079  12.069 -0.4496  0.3229  0.2036
16911TIP3    H172148   5.780   4.987  12.040 -2.5213  0.0728  1.1432
16911TIP3    H272149   5.705   5.119  12.032 -0.4597  1.2947  1.2361
16912TIP3   OH272150   6.191   4.100   4.739  0.2889 -0.2156 -0.4519
16912TIP3    H172151   6.279   4.135   4.727 -0.2646  0.8659 -1.6299
16912TIP3    H272152   6.161   4.138   4.822 -0.5472  2.8383 -1.9985
16913TIP3   OH272153   6.031   3.436   6.706  0.4015 -0.0350  0.5108
16913TIP3    H172154   5.980   3.363   6.670  2.1251 -1.9443  1.7307
16913TIP3    H272155   6.105   3.446   6.647  0.5789  0.2186  0.7722
16914TIP3   OH272156   0.101   3.259   3.951 -0.1422  0.0079  0.0144
16914TIP3    H172157   0.166   3.330   3.953  1.3213 -1.2786  0.1026
16914TIP3    H272158   0.152   3.181   3.929 -1.6622 -1.0654  0.1848
16915TIP3   OH272159   5.770   1.037   4.978 -0.3368 -0.0607 -0.1199
16915TIP3    H172160   5.734   1.096   4.911 -0.1202  1.2169  0.8606
16915TIP3    H272161   5.696   1.015   5.034 -0.3101 -0.3057 -0.1794
16916TIP3   OH272162   3.865   1.210   0.665  0.0377  0.0370 -0.1688
16916TIP3    H172163   3.837   1.123   0.695 -2.5114  1.5313  2.2478
16916TIP3    H272164   3.823   1.220   0.580  1.2595 -1.4335 -1.0101
16917TIP3   OH272165   3.524   3.309   1.632 -0.0238  0.6403 -0.3173
16917TIP3    H172166   3.493   3.242   1.571  1.8746  0.0373 -0.6950
16917TIP3    H272167   3.449   3.329   1.687 -1.3797  0.1541 -1.9290
16918TIP3   OH272168   1.589   0.804  15.920  0.2317 -0.1258  0.2759
16918TIP3    H172169   1.580   0.710  15.930 -0.7216 -0.0172  0.4928
16918TIP3    H272170   1.669   0.815  15.868 -0.3566 -1.1148 -0.8992
16919TIP3   OH272171   1.973   5.976   3.066  0.7833  0.5415  0.3012
16919TIP3    H172172   1.927   6.047   3.112  0.2119 -1.1550  2.4819
16919TIP3    H272173   2.065   5.989   3.089  0.7162  0.7407  0.4609
16920TIP3   OH272174   4.803   6.065  13.908  0.5176  0.1183 -0.4137
16920TIP3    H172175   4.873   6.123  13.936 -0.1565  1.5608 -1.5847
16920TIP3    H272176   4.740   6.066  13.980  2.5717 -2.9322  1.6619
16921TIP3   OH272177   1.870   4.062   0.971 -0.2714  0.4329  0.5098
16921TIP3    H172178   1.927   3.994   1.006  0.1454  0.2429 -0.5229
16921TIP3    H272179   1.790   4.016   0.947  0.4339  0.0752 -1.2674
16922TIP3   OH272180   0.484   0.744   2.813 -0.8529  0.3866  0.1674
16922TIP3    H172181   0.408   0.741   2.754 -1.3783 -0.5010  0.8665
16922TIP3    H272182   0.541   0.674   2.781 -0.8769  0.2749  0.3721
16923TIP3   OH272183   5.687   4.122  15.941  0.4472  0.3596  0.0976
16923TIP3    H172184   5.688   4.166  16.026 -0.3550  0.0239  0.2906
16923TIP3    H272185   5.665   4.031  15.961  1.1171  0.0833 -0.3928
16924TIP3   OH272186   0.113   5.491   4.594 -0.2328 -0.2252 -0.1335
16924TIP3    H172187   0.136   5.584   4.592  0.5743 -0.4143 -1.7070
16924TIP3    H272188   0.071   5.475   4.509  1.9693 -1.8031 -1.0105
16925TIP3   OH272189   1.617   1.476   2.481  0.5756  0.2460 -0.1039
16925TIP3    H172190   1.604   1.420   2.558  1.2482  1.1765  0.7080
16925TIP3    H272191   1.701   1.519   2.496  0.9520  0.0896 -1.6017
16926TIP3   OH272192   2.328   5.447  15.406 -0.2698  0.5323  0.3454
16926TIP3    H172193   2.323   5.462  15.500  0.2066 -1.3408  0.7051
16926TIP3    H272194   2.406   5.394  15.394 -0.3136  0.7526 -1.1167
16927TIP3   OH272195   6.645   0.875   6.277  0.0462  0.0582 -0.0039
16927TIP3    H172196   6.563   0.901   6.320  1.8039  2.0232  2.4438
16927TIP3    H272197   6.652   0.781   6.293 -0.4054  0.3520  2.3164
16928TIP3   OH272198   2.497   2.893   2.158 -0.0040  0.0150  0.0608
16928TIP3    H172199   2.573   2.915   2.104 -0.4527  0.0462 -0.5607
16928TIP3    H272200   2.493   2.963   2.223  0.4626  0.0436  0.0671
16929TIP3   OH272201   1.654   2.578  16.365  0.2859  0.0439  0.0088
16929TIP3    H172202   1.610   2.548  16.444  1.2994  0.7284  0.8626
16929TIP3    H272203   1.746   2.553  16.378  1.0730  2.8920  0.5111
16930TIP3   OH272204   3.347   1.700  11.777 -0.3832 -0.1094  0.1424
16930TIP3    H172205   3.267   1.649  11.765 -1.1339  0.3290  2.6958
16930TIP3    H272206   3.317   1.791  11.781  0.1091  0.0048  1.7988
16931TIP3   OH272207   2.807   1.240  17.480 -0.0254 -0.1613  0.4499
16931TIP3    H172208   2.736   1.186  17.514 -0.7742  0.1154 -0.6085
16931TIP3    H272209   2.780   1.261  17.390  1.7362 -0.6440 -0.2304
16932TIP3   OH272210   2.513   3.222   1.182  0.4437 -0.0622 -0.0446
16932TIP3    H172211   2.580   3.190   1.123 -0.0248  0.8347 -1.1041
16932TIP3    H272212   2.488   3.146   1.235 -0.6583 -1.4837 -2.4748
16933TIP3   OH272213   4.306   0.797  12.429 -0.0075 -0.4872 -0.0369
16933TIP3    H172214   4.226   0.831  12.468  0.5394 -0.2542  0.9092
16933TIP3    H272215   4.276   0.748  12.352 -1.0121 -0.0428  0.0534
16934TIP3   OH272216   1.137   5.400  12.632 -0.3995  0.4819  0.0223
16934TIP3    H172217   1.169   5.365  12.549 -2.1729  0.3216 -0.6334
16934TIP3    H272218   1.195   5.475  12.650 -0.8450  1.4171 -2.1151
16935TIP3   OH272219   1.313   1.581   0.904  0.1761  0.6982  0.2843
16935TIP3    H172220   1.350   1.508   0.854 -1.4877  0.1686 -0.2179
16935TIP3    H272221   1.308   1.548   0.994  1.6702  1.0827  0.5353
16936TIP3   OH272222   4.510   4.842  16.992  0.3190  0.1863 -0.2274
16936TIP3    H172223   4.563   4.766  17.016  0.5856 -0.2521 -2.0414
16936TIP3    H272224   4.557   4.916  17.029  0.8442 -0.4162  0.3415
16937TIP3   OH272225   5.246   3.956   2.686  0.0159 -0.3206  0.5573
16937TIP3    H172226   5.181   3.965   2.756 -0.4978 -0.3353  0.0886
16937TIP3    H272227   5.287   4.042   2.680 -0.7520  0.0203  0.0916
16938TIP3   OH272228   0.661   1.338  16.293  0.2281  0.0883  0.2181
16938TIP3    H172229   0.730   1.291  16.246 -0.7566 -1.0589 -0.1560
16938TIP3    H272230   0.658   1.424  16.252  2.1221  0.5456  0.9517
16939TIP3   OH272231   2.592   3.901   0.914  0.2466 -0.5902  0.0881
16939TIP3    H172232   2.557   3.881   1.001 -1.4239 -0.1089 -0.4535
16939TIP3    H272233   2.563   3.829   0.859 -0.9080  0.3830 -0.6138
16940TIP3   OH272234   0.054   2.418   2.174  0.4379 -0.5545 -0.4011
16940TIP3    H172235   0.149   2.409   2.162  0.3830 -0.5979 -0.8062
16940TIP3    H272236   0.037   2.510   2.158  0.5877 -0.2797  0.9214
16941TIP3   OH272237   0.005   5.596  15.902  0.4879 -0.3079 -0.4912
16941TIP3    H172238   0.027   5.517  15.852 -0.5057 -0.7766 -0.2094
16941TIP3    H272239  -0.086   5.582  15.929  0.8316  0.1837  0.9837
16942TIP3   OH272240   5.863   1.000  17.162 -0.2957  0.0382 -0.3459
16942TIP3    H172241   5.955   1.017  17.182  0.1416 -0.2790 -1.9505
16942TIP3    H272242   5.834   1.079  17.115 -0.6602 -0.1289 -0.4083
16943TIP3   OH272243   4.843   1.333   4.224  0.4057 -0.2444 -0.2769
16943TIP3    H172244   4.814   1.366   4.139  0.3620  0.2320 -0.0772
16943TIP3    H272245   4.928   1.375   4.238 -0.0039  0.3867  0.3326
16944TIP3   OH272246   2.625   3.010  14.189  0.1057 -0.2862  0.1010
16944TIP3    H172247   2.669   3.086  14.151 -0.1058 -0.5425 -0.6679
16944TIP3    H272248   2.646   2.938  14.130 -1.1409 -0.4689 -0.1449
16945TIP3   OH272249   4.822   5.336  13.720 -0.3215 -0.1112  0.4952
16945TIP3    H172250   4.821   5.427  13.750 -1.4926 -0.2196  0.8606
16945TIP3    H272251   4.729   5.313  13.714 -0.0902 -0.6948 -1.4259
16946TIP3   OH272252   2.270   5.042   3.250 -0.0601  0.3971  0.7764
16946TIP3    H172253   2.278   5.136   3.263  0.9243  0.2182  1.6487
16946TIP3    H272254   2.205   5.032   3.181 -0.8940  1.6700  1.3475
16947TIP3   OH272255   3.792   2.321  16.514  0.6019  0.0686  0.8411
16947TIP3    H172256   3.730   2.354  16.580  0.1404  2.6783 -0.7344
16947TIP3    H272257   3.858   2.390  16.507  1.8019 -1.1181  0.0321
16948TIP3   OH272258   0.467   4.525  15.706  0.5076 -0.6885  0.0327
16948TIP3    H172259   0.436   4.435  15.695  2.6562 -1.4821  0.0280
16948TIP3    H272260   0.500   4.528  15.795  2.9411 -0.7722 -0.7976
16949TIP3   OH272261   2.261   1.149  14.583 -0.7812 -0.3634 -0.4820
16949TIP3    H172262   2.214   1.118  14.506 -0.7487  1.4838 -1.3158
16949TIP3    H272263   2.306   1.228  14.552  0.0871 -0.1820  1.1707
16950TIP3   OH272264   3.851   0.315  14.596 -0.8361 -0.6217 -0.0082
16950TIP3    H172265   3.809   0.301  14.511 -0.4437 -0.9541 -0.1482
16950TIP3    H272266   3.942   0.289  14.583 -0.7690 -0.6584  0.5085
16951TIP3   OH272267   1.931   5.950  17.602 -0.3958 -0.1506 -0.1971
16951TIP3    H172268   2.010   5.991  17.636  0.5062 -1.2969 -0.8420
16951TIP3    H272269   1.930   5.863  17.642 -2.5230  0.5785  1.5259
16952TIP3   OH272270   3.860   5.770   4.293 -0.0684 -0.1672 -0.4766
16952TIP3    H172271   3.898   5.842   4.344 -0.6272 -2.1202  3.0226
16952TIP3    H272272   3.775   5.802   4.265  0.0376  0.8398  0.3133
16953TIP3   OH272273   3.319   0.516  16.933 -0.0720 -0.0144  0.0612
16953TIP3    H172274   3.301   0.494  16.842 -0.2543 -2.0540  0.5424
16953TIP3    H272275   3.399   0.468  16.955 -1.5000 -1.8169  1.6942
16954TIP3   OH272276   6.620   4.604   3.932  0.3741 -0.3706  0.6188
16954TIP3    H172277   6.696   4.564   3.975 -0.5638 -1.5562  1.2510
16954TIP3    H272278   6.546   4.572   3.983 -0.4867  1.8115  0.8414
16955TIP3   OH272279   1.936   3.432   5.897  0.6561 -0.3750  0.1096
16955TIP3    H172280   1.994   3.506   5.914  0.2507  0.0634 -0.4273
16955TIP3    H272281   1.931   3.386   5.982 -0.5295  1.2166  0.9460
16956TIP3   OH272282   3.327   2.879  16.988 -0.1774 -0.5556 -0.6021
16956TIP3    H172283   3.246   2.835  17.014 -1.6162  1.5092 -1.2535
16956TIP3    H272284   3.384   2.874  17.064 -2.2258  0.7653  1.1354
16957TIP3   OH272285   1.400   2.979   4.965 -0.3704 -0.0861  0.2706
16957TIP3    H172286   1.460   2.952   4.896 -0.0646  0.1858  0.4281
16957TIP3    H272287   1.374   3.068   4.941  1.4470  0.8703  1.6340
16958TIP3   OH272288   1.157   3.580   0.513 -0.2125  0.5907 -0.0241
16958TIP3    H172289   1.124   3.580   0.603  2.0854 -1.0522  0.9043
16958TIP3    H272290   1.151   3.489   0.485 -0.0380  0.9299 -1.2122
16959TIP3   OH272291   0.861   2.190  13.938 -0.2669 -0.0225 -0.1297
16959TIP3    H172292   0.879   2.156  13.851  0.6912 -2.1735  0.8509
16959TIP3    H272293   0.786   2.140  13.969 -0.0366  0.0769  0.6177
16960TIP3   OH272294   1.877   2.221  16.573  0.3782 -1.1812  0.3502
16960TIP3    H172295   1.812   2.267  16.520 -0.8385 -3.1937 -0.0547
16960TIP3    H272296   1.961   2.262  16.551 -0.5257  0.2908 -0.5025
16961TIP3   OH272297   4.347   1.721  13.756 -0.0933 -0.0936 -0.4427
16961TIP3    H172298   4.255   1.713  13.778 -0.0742 -0.1321 -0.3780
16961TIP3    H272299   4.370   1.811  13.783  0.1109 -0.3761  0.3740
16962TIP3   OH272300   0.441   4.375  12.849  0.4165  0.6259 -0.4229
16962TIP3    H172301   0.373   4.346  12.788 -1.2856  0.5447  1.4318
16962TIP3    H272302   0.519   4.387  12.794 -1.0148  0.5120 -2.5764
16963TIP3   OH272303   2.521   0.285  12.164 -0.4749 -0.5399 -0.1251
16963TIP3    H172304   2.554   0.246  12.083 -1.5479  0.8598 -1.2876
16963TIP3    H272305   2.555   0.375  12.163 -0.4792 -0.5157  1.0013
16964TIP3   OH272306   2.295   6.577  15.975 -0.4092  0.7356 -0.3871
16964TIP3    H172307   2.324   6.508  15.916 -1.4297 -0.5245  0.5377
16964TIP3    H272308   2.375   6.609  16.017  0.0165 -0.2712 -0.4173
16965TIP3   OH272309   5.647   0.806  11.156  0.3975  0.2541 -0.7814
16965TIP3    H172310   5.648   0.832  11.064 -2.0612  1.5536 -0.5281
16965TIP3    H272311   5.734   0.828  11.188  0.8177  1.2001 -2.4487
16966TIP3   OH272312   4.407   4.112  12.157  0.7554  0.1167  0.4024
16966TIP3    H172313   4.335   4.048  12.157  0.2086  0.6957  1.6805
16966TIP3    H272314   4.396   4.159  12.074 -0.4133  0.2624  0.6210
16967TIP3   OH272315   4.742   1.132   2.415  0.2808 -0.0582 -0.4642
16967TIP3    H172316   4.804   1.099   2.480  1.2979 -0.0979 -1.4157
16967TIP3    H272317   4.695   1.054   2.386 -0.6708  0.0642  0.7089
16968TIP3   OH272318   3.112   5.841   4.417  0.7191 -0.0238 -0.7059
16968TIP3    H172319   3.200   5.876   4.402  1.2410 -1.2875 -0.7710
16968TIP3    H272320   3.114   5.754   4.376 -0.2920 -0.4141  0.0242
16969TIP3   OH272321   3.855   6.488  16.940 -0.2888  0.0854  0.3505
16969TIP3    H172322   3.944   6.470  16.969 -0.6550 -2.2293  0.2466
16969TIP3    H272323   3.866   6.536  16.857  0.8488 -0.1969  0.3222
16970TIP3   OH272324   2.869   4.885   2.608 -0.0341 -0.0824  0.2735
16970TIP3    H172325   2.797   4.945   2.626  2.1783  2.2979  1.9917
16970TIP3    H272326   2.892   4.902   2.517 -1.7838 -1.1494 -0.4170
16971TIP3   OH272327   1.629   1.699   5.260 -0.4012  0.0858 -0.2595
16971TIP3    H172328   1.560   1.719   5.196  0.1000 -0.4276 -0.9870
16971TIP3    H272329   1.621   1.767   5.327 -0.8171  0.7629 -0.9787
16972TIP3   OH272330   3.101   2.786  12.929 -0.7020  0.4774  0.0550
16972TIP3    H172331   3.044   2.845  12.880 -0.0925  1.3994  0.4426
16972TIP3    H272332   3.043   2.714  12.955 -1.2007  0.3393 -1.3572
16973TIP3   OH272333   4.017   0.621   2.786 -0.4816 -0.0717 -0.2962
16973TIP3    H172334   3.965   0.691   2.825  1.1895  1.2860 -0.3787
16973TIP3    H272335   4.045   0.568   2.860 -2.2327 -1.0554 -0.2848
16974TIP3   OH272336   5.599   5.697   3.208 -0.1708 -0.5015 -0.0868
16974TIP3    H172337   5.648   5.707   3.289  0.0144  0.7072 -0.3304
16974TIP3    H272338   5.519   5.652   3.233 -0.5952  0.7727  0.9753
16975TIP3   OH272339   4.248   3.621   0.870  0.1667  0.0521  0.1788
16975TIP3    H172340   4.320   3.610   0.808 -0.8280  1.4501 -1.3044
16975TIP3    H272341   4.290   3.649   0.951  1.5429 -2.2915  0.3622
16976TIP3   OH272342   0.343   4.184  14.571 -0.2314 -0.6247  0.5201
16976TIP3    H172343   0.274   4.247  14.592  1.8317  1.4476  1.4831
16976TIP3    H272344   0.385   4.165  14.654  2.4768  0.8172 -0.4099
16977TIP3   OH272345   4.450   2.639   5.397  0.1711 -0.6760  0.2168
16977TIP3    H172346   4.482   2.693   5.325 -3.3809  1.6789  0.1360
16977TIP3    H272347   4.417   2.703   5.461  0.0020 -2.7522  2.3355
16978TIP3   OH272348   3.400   6.377   2.715 -0.1849 -0.0942  0.3139
16978TIP3    H172349   3.422   6.317   2.785 -0.4108  1.0227  1.3792
16978TIP3    H272350   3.483   6.417   2.690 -0.2492  0.2740  0.6809
16979TIP3   OH272351   1.662   5.268   0.686  0.0821 -0.3222  0.5314
16979TIP3    H172352   1.624   5.293   0.769  1.2392  2.4150  0.3351
16979TIP3    H272353   1.750   5.236   0.708 -0.2191 -1.2267  0.4760
16980TIP3   OH272354   0.197   5.505   6.079  0.6456  0.6680  0.5737
16980TIP3    H172355   0.197   5.512   5.983 -0.1017 -0.6120  0.4510
16980TIP3    H272356   0.125   5.444   6.098  2.3093 -1.0368  1.7795
16981TIP3   OH272357   1.669   3.100  15.316 -0.4366  0.6942  0.6533
16981TIP3    H172358   1.577   3.123  15.304 -0.0194  2.2435  0.2245
16981TIP3    H272359   1.671   3.005  15.309 -1.9535  0.6647  0.3099
16982TIP3   OH272360   6.513   1.286   3.315  0.3072  0.2548  0.0855
16982TIP3    H172361   6.463   1.251   3.241  0.2370  1.4530 -0.4587
16982TIP3    H272362   6.446   1.308   3.380  0.5137 -3.4580  1.7867
16983TIP3   OH272363   4.725   1.125   0.779 -0.0784 -0.4596  0.4212
16983TIP3    H172364   4.794   1.192   0.784 -1.1241  0.7007 -0.2422
16983TIP3    H272365   4.659   1.154   0.842 -0.7138 -0.6554 -0.1429
16984TIP3   OH272366   0.072   5.333   3.994  0.8249 -0.1108 -0.3207
16984TIP3    H172367   0.093   5.426   4.002 -0.7855  0.1465  1.6679
16984TIP3    H272368   0.103   5.294   4.076 -0.9677 -0.7608  0.1061
16985TIP3   OH272369   3.727   5.654   2.849 -0.0858  0.0224 -0.0388
16985TIP3    H172370   3.795   5.635   2.785 -1.7572 -0.4167 -1.8053
16985TIP3    H272371   3.723   5.750   2.853  0.5815  0.0516  0.0554
16986TIP3   OH272372   3.838   1.354  17.312  0.0743 -0.3917  0.4029
16986TIP3    H172373   3.842   1.448  17.294 -0.6748 -0.5826 -0.8810
16986TIP3    H272374   3.766   1.344  17.375  0.5295 -0.0642  0.9890
16987TIP3   OH272375   5.916   2.513   1.991  0.1314  0.0007  0.1318
16987TIP3    H172376   5.829   2.555   1.994  0.5550  1.0982 -1.5001
16987TIP3    H272377   5.970   2.566   2.050  0.5244  1.5278 -1.5059
16988TIP3   OH272378   4.479   3.890  17.041  0.0421 -0.6195  0.3032
16988TIP3    H172379   4.419   3.962  17.057 -0.1315 -1.1071  2.0641
16988TIP3    H272380   4.501   3.896  16.948  0.0171  1.6711  0.4015
16989TIP3   OH272381   0.430   6.409  12.873  0.1761 -1.0563 -0.3494
16989TIP3    H172382   0.351   6.444  12.915  0.7074 -0.0733 -0.1400
16989TIP3    H272383   0.432   6.316  12.899 -1.8947 -1.5814 -1.8759
16990TIP3   OH272384   1.457   6.495   0.304  0.0284 -0.0954 -0.3026
16990TIP3    H172385   1.531   6.540   0.262 -0.4570  0.2074 -0.8535
16990TIP3    H272386   1.387   6.497   0.238 -0.8366  0.6035  0.5908
16991TIP3   OH272387   5.024   0.462   4.792 -0.3202 -0.7195  0.0908
16991TIP3    H172388   5.050   0.371   4.777  0.0888 -0.4390 -1.0389
16991TIP3    H272389   5.101   0.513   4.765  0.1236 -0.0914  2.3847
16992TIP3   OH272390   5.289   5.965   0.787  0.1999  0.3282  0.1575
16992TIP3    H172391   5.200   5.951   0.819  0.0051  2.1185  0.4853
16992TIP3    H272392   5.321   6.041   0.836  1.9456 -0.3040  0.0856
16993TIP3   OH272393   1.738   2.407   2.751 -0.3518  0.2452  0.7572
16993TIP3    H172394   1.792   2.477   2.787  1.6779 -1.4072  1.0975
16993TIP3    H272395   1.733   2.342   2.821  0.8517 -1.5249 -0.7005
16994TIP3   OH272396   4.293   3.167   3.913  0.2425  0.3819 -0.3908
16994TIP3    H172397   4.308   3.261   3.923  1.3228  0.0651  1.4732
16994TIP3    H272398   4.374   3.126   3.944 -1.2401 -1.2123  1.7148
16995TIP3   OH272399   5.477   2.708  16.165  0.3657 -0.4150  0.1939
16995TIP3    H172400   5.475   2.687  16.258  2.0493 -1.8457 -0.0336
16995TIP3    H272401   5.569   2.699  16.140  0.1085  0.8445 -1.4309
16996TIP3   OH272402   1.134   5.256   4.468 -0.0172  0.3538 -0.2475
16996TIP3    H172403   1.046   5.257   4.432  0.2563 -1.1963 -1.0321
16996TIP3    H272404   1.188   5.295   4.400  0.0812  0.1123 -0.3093
16997TIP3   OH272405   6.526   3.631   0.088  0.8459  0.3022  0.1224
16997TIP3    H172406   6.455   3.589   0.040  0.3973  0.4743  0.6224
16997TIP3    H272407   6.579   3.674   0.021 -1.2111  2.7805 -0.0398
16998TIP3   OH272408   3.927   4.633   6.208  0.3025  0.5281 -0.2439
16998TIP3    H172409   3.892   4.562   6.261 -1.5568  1.3794 -0.2703
16998TIP3    H272410   3.986   4.681   6.266 -2.1832  1.8325  1.3669
16999TIP3   OH272411   5.841   4.911   5.791  0.2428 -0.0229  0.3541
16999TIP3    H172412   5.894   4.841   5.753  0.7028  0.1522  0.6494
16999TIP3    H272413   5.787   4.943   5.719  0.7522 -0.0159 -0.0346
17000TIP3   OH272414   0.415   3.565  15.806  0.2697 -0.3977  0.2625
17000TIP3    H172415   0.466   3.643  15.827 -0.9351  0.1797  1.1541
17000TIP3    H272416   0.408   3.518  15.889  0.7403 -1.3154 -0.2068
17001TIP3   OH272417   0.154   4.506  17.340 -0.8290 -0.0533  0.6136
17001TIP3    H172418   0.176   4.600  17.339  1.9408 -0.5863  1.8744
17001TIP3    H272419   0.205   4.470  17.412 -1.5150 -2.6285 -0.0769
17002TIP3   OH272420   0.408   6.358  11.454  0.7996  0.2259 -0.5224
17002TIP3    H172421   0.422   6.264  11.453 -0.3111  0.0465  0.0473
17002TIP3    H272422   0.317   6.369  11.481  0.7818  1.4469 -1.0025
17003TIP3   OH272423   0.090   6.550  10.635 -0.1770  0.0822  0.0390
17003TIP3    H172424   0.130   6.480  10.583  0.1662  0.0693  0.3101
17003TIP3    H272425   0.100   6.521  10.726  1.4120  1.1904  0.2724
17004TIP3   OH272426   0.585   0.327   0.902  0.3944  0.3104 -0.8532
17004TIP3    H172427   0.652   0.267   0.868  0.7587  1.7699 -2.9081
17004TIP3    H272428   0.510   0.315   0.844  0.0783  1.0566 -0.6192
17005TIP3   OH272429   1.908   1.229   5.359  0.1104 -0.0096  0.1457
17005TIP3    H172430   1.885   1.322   5.361  2.1115  0.5264  1.0541
17005TIP3    H272431   1.894   1.202   5.268  1.8133  1.8375 -0.7180
17006TIP3   OH272432   6.549   4.030  15.066 -0.1820  0.0181  0.2548
17006TIP3    H172433   6.642   4.013  15.083 -0.5109 -1.3786  0.7632
17006TIP3    H272434   6.503   3.977  15.131 -1.3386  0.9895  0.2484
17007TIP3   OH272435   1.807   2.277   0.255  0.8022 -0.2675  0.4584
17007TIP3    H172436   1.714   2.296   0.270  0.6271 -0.8815  0.1591
17007TIP3    H272437   1.851   2.311   0.333  0.2188 -0.8369  1.0465
17008TIP3   OH272438   4.248   1.558   5.484 -0.0361 -0.7669  0.2950
17008TIP3    H172439   4.335   1.595   5.474 -0.1844 -0.8988 -2.2255
17008TIP3    H272440   4.214   1.597   5.565  1.5242  0.9889  0.1711
17009TIP3   OH272441   4.440   6.340  14.234 -0.7600 -0.0083 -0.7585
17009TIP3    H172442   4.356   6.304  14.261 -0.8990  0.1122 -1.0307
17009TIP3    H272443   4.495   6.334  14.313 -1.3646  0.9826 -0.2421
17010TIP3   OH272444   4.050   4.424   1.475  0.2348  0.3031  0.1270
17010TIP3    H172445   4.087   4.399   1.560 -0.5977  2.2530  1.1030
17010TIP3    H272446   3.982   4.488   1.495 -1.2673 -0.5306 -1.8967
17011TIP3   OH272447   1.884   2.471   0.871 -0.0390 -0.2574 -0.0050
17011TIP3    H172448   1.894   2.482   0.776  0.5738 -0.0792  0.0753
17011TIP3    H272449   1.955   2.523   0.909  0.2038 -0.9539  0.5241
17012TIP3   OH272450   3.884   1.803   0.171  0.1855 -0.1155 -0.0932
17012TIP3    H172451   3.888   1.707   0.162  0.8826 -0.0242 -0.9515
17012TIP3    H272452   3.805   1.819   0.223 -2.3267 -1.0145 -3.2241
17013TIP3   OH272453   4.569   1.172  13.645  0.2242 -0.7011  0.5400
17013TIP3    H172454   4.502   1.176  13.714 -1.3719  2.4525 -0.9920
17013TIP3    H272455   4.526   1.125  13.574  0.2560 -0.1540  0.1572
17014TIP3   OH272456   5.458   2.189   3.599  0.0262 -0.6447 -0.8198
17014TIP3    H172457   5.453   2.126   3.671 -0.0584 -1.1056 -1.2213
17014TIP3    H272458   5.550   2.187   3.572  0.7584  1.7446  1.2075
17015TIP3   OH272459   1.521   5.025  11.645 -0.3558  0.0648 -0.3449
17015TIP3    H172460   1.534   4.943  11.598 -3.2874 -0.0997 -1.0227
17015TIP3    H272461   1.509   4.999  11.736  2.8452  0.1851  0.2187
17016TIP3   OH272462   2.523   4.708   0.624 -0.5244 -0.5620 -0.0492
17016TIP3    H172463   2.501   4.773   0.557  0.6044  0.0171  0.1176
17016TIP3    H272464   2.616   4.690   0.610  0.5544  1.6536  3.0095
17017TIP3   OH272465   1.378   1.975   2.783  0.8252  0.1045  0.4018
17017TIP3    H172466   1.326   1.966   2.704  1.4634 -0.5311  0.0422
17017TIP3    H272467   1.372   2.068   2.805 -0.9960 -0.0650  0.7642
17018TIP3   OH272468   2.214   6.294   2.500 -0.7728 -0.1980 -0.2571
17018TIP3    H172469   2.135   6.329   2.542 -1.3980  1.9068 -2.8806
17018TIP3    H272470   2.265   6.257   2.571 -3.5851 -0.6265  1.7164
17019TIP3   OH272471   0.945   3.378   3.506 -0.4818 -0.1147  0.7558
17019TIP3    H172472   0.859   3.414   3.527  0.1623  1.9445  0.0963
17019TIP3    H272473   0.932   3.330   3.425 -1.1284 -0.4100  1.0261
17020TIP3   OH272474   1.739   6.652   1.875  0.5983 -0.1568 -0.2655
17020TIP3    H172475   1.792   6.572   1.883  1.0238  0.2374  1.1605
17020TIP3    H272476   1.802   6.723   1.880  0.1777  0.2861 -1.1198
17021TIP3   OH272477   0.795   6.352   6.116  0.1769  0.2557 -0.1124
17021TIP3    H172478   0.845   6.275   6.091 -0.0373  0.3810 -0.9502
17021TIP3    H272479   0.723   6.317   6.170 -0.1799 -0.1839 -0.8624
17022TIP3   OH272480   2.217   4.173   1.959 -0.2970  0.3262  0.7958
17022TIP3    H172481   2.296   4.201   2.004  1.6558 -1.6978 -1.1274
17022TIP3    H272482   2.179   4.107   2.017 -0.2769  0.9027  1.4744
17023TIP3   OH272483   5.043   3.215   5.887 -0.4785 -0.3840 -0.1812
17023TIP3    H172484   5.014   3.129   5.917 -0.1783 -0.1937  0.6805
17023TIP3    H272485   5.108   3.243   5.951  0.7507 -0.2818 -1.4326
17024TIP3   OH272486   1.123   4.314  12.354 -0.1096 -0.3299  0.1137
17024TIP3    H172487   1.116   4.332  12.448  0.3995  0.8987 -0.0623
17024TIP3    H272488   1.116   4.219  12.347 -1.1342 -0.3795  1.3028
17025TIP3   OH272489   5.490   5.892  15.196 -0.3940 -0.1729  0.5924
17025TIP3    H172490   5.420   5.847  15.149 -1.2880  0.5427  1.2032
17025TIP3    H272491   5.570   5.862  15.154 -1.0080 -1.7149  0.4726
17026TIP3   OH272492   0.371   3.893  15.535  0.1144 -0.5854  0.4726
17026TIP3    H172493   0.328   3.813  15.566  0.3964 -0.2184  1.8967
17026TIP3    H272494   0.423   3.922  15.610  0.9595  0.2813 -0.4324
17027TIP3   OH272495   1.851   2.479   6.268 -0.0684 -0.0892  0.0431
17027TIP3    H172496   1.774   2.428   6.294  0.2692 -0.7408 -0.2364
17027TIP3    H272497   1.858   2.547   6.336 -1.5269  0.6584 -0.4926
17028TIP3   OH272498   5.117   4.448  17.118  0.3662  0.1496 -0.3367
17028TIP3    H172499   5.160   4.366  17.139 -0.2442  0.3460  2.0076
17028TIP3    H272500   5.033   4.422  17.079 -0.0007 -0.4059  0.7603
17029TIP3   OH272501   1.962   5.303  14.714  0.3016  0.9997  0.6120
17029TIP3    H172502   1.889   5.364  14.713  0.9188  1.7523  0.8560
17029TIP3    H272503   1.977   5.284  14.807  0.3653  0.7852  0.5595
17030TIP3   OH272504   5.777   1.967  14.481  0.2459 -0.1739 -0.0326
17030TIP3    H172505   5.736   2.002  14.560  0.8893 -2.6447  1.5192
17030TIP3    H272506   5.717   1.897  14.453  0.2368  0.4112 -1.5025
17031TIP3   OH272507   1.941   0.003  13.631  0.3663 -0.3789  0.6116
17031TIP3    H172508   2.014   0.018  13.571 -0.2571  1.0863  0.1818
17031TIP3    H272509   1.901  -0.078  13.599  1.3281 -0.7816  0.3797
17032TIP3   OH272510   1.747   4.647   0.494  0.6644 -0.2654  0.2640
17032TIP3    H172511   1.677   4.657   0.429  0.0572  1.7845  1.1557
17032TIP3    H272512   1.814   4.596   0.450 -0.7617 -1.0280 -1.1222
17033TIP3   OH272513   6.084   6.513  14.740 -0.1221  0.2948  0.1489
17033TIP3    H172514   6.012   6.453  14.757  0.2857 -0.3693 -0.3893
17033TIP3    H272515   6.162   6.457  14.741  0.5583  1.2169  2.1064
17034TIP3   OH272516   5.238   0.550   2.915 -0.9456  0.5629  0.1884
17034TIP3    H172517   5.288   0.489   2.969 -1.9251 -1.2965 -0.8913
17034TIP3    H272518   5.258   0.637   2.951  1.3578 -0.2733  1.1089
17035TIP3   OH272519   2.095   3.017   0.975 -0.0376  0.1842 -0.2483
17035TIP3    H172520   2.186   2.999   0.997 -0.5859 -2.1111  0.4065
17035TIP3    H272521   2.047   3.000   1.056 -1.2749 -0.9186 -1.1619
17036TIP3   OH272522   2.581   0.163  13.910  0.0020  0.8800 -0.1878
17036TIP3    H172523   2.607   0.106  13.837  0.9215 -0.4147  1.1153
17036TIP3    H272524   2.559   0.246  13.868  1.9394  0.6443 -1.8110
17037TIP3   OH272525   5.281   5.691  12.686 -0.0939  0.4469 -0.3170
17037TIP3    H172526   5.237   5.700  12.771  0.5863  0.6210  0.0219
17037TIP3    H272527   5.334   5.770  12.678 -0.2539  0.4940 -0.9696
17038TIP3   OH272528   4.613   1.960  14.156 -0.0984  0.3240 -0.2190
17038TIP3    H172529   4.532   2.001  14.128 -0.9425 -2.1185 -1.7265
17038TIP3    H272530   4.661   1.943  14.075 -0.0806 -2.0489  0.1891
17039TIP3   OH272531   4.553   4.514   4.338  0.2687 -0.0306  0.5604
17039TIP3    H172532   4.521   4.505   4.428 -1.1271 -0.0063  0.0829
17039TIP3    H272533   4.526   4.602   4.311 -0.9847 -0.7080 -0.4990
17040TIP3   OH272534   2.451   0.797   0.695  0.2393  0.2265 -0.3011
17040TIP3    H172535   2.446   0.729   0.628  2.3095 -1.6419  1.3088
17040TIP3    H272536   2.481   0.752   0.774 -2.1361  2.2760  2.0141
17041TIP3   OH272537   0.515   4.785  14.364 -0.0413 -0.6138  0.1534
17041TIP3    H172538   0.540   4.871  14.398  0.3560 -1.2021  1.3972
17041TIP3    H272539   0.578   4.767  14.295  1.4253 -0.9473  1.5197
17042TIP3   OH272540   2.090   6.440  16.958  0.3703  0.2541 -0.1424
17042TIP3    H172541   2.006   6.395  16.964  0.6068 -0.4155 -1.4664
17042TIP3    H272542   2.149   6.376  16.918  0.8684  1.5053 -1.5386
17043TIP3   OH272543   4.891   5.574  13.880  0.0230 -0.8853 -0.1061
17043TIP3    H172544   4.870   5.652  13.829  0.3940 -0.3821  0.5078
17043TIP3    H272545   4.865   5.595  13.969  1.3045 -0.9763  0.3115
17044TIP3   OH272546   1.924   6.490  11.992  0.5002  0.4042  0.3218
17044TIP3    H172547   1.974   6.422  11.946 -0.2426 -1.1782  1.7810
17044TIP3    H272548   1.971   6.502  12.074  1.0431  2.2348 -0.2137
17045TIP3   OH272549   3.013   5.995  14.611  0.6468  0.6545  0.3862
17045TIP3    H172550   2.989   5.977  14.520  0.8955  0.9643  0.2560
17045TIP3    H272551   3.002   5.911  14.656  2.3932 -0.0283 -0.3357
17046TIP3   OH272552   6.411   4.554  15.248  0.2030 -0.4083  0.2854
17046TIP3    H172553   6.345   4.523  15.310 -0.1693  1.0474  0.6526
17046TIP3    H272554   6.363   4.607  15.185  0.5850 -1.8336 -1.2848
17047TIP3   OH272555   6.265   0.557  11.805  0.4984 -0.4273  0.3471
17047TIP3    H172556   6.215   0.636  11.786  1.7163  0.2614 -0.1146
17047TIP3    H272557   6.228   0.525  11.888 -2.4461 -1.4461 -1.2301
17048TIP3   OH272558   0.760   1.543   5.278 -0.4428 -0.0970  0.3984
17048TIP3    H172559   0.801   1.467   5.236 -0.3143  0.5647 -0.6933
17048TIP3    H272560   0.816   1.561   5.354  0.5265 -0.0359 -0.3065
17049TIP3   OH272561   5.991   3.148  14.755 -0.3316  0.2868  0.4922
17049TIP3    H172562   5.927   3.092  14.800 -1.1362 -1.3066 -2.3619
17049TIP3    H272563   6.054   3.172  14.823 -1.9587 -1.1030  2.6352
17050TIP3   OH272564   3.661   5.778  17.110 -0.0004  0.6130 -0.7166
17050TIP3    H172565   3.651   5.863  17.153  2.1469  0.7405 -0.3535
17050TIP3    H272566   3.707   5.798  17.028 -1.4533  0.0195 -1.7308
17051TIP3   OH272567   0.189   3.194   1.361 -0.1858  0.0498 -0.3154
17051TIP3    H172568   0.213   3.287   1.362 -0.6735  0.2916 -3.2016
17051TIP3    H272569   0.105   3.192   1.315 -0.4335 -1.8057  0.1487
17052TIP3   OH272570   4.470   2.372   5.094  0.0837 -0.3230  0.1085
17052TIP3    H172571   4.543   2.354   5.154 -0.9861  0.6434  1.7725
17052TIP3    H272572   4.402   2.311   5.121 -0.4811  0.2518 -0.0090
17053TIP3   OH272573   4.449   1.163  16.210 -0.2526  0.1402  0.1709
17053TIP3    H172574   4.473   1.255  16.219 -0.5202  0.1461  0.9779
17053TIP3    H272575   4.449   1.130  16.300  1.3047 -1.0404 -0.2321
17054TIP3   OH272576   5.220   0.035   2.357 -0.0826 -0.0793  0.2149
17054TIP3    H172577   5.182  -0.046   2.325  0.7889 -0.4764  0.1647
17054TIP3    H272578   5.246   0.015   2.447 -0.0297  0.2010  0.2628
17055TIP3   OH272579   5.566   0.189   3.773  0.3310 -0.3540 -0.2782
17055TIP3    H172580   5.582   0.138   3.693  2.3673  0.6386 -0.5567
17055TIP3    H272581   5.601   0.276   3.754 -0.8985  0.4821  1.0430
17056TIP3   OH272582   4.123   5.181   5.557 -0.2966 -0.5087  0.5797
17056TIP3    H172583   4.104   5.200   5.465  0.9954 -0.1214  0.3667
17056TIP3    H272584   4.144   5.087   5.557  0.4937 -0.3383  0.3251
17057TIP3   OH272585   2.663   5.249   0.493 -0.1008 -0.4976  0.3875
17057TIP3    H172586   2.660   5.319   0.429 -0.6789 -0.4916  0.4178
17057TIP3    H272587   2.726   5.279   0.559  0.1299 -0.2936  0.0736
17058TIP3   OH272588   3.015   2.060  14.026  0.1222  0.3306  0.0933
17058TIP3    H172589   2.985   1.969  14.022 -0.5845  0.5762 -0.6416
17058TIP3    H272590   3.093   2.063  13.972 -0.8538  0.5030 -1.3602
17059TIP3   OH272591   0.681   0.438   4.045  0.4534  0.0236 -0.1675
17059TIP3    H172592   0.713   0.407   4.130 -0.3273  2.6514  1.1844
17059TIP3    H272593   0.667   0.358   3.994  3.6413 -1.5399  1.1264
17060TIP3   OH272594   1.106   5.499   1.176  0.4690  0.3723 -0.0820
17060TIP3    H172595   1.078   5.506   1.085 -0.6533  2.5756  0.3551
17060TIP3    H272596   1.173   5.567   1.186  0.3320  0.3951  0.8090
17061TIP3   OH272597   3.255   3.855   0.134  0.5012  0.4447 -0.0039
17061TIP3    H172598   3.248   3.944   0.169  0.8511 -0.2025  1.8317
17061TIP3    H272599   3.245   3.798   0.210  1.7324 -1.0616 -0.8906
17062TIP3   OH272600   2.551   3.589   3.185  0.4473  0.3568  0.1286
17062TIP3    H172601   2.494   3.582   3.108  0.4655 -2.0976  0.2497
17062TIP3    H272602   2.549   3.501   3.224  1.4217  1.1994  2.2368
17063TIP3   OH272603   3.655   2.847  16.071  0.0821 -0.0414  0.7847
17063TIP3    H172604   3.607   2.770  16.103  0.1629  0.0012  1.0112
17063TIP3    H272605   3.680   2.824  15.981  0.4764 -0.4583  0.9913
17064TIP3   OH272606   0.449   5.492  12.383 -0.7060 -0.5075 -0.1113
17064TIP3    H172607   0.465   5.585  12.399  0.6534 -0.6662 -0.3944
17064TIP3    H272608   0.415   5.489  12.293 -0.5256 -0.2931 -0.1896
17065TIP3   OH272609   6.115   5.647   1.239  0.1675 -0.0296  0.3962
17065TIP3    H172610   6.020   5.652   1.251 -0.0847  3.0005 -1.4749
17065TIP3    H272611   6.130   5.562   1.199 -1.9294 -0.1510 -0.2597
17066TIP3   OH272612   4.630   0.082   5.154  0.3167  0.0921 -0.2081
17066TIP3    H172613   4.717   0.070   5.116 -0.6635 -1.3878 -2.2216
17066TIP3    H272614   4.602   0.168   5.124  1.3101  0.9076  1.0720
17067TIP3   OH272615   4.343   3.724  10.648 -0.0859 -0.2115  0.1937
17067TIP3    H172616   4.252   3.693  10.651  0.3809 -1.6500  2.5914
17067TIP3    H272617   4.343   3.792  10.580 -2.9731 -0.0245  0.2390
17068TIP3   OH272618   0.739   4.856   1.841 -0.6383 -0.4152  0.0607
17068TIP3    H172619   0.736   4.929   1.779  0.1349 -1.1725 -0.9088
17068TIP3    H272620   0.810   4.878   1.901 -1.1156  0.1264  0.4342
17069TIP3   OH272621   1.810   5.067   6.312  0.3101  0.0832 -0.0950
17069TIP3    H172622   1.881   5.096   6.255 -0.0553  0.6946 -0.2518
17069TIP3    H272623   1.732   5.109   6.276 -0.1873 -0.8680 -0.1356
17070TIP3   OH272624   0.363   4.129  13.797  0.1080  0.2075 -0.0104
17070TIP3    H172625   0.379   4.053  13.852 -1.5312 -0.3164 -0.2129
17070TIP3    H272626   0.355   4.094  13.708 -0.7381  0.5860 -0.0956
17071TIP3   OH272627   0.435   0.218  16.717  0.5065  0.3142  0.3371
17071TIP3    H172628   0.373   0.290  16.720  1.1625  0.8816  0.5436
17071TIP3    H272629   0.384   0.141  16.743 -0.1061  0.7663  0.4910
17072TIP3   OH272630   4.269   3.731  17.177 -0.1175 -0.0551 -0.0636
17072TIP3    H172631   4.331   3.729  17.104 -2.1810  1.8621 -1.9909
17072TIP3    H272632   4.282   3.816  17.217 -1.6933  0.5217 -0.7173
17073TIP3   OH272633   0.705   2.725  15.271  0.4454 -0.4770 -0.5182
17073TIP3    H172634   0.636   2.683  15.220  1.2478 -2.2785 -0.1878
17073TIP3    H272635   0.719   2.667  15.346  2.2459 -0.1192 -0.5246
17074TIP3   OH272636   5.189   0.846  12.819 -0.3983 -0.2274 -0.1569
17074TIP3    H172637   5.258   0.908  12.796  0.0818 -1.3832 -2.0399
17074TIP3    H272638   5.110   0.900  12.827  0.4099  0.9047  0.4985
17075TIP3   OH272639   2.283   3.868  17.271  0.0967  0.4635 -0.1527
17075TIP3    H172640   2.266   3.863  17.177 -1.6941 -0.6846  0.1806
17075TIP3    H272641   2.363   3.817  17.284  0.1648  0.3456 -1.0050
17076TIP3   OH272642   1.859   3.834   2.414  0.0470  1.0742 -0.2007
17076TIP3    H172643   1.784   3.888   2.388  0.9714  1.2468 -2.7408
17076TIP3    H272644   1.846   3.751   2.368  1.2090  0.9575 -0.3458
17077TIP3   OH272645   0.723   6.585   0.764  0.2531  0.1146  0.7436
17077TIP3    H172646   0.651   6.618   0.818 -0.5261  0.0334 -0.2006
17077TIP3    H272647   0.679   6.533   0.696  1.1434  0.7385 -0.3455
17078TIP3   OH272648   1.965   2.058  12.487 -0.8316  0.2970  0.1487
17078TIP3    H172649   1.993   1.988  12.546 -0.9087 -0.6335 -0.8897
17078TIP3    H272650   1.869   2.057  12.494 -0.8441  0.1371 -0.0518
17079TIP3   OH272651   6.410   1.529   3.007  0.4334 -0.0811 -0.7293
17079TIP3    H172652   6.346   1.518   2.937 -1.1506  0.1586  0.6292
17079TIP3    H272653   6.446   1.442   3.021 -1.4020 -0.7466  0.1195
17080TIP3   OH272654   0.540   3.686   1.740  0.0321  0.2423 -0.2896
17080TIP3    H172655   0.626   3.727   1.752  0.0127  0.6511 -1.4572
17080TIP3    H272656   0.478   3.756   1.760 -0.0237  0.1558 -0.1600
17081TIP3   OH272657   1.387   3.479   5.673 -0.1945  0.3174  0.0635
17081TIP3    H172658   1.393   3.490   5.578  1.7757 -0.2981  0.0690
17081TIP3    H272659   1.445   3.546   5.709 -0.3385  0.0617  0.7938
17082TIP3   OH272660   3.519   2.144   4.376 -0.4418  0.6734 -0.4644
17082TIP3    H172661   3.438   2.167   4.421 -0.7899 -0.3628 -0.5321
17082TIP3    H272662   3.500   2.159   4.284 -0.4150  0.8415 -0.4425
17083TIP3   OH272663   2.691   3.589  11.860  0.2998 -0.2372  0.4978
17083TIP3    H172664   2.739   3.510  11.885  1.6877  0.0579 -1.0245
17083TIP3    H272665   2.717   3.655  11.924 -1.9704 -1.2922  2.6488
17084TIP3   OH272666   5.715   5.565   5.014  0.1536  0.3373 -0.3843
17084TIP3    H172667   5.656   5.574   5.089 -1.0795 -0.1657 -1.2553
17084TIP3    H272668   5.748   5.475   5.021  0.6882  0.5616  0.0070
17085TIP3   OH272669   6.301   5.795   6.292  0.2007  0.1061 -0.0785
17085TIP3    H172670   6.240   5.801   6.366 -0.0759  1.6089 -0.3943
17085TIP3    H272671   6.374   5.852   6.317 -0.6201  1.9076 -1.6032
17086TIP3   OH272672   4.168   6.484  13.966  0.0905 -0.2030 -0.3724
17086TIP3    H172673   4.121   6.469  13.884  0.0826 -1.4718 -0.1533
17086TIP3    H272674   4.260   6.489  13.940 -0.0789  1.9623 -0.7608
17087TIP3   OH272675   6.278   0.797   1.335  0.6495  0.6874  0.0391
17087TIP3    H172676   6.195   0.788   1.382  0.0027 -1.6946 -1.3873
17087TIP3    H272677   6.274   0.731   1.266  4.0290 -0.0418  0.3466
17088TIP3   OH272678   3.893   0.016   6.367 -0.3755 -0.7234  0.1333
17088TIP3    H172679   3.955  -0.047   6.331 -1.2449 -1.4013 -0.2215
17088TIP3    H272680   3.823  -0.037   6.405 -1.8011  0.0000 -1.3536
17089TIP3   OH272681   1.048   0.657   6.530  0.2656  0.2577 -0.0875
17089TIP3    H172682   1.102   0.643   6.452 -0.0119 -0.1331 -0.2083
17089TIP3    H272683   1.102   0.626   6.603 -1.2397 -4.0247 -0.5170
17090TIP3   OH272684   4.775   0.072  16.514 -0.1183  0.3080  0.3535
17090TIP3    H172685   4.700   0.069  16.574  1.2176 -0.8215  2.0839
17090TIP3    H272686   4.849   0.097  16.570  1.5813 -2.7740 -0.2893
17091TIP3   OH272687   4.190   4.796  16.192 -0.1896 -0.1563 -0.0941
17091TIP3    H172688   4.126   4.791  16.264 -0.7852 -0.4797 -0.6379
17091TIP3    H272689   4.150   4.745  16.121 -0.2552  1.2804 -1.1433
17092TIP3   OH272690   4.461   2.824  12.929 -0.1786  0.2734  0.2819
17092TIP3    H172691   4.402   2.774  12.986 -1.9667  1.1566 -0.7048
17092TIP3    H272692   4.428   2.914  12.935  1.1645  0.8182 -0.2257
17093TIP3   OH272693   6.681   2.356  11.802  0.3983 -0.9936 -0.1730
17093TIP3    H172694   6.608   2.330  11.746  0.0791 -1.3691  0.4131
17093TIP3    H272695   6.680   2.294  11.875  1.9054 -1.6107 -0.6422
17094TIP3   OH272696   6.479   4.832   5.790  0.4630 -0.2991 -0.4164
17094TIP3    H172697   6.432   4.906   5.830  1.2962  0.5906 -1.0256
17094TIP3    H272698   6.569   4.863   5.782  0.8408 -1.4254 -0.6155
17095TIP3   OH272699   2.091   3.755   5.612 -0.5044 -0.1965  0.0691
17095TIP3    H172700   2.087   3.706   5.694 -1.8704 -0.8845 -0.3770
17095TIP3    H272701   2.074   3.689   5.545 -0.6969  0.5938 -0.6759
17096TIP3   OH272702   4.301   6.692  12.895 -0.0688 -0.1152 -0.6501
17096TIP3    H172703   4.212   6.700  12.930  0.7585 -0.0248  1.5741
17096TIP3    H272704   4.334   6.782  12.890  0.6952 -0.2970  0.8013
17097TIP3   OH272705   0.770   6.145  14.916  0.1057 -0.3161 -0.5560
17097TIP3    H172706   0.708   6.215  14.935  1.1119  0.9996 -1.9674
17097TIP3    H272707   0.856   6.185  14.924  0.8194 -2.0075  0.9306
17098TIP3   OH272708   4.641   0.420   5.294  0.2084  0.0067  0.0134
17098TIP3    H172709   4.709   0.485   5.309 -1.0429  1.2022  0.7323
17098TIP3    H272710   4.558   0.468   5.303 -0.7609 -0.9733 -2.7232
17099TIP3   OH272711   1.296   6.272   2.886  0.4262 -0.0011 -0.5550
17099TIP3    H172712   1.263   6.356   2.856  1.0523  0.1706 -0.7706
17099TIP3    H272713   1.329   6.229   2.807  1.5316  0.2044 -0.2248
17100TIP3   OH272714   5.381   1.862  13.077 -0.9099  0.4501  0.0293
17100TIP3    H172715   5.341   1.776  13.086  0.2349 -0.3099 -1.7181
17100TIP3    H272716   5.379   1.898  13.166 -1.7460 -1.1983  0.7308
17101TIP3   OH272717   3.526   3.094  16.637 -0.3982  0.2717 -0.7492
17101TIP3    H172718   3.482   3.010  16.650  1.6973 -0.7862 -0.1002
17101TIP3    H272719   3.560   3.117  16.723  0.6561  0.8362 -1.3040
17102TIP3   OH272720   4.659   2.234  16.952 -0.3806 -0.3265  0.0557
17102TIP3    H172721   4.681   2.224  16.860  3.1172 -1.1699  0.8571
17102TIP3    H272722   4.659   2.145  16.987  1.5579  0.1392  1.4290
17103TIP3   OH272723   4.041   0.015   6.026 -0.1231 -0.3996  0.1599
17103TIP3    H172724   4.067  -0.042   6.098  0.4030 -0.9465 -0.4445
17103TIP3    H272725   4.103  -0.006   5.956 -0.0683  0.7403 -0.1599
17104TIP3   OH272726   1.134   1.967   2.140  0.2675 -0.1811  0.0839
17104TIP3    H172727   1.200   2.035   2.126 -1.8359  1.7471 -1.2417
17104TIP3    H272728   1.098   1.986   2.226  0.2230 -0.1103  0.0498
17105TIP3   OH272729   4.922   0.798   2.083  0.4668 -0.5051 -0.5958
17105TIP3    H172730   4.987   0.845   2.031  0.1151  3.0161  1.7686
17105TIP3    H272731   4.839   0.811   2.036  0.6994 -0.7125 -1.0722
17106TIP3   OH272732   6.161   3.165  12.705 -0.0892  0.5612  0.2577
17106TIP3    H172733   6.068   3.151  12.722 -0.3279  0.6652 -0.8587
17106TIP3    H272734   6.171   3.147  12.611  1.1504 -0.1552  0.4987
17107TIP3   OH272735   5.784   1.479  14.097  0.4797  0.2503  0.4288
17107TIP3    H172736   5.845   1.546  14.128  0.1321  1.7909 -1.9149
17107TIP3    H272737   5.830   1.396  14.111  1.2146  0.9948  2.7580
17108TIP3   OH272738   2.012   2.609  14.239  0.1955 -0.1178 -0.2748
17108TIP3    H172739   1.926   2.649  14.251  0.0243 -0.2619 -0.9387
17108TIP3    H272740   2.005   2.564  14.154  1.4446  1.2417 -1.1339
17109TIP3   OH272741   5.510   5.131  15.166  0.0202 -0.6080  0.3425
17109TIP3    H172742   5.430   5.084  15.144  0.0328  0.0048 -1.1060
17109TIP3    H272743   5.508   5.138  15.261 -1.1158 -1.5237  0.4050
17110TIP3   OH272744   2.097   5.140   6.797  0.0383 -0.2816  0.5355
17110TIP3    H172745   2.130   5.202   6.731  1.3424 -0.4101  1.0249
17110TIP3    H272746   2.003   5.138   6.783 -0.2776  2.8278  1.3122
17111TIP3   OH272747   3.416   0.518   5.576  0.6675 -0.2832  0.5189
17111TIP3    H172748   3.485   0.470   5.622  0.9688 -0.2778  0.0819
17111TIP3    H272749   3.439   0.610   5.586  1.6625 -0.3368 -1.0479
17112TIP3   OH272750   2.331   3.766   5.310  0.1722 -0.4038  0.4881
17112TIP3    H172751   2.366   3.749   5.397 -0.5822  0.3341  0.9437
17112TIP3    H272752   2.316   3.861   5.308 -0.5053 -0.5146 -0.1805
17113TIP3   OH272753   1.178   5.538   6.955 -0.7706  0.2915  0.0439
17113TIP3    H172754   1.271   5.535   6.931 -0.0656 -0.3858  2.5737
17113TIP3    H272755   1.136   5.479   6.892  0.4069  0.8916 -1.3812
17114TIP3   OH272756   3.794   1.884   1.784 -0.1166 -0.1347  0.1452
17114TIP3    H172757   3.858   1.895   1.854  1.4984 -0.1924 -1.2524
17114TIP3    H272758   3.732   1.819   1.817  1.0982 -0.8031  1.1906
17115TIP3   OH272759   0.341   5.184  14.585  0.2784  0.4503 -0.0829
17115TIP3    H172760   0.332   5.094  14.554 -1.8917  1.1991 -2.0136
17115TIP3    H272761   0.382   5.231  14.512  1.9452  0.9575  1.1255
17116TIP3   OH272762   4.865   5.426   0.668  0.4758  1.0587 -1.1820
17116TIP3    H172763   4.948   5.469   0.688  0.8037 -0.1897  0.2453
17116TIP3    H272764   4.847   5.371   0.744 -1.0389  0.3600 -2.0077
17117TIP3   OH272765   5.809   6.201  16.913  0.2486 -0.5754 -0.2169
17117TIP3    H172766   5.762   6.199  16.996 -0.3208  0.8542 -0.4717
17117TIP3    H272767   5.841   6.290  16.905  2.3381 -1.2916 -0.4569
17118TIP3   OH272768   4.089   6.461  14.519  0.6504 -0.5656  0.0171
17118TIP3    H172769   4.001   6.440  14.551  0.9846 -1.2554  0.5048
17118TIP3    H272770   4.090   6.429  14.429  0.4213 -0.6158  0.0314
17119TIP3   OH272771   6.105   0.702  14.821 -0.5577 -0.0447  0.1371
17119TIP3    H172772   6.148   0.658  14.748 -1.2780 -0.3855 -0.0934
17119TIP3    H272773   6.131   0.794  14.813 -1.1144  0.0284 -0.9137
17120TIP3   OH272774   1.315   3.944  14.773  0.1952  0.6962 -0.1034
17120TIP3    H172775   1.256   3.888  14.723 -1.5784  0.5187  2.0163
17120TIP3    H272776   1.325   4.023  14.721  0.3571 -0.3903 -1.7756
17121TIP3   OH272777   1.353   2.603  11.054  0.5279 -0.2110 -0.5593
17121TIP3    H172778   1.354   2.663  11.129  2.5098 -1.6726  0.6716
17121TIP3    H272779   1.371   2.659  10.979 -1.0790  1.2289  0.0411
17122TIP3   OH272780   3.552   4.324   3.706  0.0709 -0.2724 -0.2095
17122TIP3    H172781   3.602   4.244   3.687 -0.3692 -0.3359 -1.1434
17122TIP3    H272782   3.471   4.313   3.657 -0.8615 -0.1536  1.2423
17123TIP3   OH272783   1.291   5.638  15.114  0.1638  0.2434  0.5633
17123TIP3    H172784   1.316   5.589  15.193  2.1321 -0.3588 -0.3689
17123TIP3    H272785   1.208   5.600  15.087 -1.0021  1.0335  2.7804
17124TIP3   OH272786   4.405   6.114  14.930  0.2411  0.3179  0.2509
17124TIP3    H172787   4.324   6.070  14.905 -0.1131  0.4224  1.1442
17124TIP3    H272788   4.376   6.199  14.963  0.8132  0.7625 -0.3819
17125TIP3   OH272789   1.221   2.259   2.747 -0.4149 -0.0793  0.3495
17125TIP3    H172790   1.286   2.253   2.817  0.7136  3.1559 -0.2892
17125TIP3    H272791   1.263   2.312   2.679 -3.7091  2.3172 -0.0464
17126TIP3   OH272792   6.186   3.773  11.248  0.0079 -0.5250 -0.7520
17126TIP3    H172793   6.109   3.772  11.191 -0.6460 -0.1467  0.1049
17126TIP3    H272794   6.254   3.729  11.197 -0.3597  0.3889 -2.0896
17127TIP3   OH272795   4.611   3.800   0.828  0.0241 -0.0090 -0.0246
17127TIP3    H172796   4.663   3.850   0.765 -0.0947  0.1771  0.0276
17127TIP3    H272797   4.545   3.755   0.774  0.5536 -0.6477 -0.1530
17128TIP3   OH272798   4.184   0.431  13.991  0.5378 -0.6911  0.0644
17128TIP3    H172799   4.248   0.374  14.032  0.3571 -1.1244 -0.2461
17128TIP3    H272800   4.231   0.474  13.920  0.8970  0.1912  0.8170
17129TIP3   OH272801   5.965   4.208   0.701 -0.0690 -0.0654 -0.6989
17129TIP3    H172802   6.020   4.277   0.662  0.4917 -0.0085  0.1615
17129TIP3    H272803   6.027   4.152   0.746 -0.8053  0.6477  1.2967
17130TIP3   OH272804   6.656   4.215  13.697  0.1568 -0.4465 -0.5057
17130TIP3    H172805   6.581   4.258  13.656 -0.8985 -2.0654 -0.3560
17130TIP3    H272806   6.703   4.175  13.624  1.5722  1.5041 -0.7380
17131TIP3   OH272807   5.127   1.651   7.120 -0.7780  0.4707 -0.3457
17131TIP3    H172808   5.084   1.730   7.087  0.1567  1.6112  1.0214
17131TIP3    H272809   5.095   1.580   7.063 -0.7716  1.9861 -2.3705
17132TIP3   OH272810   3.136   5.316  15.559 -0.2007 -0.0106  0.1462
17132TIP3    H172811   3.088   5.381  15.508 -0.8937 -1.8713 -1.6740
17132TIP3    H272812   3.224   5.316  15.521 -0.7290 -1.4271 -1.1640
17133TIP3   OH272813   4.594   1.141  16.477  0.5316 -0.1447  0.0845
17133TIP3    H172814   4.520   1.132  16.537 -1.0013  2.1470 -1.3075
17133TIP3    H272815   4.659   1.078  16.509 -1.4918 -1.3372  2.1259
17134TIP3   OH272816   2.015   2.985   4.396 -0.1738 -0.4795  0.0211
17134TIP3    H172817   1.954   2.977   4.469  0.3170  1.0631  0.6338
17134TIP3    H272818   1.965   3.029   4.327  0.3702  1.3372  0.7379
17135TIP3   OH272819   3.607   6.535  16.377  0.0036 -0.6596  0.0343
17135TIP3    H172820   3.625   6.466  16.314 -1.1262  0.6290 -1.7940
17135TIP3    H272821   3.518   6.565  16.356 -0.2574  0.0976  1.9942
17136TIP3   OH272822   5.429   1.143  12.933  0.1735  0.6919 -0.5502
17136TIP3    H172823   5.367   1.131  12.862 -1.1212  0.8240  0.5176
17136TIP3    H272824   5.394   1.216  12.984  1.0557  0.5926  0.2240
17137TIP3   OH272825   6.435   3.423  14.970 -0.1710  0.4867 -0.8742
17137TIP3    H172826   6.367   3.356  14.974  1.1998 -0.9725  3.0074
17137TIP3    H272827   6.493   3.394  14.899  0.0483 -2.2148  0.2917
17138TIP3   OH272828   5.545   1.944   4.036  0.1462  0.0606  0.0346
17138TIP3    H172829   5.477   1.962   3.972 -1.2942 -1.7262  0.9429
17138TIP3    H272830   5.607   1.887   3.990 -1.0883 -1.5429  0.2537
17139TIP3   OH272831   0.362   6.362   4.431  0.1349  0.7237 -0.4134
17139TIP3    H172832   0.376   6.429   4.363 -1.8140  1.4116 -0.1779
17139TIP3    H272833   0.285   6.314   4.402  1.0417 -0.9689 -0.1712
17140TIP3   OH272834   5.840   1.343  15.896 -0.4552  0.0446 -0.0445
17140TIP3    H172835   5.910   1.277  15.906  1.2242  1.3334 -2.2069
17140TIP3    H272836   5.768   1.295  15.856 -1.0234 -1.3835  2.4782
17141TIP3   OH272837   3.375   1.939   4.534  0.3046 -0.0666 -0.1665
17141TIP3    H172838   3.469   1.957   4.542  0.4000 -0.3820 -0.5705
17141TIP3    H272839   3.334   2.004   4.591  0.8077 -0.4232  0.6179
17142TIP3   OH272840   1.728   3.302   3.911  0.0992 -0.1995 -0.0499
17142TIP3    H172841   1.683   3.257   3.840 -0.8896 -0.8982  0.9789
17142TIP3    H272842   1.775   3.374   3.869  2.4096 -2.5952 -1.8797
17143TIP3   OH272843   0.371   3.362  12.868  0.5050  0.2405  0.2442
17143TIP3    H172844   0.339   3.430  12.926  0.9055 -0.2542  1.0561
17143TIP3    H272845   0.318   3.285  12.888  1.1392 -0.1407  0.4878
17144TIP3   OH272846   6.161   5.869   0.677 -0.2540 -0.3697 -0.0095
17144TIP3    H172847   6.247   5.853   0.717 -0.9943  0.1708  1.9040
17144TIP3    H272848   6.170   5.955   0.636  0.3240 -0.6305 -0.4486
17145TIP3   OH272849   3.773   3.965  10.992  0.2242 -0.1939  0.3516
17145TIP3    H172850   3.750   3.894  10.932  1.3186 -1.3030  1.1874
17145TIP3    H272851   3.694   4.019  10.996 -0.3810 -0.9353 -0.9020
17146TIP3   OH272852   2.815   6.457  12.706  0.0746 -0.5729  0.0052
17146TIP3    H172853   2.860   6.518  12.764 -1.6504  1.7625 -0.9589
17146TIP3    H272854   2.878   6.386  12.693  1.8983  0.5937  1.7702
17147TIP3   OH272855   2.149   5.562   4.713 -0.3613  1.0579 -0.1115
17147TIP3    H172856   2.111   5.649   4.727 -1.1953  0.9381 -1.4098
17147TIP3    H272857   2.076   5.510   4.679  0.6224  0.4190 -1.3127
17148TIP3   OH272858   1.844   0.281   6.085  0.5011  0.0936 -0.1826
17148TIP3    H172859   1.787   0.217   6.128 -0.2300  1.7546  1.4668
17148TIP3    H272860   1.784   0.339   6.038  1.0379  0.3592 -0.5536
17149TIP3   OH272861   0.336   0.353   0.137 -0.2926 -0.0102 -0.1612
17149TIP3    H172862   0.263   0.383   0.082  1.4894  1.7113 -1.7730
17149TIP3    H272863   0.341   0.259   0.120 -1.6397 -0.0258 -0.6304
17150TIP3   OH272864   1.066   4.656  12.882  0.0990 -0.5547 -0.5645
17150TIP3    H172865   1.158   4.639  12.861  0.2540 -0.4321  0.0069
17150TIP3    H272866   1.030   4.694  12.802  0.2998 -1.5052 -1.1192
17151TIP3   OH272867   2.835   2.656  12.436  0.4135 -0.1443  0.0647
17151TIP3    H172868   2.822   2.743  12.399  0.8215 -0.0734  0.0819
17151TIP3    H272869   2.768   2.602  12.394  0.5366  0.0462 -0.3818
17152TIP3   OH272870   0.655   0.973   2.862  0.1246  0.1833 -0.1365
17152TIP3    H172871   0.582   0.911   2.864  1.8083 -1.9262 -0.0067
17152TIP3    H272872   0.697   0.963   2.947 -0.1602  2.3688  0.3082
17153TIP3   OH272873   3.987   5.921  13.118  0.1199  0.3116  0.5337
17153TIP3    H172874   4.059   5.971  13.079  1.6749 -2.9661 -1.3047
17153TIP3    H272875   4.016   5.902  13.207  0.3639  1.0609  0.6198
17154TIP3   OH272876   6.446   2.477   5.865 -0.2252 -0.3409  0.1106
17154TIP3    H172877   6.402   2.455   5.946  0.2608  0.5974  0.6459
17154TIP3    H272878   6.434   2.572   5.856  1.2721 -0.1344  0.0470
17155TIP3   OH272879   2.417   4.187  15.471  0.0112  0.3579  0.3896
17155TIP3    H172880   2.502   4.203  15.431  0.3065 -0.4204  0.7002
17155TIP3    H272881   2.357   4.175  15.397  0.8168 -2.5538  0.1131
17156TIP3   OH272882   3.238   5.821  16.156  0.2630  0.0327 -0.5504
17156TIP3    H172883   3.297   5.869  16.097 -1.1206  1.0946 -1.1156
17156TIP3    H272884   3.157   5.813  16.107  1.0586 -5.1746 -1.5506
17157TIP3   OH272885   2.927   0.499   1.437 -0.2632 -0.0562 -0.0746
17157TIP3    H172886   2.983   0.532   1.508 -1.0841 -0.5013  0.8097
17157TIP3    H272887   2.969   0.418   1.409 -0.6760 -0.6265  0.8943
17158TIP3   OH272888   3.949   2.374   0.903  0.2836  0.2762  0.6425
17158TIP3    H172889   3.909   2.296   0.941  0.3345 -0.4112 -0.6372
17158TIP3    H272890   4.041   2.350   0.891  0.2132  0.3564 -0.1463
17159TIP3   OH272891   3.566   5.143   0.400 -0.0424  0.2214  0.2045
17159TIP3    H172892   3.638   5.085   0.374  1.6630  2.1492  0.4367
17159TIP3    H272893   3.566   5.141   0.495 -0.2560  0.2990  0.2068
17160TIP3   OH272894   5.642   4.921   5.594 -0.3152  0.8413  0.6460
17160TIP3    H172895   5.585   4.998   5.606  1.7273  2.7545 -0.9492
17160TIP3    H272896   5.600   4.871   5.524 -1.6957  0.4075  1.7296
17161TIP3   OH272897   0.650   3.372   2.010  0.0426 -0.4741  0.1662
17161TIP3    H172898   0.744   3.369   2.025 -0.0673 -0.6041  0.8705
17161TIP3    H272899   0.637   3.324   1.928  0.6632  0.2095 -0.3356
17162TIP3   OH272900   0.160   0.272   1.455  0.8922  0.1189  0.6021
17162TIP3    H172901   0.153   0.184   1.490  2.1292 -1.1011 -1.9285
17162TIP3    H272902   0.199   0.324   1.525 -0.8348 -1.0336  2.5153
17163TIP3   OH272903   0.690   5.162  12.454  0.5766 -0.0525  0.0202
17163TIP3    H172904   0.785   5.156  12.466  0.3914 -1.0340  1.2557
17163TIP3    H272905   0.659   5.205  12.533  0.0407  0.8179 -0.6555
17164TIP3   OH272906   1.642   2.147   3.539 -0.3379  0.1254 -0.2299
17164TIP3    H172907   1.692   2.090   3.479 -1.6550 -1.6205  0.2372
17164TIP3    H272908   1.601   2.086   3.600 -0.4680  1.7553  1.3650
17165TIP3   OH272909   1.088   5.235   0.357 -0.4245 -0.6928 -0.0408
17165TIP3    H172910   1.000   5.272   0.358 -0.2202 -0.1968  0.8501
17165TIP3    H272911   1.075   5.141   0.370 -0.8035 -0.5617  0.5754
17166TIP3   OH272912   1.670   6.401  12.002 -0.4773  0.1047  0.4736
17166TIP3    H172913   1.758   6.437  11.994 -0.4264  0.2655  1.6344
17166TIP3    H272914   1.684   6.306  12.012 -0.4882  0.0330 -0.1366
17167TIP3   OH272915   4.544   6.573   3.835 -0.0504  0.4397  0.4961
17167TIP3    H172916   4.612   6.591   3.900  0.8886 -1.1048 -0.0176
17167TIP3    H272917   4.500   6.495   3.868  0.3829 -0.3088 -0.6616
17168TIP3   OH272918   1.312   1.679   1.879 -0.4243 -0.5249  0.2465
17168TIP3    H172919   1.335   1.638   1.962  1.1210 -0.4434 -0.1100
17168TIP3    H272920   1.329   1.611   1.814  1.0836  0.2999 -0.2455
17169TIP3   OH272921   3.068   5.478  14.533  0.1532 -0.0977  0.0097
17169TIP3    H172922   2.992   5.468  14.475  0.0059 -1.8836  0.4730
17169TIP3    H272923   3.038   5.541  14.600 -0.4663  0.1958 -0.5290
17170TIP3   OH272924   4.416   0.637  12.653  0.7058 -0.2619 -0.3887
17170TIP3    H172925   4.340   0.694  12.647 -1.0074 -2.2664  0.9395
17170TIP3    H272926   4.448   0.631  12.563 -0.1103  1.3564 -0.8229
17171TIP3   OH272927   2.362   2.376  15.198  0.8661 -0.9057  0.7642
17171TIP3    H172928   2.346   2.282  15.193  0.3101 -0.7654 -2.4719
17171TIP3    H272929   2.456   2.386  15.183  0.6228 -0.9443 -1.0797
17172TIP3   OH272930   4.470   1.049  17.173  0.1854  0.2448 -0.0440
17172TIP3    H172931   4.558   1.014  17.185  0.5935  0.9322 -0.9689
17172TIP3    H272932   4.461   1.117  17.239 -0.3779 -1.0937  1.3371
17173TIP3   OH272933   5.937   1.862   0.292 -0.4355  0.3096  0.0597
17173TIP3    H172934   5.844   1.842   0.281 -0.7495  1.9680 -0.7325
17173TIP3    H272935   5.952   1.938   0.235  0.9667  1.2889  1.6463
17174TIP3   OH272936   4.504   3.841   2.548  0.2519  0.1910  0.7767
17174TIP3    H172937   4.546   3.862   2.631 -0.6292  1.6199  0.9122
17174TIP3    H272938   4.474   3.926   2.515 -1.1578 -0.5805 -0.0311
17175TIP3   OH272939   0.198   1.954  14.524 -0.6215 -0.4637 -0.3266
17175TIP3    H172940   0.206   1.929  14.616  0.6679 -1.6097 -0.7294
17175TIP3    H272941   0.175   1.873  14.478 -1.5173  0.1465 -1.0037
17176TIP3   OH272942   5.194   5.964  13.881  0.0604 -0.0978 -0.7842
17176TIP3    H172943   5.273   5.952  13.933 -0.5253 -0.1251  0.1209
17176TIP3    H272944   5.226   5.988  13.794  1.0507  0.5200 -0.2679
17177TIP3   OH272945   5.281   0.834  15.423 -0.1130  0.0761 -0.0278
17177TIP3    H172946   5.352   0.855  15.363  0.6345  1.8046  1.3852
17177TIP3    H272947   5.244   0.918  15.449 -3.3794 -0.7581 -1.4200
17178TIP3   OH272948   4.743   0.922  12.547  0.1622 -0.3374  0.1578
17178TIP3    H172949   4.784   0.873  12.475 -0.1903  0.2380 -0.4520
17178TIP3    H272950   4.662   0.875  12.565 -1.5304  1.4181 -2.2360
17179TIP3   OH272951   5.202   0.713   4.162  0.2174  0.1743  0.3615
17179TIP3    H172952   5.256   0.771   4.107 -1.3281  0.2764 -1.1702
17179TIP3    H272953   5.122   0.764   4.177 -0.7942 -1.1759 -0.2340
17180TIP3   OH272954   3.833   2.135  13.838  0.1024 -0.1585  0.4099
17180TIP3    H172955   3.740   2.159  13.829 -0.3360 -1.8943  0.0263
17180TIP3    H272956   3.880   2.204  13.790 -1.1781 -0.6768 -1.7229
17181TIP3   OH272957   5.819   2.258   5.435  0.0130 -0.2071  0.4997
17181TIP3    H172958   5.851   2.227   5.351 -0.7089 -0.1558  0.1978
17181TIP3    H272959   5.855   2.347   5.443  0.3732 -0.3453  0.4080
17182TIP3   OH272960   4.129   3.059  14.050 -0.6521 -0.2737 -0.6850
17182TIP3    H172961   4.199   3.109  14.008 -0.8472 -0.2182 -0.9473
17182TIP3    H272962   4.144   2.969  14.022  0.3008 -0.5494  0.5922
17183TIP3   OH272963   1.400   6.079  12.854  0.1008  0.5023  0.9321
17183TIP3    H172964   1.332   6.068  12.788  1.8954  2.7721 -1.5103
17183TIP3    H272965   1.460   6.005  12.841  0.6350  1.1249 -0.3139
17184TIP3   OH272966   4.140   1.968  16.366 -0.1312 -0.1846 -0.2379
17184TIP3    H172967   4.090   2.042  16.402  1.8264  1.7241 -1.2465
17184TIP3    H272968   4.168   1.996  16.279  2.1567 -1.3795  0.0153
17185TIP3   OH272969   2.241   5.918   6.490 -0.2454  0.0495 -0.0896
17185TIP3    H172970   2.319   5.866   6.471  0.0007  0.4227 -0.1171
17185TIP3    H272971   2.274   5.990   6.545 -0.3420  0.9228 -1.1472
17186TIP3   OH272972   1.501   4.903   6.960 -0.1773  0.1915 -0.6949
17186TIP3    H172973   1.582   4.853   6.950 -0.0765  0.1956  0.0808
17186TIP3    H272974   1.530   4.994   6.962  0.0913  0.1139  2.1054
17187TIP3   OH272975   3.095   3.612   2.623 -0.2899 -0.1169  0.4996
17187TIP3    H172976   3.152   3.612   2.700 -0.9695  1.0892  1.0356
17187TIP3    H272977   3.154   3.625   2.549  0.4296 -1.7273  0.7331
17188TIP3   OH272978   5.808   3.545  12.331  0.2521  0.8403  0.3959
17188TIP3    H172979   5.864   3.580  12.262 -0.1938  1.7884  0.5029
17188TIP3    H272980   5.719   3.562  12.301  0.0215 -0.0041  0.5670
17189TIP3   OH272981   0.137   1.491   5.419  0.0247 -0.0212 -0.7878
17189TIP3    H172982   0.135   1.396   5.428  1.5588  0.0044  0.1016
17189TIP3    H272983   0.126   1.523   5.508 -0.9934  0.6668 -1.1444
17190TIP3   OH272984   6.417   6.346   6.332  1.0122 -0.4090 -0.3959
17190TIP3    H172985   6.493   6.335   6.388 -1.3992 -1.2271  3.0844
17190TIP3    H272986   6.379   6.258   6.326 -1.1732  0.3836  0.5360
17191TIP3   OH272987   3.863   5.792  13.885 -0.2861 -0.6778 -0.4458
17191TIP3    H172988   3.953   5.804  13.914 -0.4922  1.0743 -0.3872
17191TIP3    H272989   3.838   5.705  13.916  0.8901 -0.5672  0.8656
17192TIP3   OH272990   2.771   2.020   4.723 -0.3302  0.0400 -0.0806
17192TIP3    H172991   2.747   2.082   4.792  1.1604 -0.3745  0.8603
17192TIP3    H272992   2.754   2.067   4.642 -1.0159  0.9771  0.5811
17193TIP3   OH272993   0.089   1.456  15.681 -0.0749 -0.0359 -0.4848
17193TIP3    H172994   0.070   1.443  15.774  1.7745 -0.5415 -0.1432
17193TIP3    H272995   0.040   1.387  15.637  0.1360 -0.6566  0.2380
17194TIP3   OH272996   2.789   3.711  11.622 -0.6227  0.2058  0.3621
17194TIP3    H172997   2.838   3.630  11.606  2.3582  1.9295  0.0577
17194TIP3    H272998   2.744   3.695  11.705  2.1276 -0.8587  1.7943
17195TIP3   OH272999   2.661   3.201   2.568 -0.9411  0.3341  0.1106
17195TIP3    H173000   2.695   3.291   2.569  2.0351 -0.6749 -1.0798
17195TIP3    H273001   2.575   3.208   2.610 -0.5019  3.5880  0.7378
17196TIP3   OH273002   1.188   5.871  15.254  0.3602  0.0336  0.3000
17196TIP3    H173003   1.210   5.795  15.200  0.7834  0.1915  0.2487
17196TIP3    H273004   1.142   5.835  15.329  0.6961 -0.2913  0.3510
17197TIP3   OH273005   6.246   2.693   4.175 -0.9295  0.3250  0.1435
17197TIP3    H173006   6.281   2.704   4.264  0.9396 -0.3052 -0.4718
17197TIP3    H273007   6.155   2.667   4.189 -0.1685 -1.7233  1.9513
17198TIP3   OH273008   3.187   5.172  16.099 -0.8151  0.0854  0.2193
17198TIP3    H173009   3.222   5.225  16.170 -1.9889  0.9250  0.2041
17198TIP3    H273010   3.234   5.089  16.105 -0.8488  0.1622  1.9403
17199TIP3   OH273011   0.654   1.079   5.277 -0.2303 -0.0810  0.7671
17199TIP3    H173012   0.572   1.087   5.229 -0.3305 -0.0374  0.9476
17199TIP3    H273013   0.656   0.987   5.305 -0.0106 -0.1949  0.3887
17200TIP3   OH273014   4.781   2.572  12.280 -0.5841  0.3087  0.5135
17200TIP3    H173015   4.737   2.487  12.272 -1.2507  0.7543 -1.0115
17200TIP3    H273016   4.870   2.556  12.248 -0.2215 -0.1466  1.7069
17201TIP3   OH273017   2.751   2.931  15.381  0.5240 -0.2384 -1.0490
17201TIP3    H173018   2.835   2.923  15.426  0.4169  1.1721 -0.5447
17201TIP3    H273019   2.686   2.911  15.449  0.4273 -1.1160 -1.3825
17202TIP3   OH273020   3.858   3.758  16.008 -0.1759  0.0964 -0.8426
17202TIP3    H173021   3.895   3.809  16.081  1.8523  0.4651 -2.0459
17202TIP3    H273022   3.791   3.703  16.049 -0.8020  2.0066  0.8977
17203TIP3   OH273023   1.954   0.559   1.849 -0.1645  0.0990  1.0430
17203TIP3    H173024   1.990   0.479   1.887 -2.6023 -1.6524 -0.0601
17203TIP3    H273025   1.920   0.533   1.764 -0.7194  2.4135  0.4689
17204TIP3   OH273026   1.033   0.403  11.718 -0.2363 -0.5962 -0.0098
17204TIP3    H173027   1.077   0.401  11.633  1.9499  0.6059  0.9965
17204TIP3    H273028   1.076   0.475  11.765 -2.8565  0.1986  1.3671
17205TIP3   OH273029   1.501   2.818  11.702  0.0558 -0.5708 -0.2905
17205TIP3    H173030   1.538   2.769  11.775 -2.1400  0.3189  1.5398
17205TIP3    H273031   1.442   2.756  11.658 -1.5913 -0.0881  1.1298
17206TIP3   OH273032   6.605   3.529  16.407 -0.0683 -0.0406  0.2212
17206TIP3    H173033   6.614   3.616  16.445 -0.4638  0.8983 -1.7292
17206TIP3    H273034   6.518   3.530  16.366  0.4884 -0.8502 -1.0252
17207TIP3   OH273035   1.428   0.210   2.691 -0.3859  0.8781 -0.0052
17207TIP3    H173036   1.522   0.226   2.698 -0.4192  1.2371 -0.3285
17207TIP3    H273037   1.414   0.193   2.598 -0.3584 -1.0467  0.2958
17208TIP3   OH273038   5.588   5.496  13.044  0.4849  0.2635 -0.1479
17208TIP3    H173039   5.554   5.579  13.078  1.8617  1.0281 -0.5494
17208TIP3    H273040   5.592   5.509  12.949  1.6749  0.1272 -0.1233
17209TIP3   OH273041   4.067   6.275   2.858 -0.7588 -0.4643 -0.1989
17209TIP3    H173042   4.132   6.345   2.859 -0.4292 -0.6447 -2.6064
17209TIP3    H273043   4.117   6.194   2.868 -0.3829 -0.6705 -2.9527
17210TIP3   OH273044   0.490   3.849  16.942 -0.1466 -0.4467  0.5521
17210TIP3    H173045   0.521   3.877  17.028 -1.4913  1.7505  0.3831
17210TIP3    H273046   0.441   3.768  16.960  1.5395 -1.3316  1.4539
17211TIP3   OH273047   5.420   0.344   2.539 -0.1345 -0.0718 -0.5594
17211TIP3    H173048   5.439   0.411   2.605 -1.3431  0.8115 -1.0572
17211TIP3    H273049   5.407   0.264   2.589 -1.2006  0.6198  0.3171
17212TIP3   OH273050   6.447   0.491  14.983 -0.0538  0.1399 -0.0615
17212TIP3    H173051   6.452   0.566  14.924 -0.2891  0.2357  0.0370
17212TIP3    H273052   6.366   0.505  15.033  0.5517  0.4717  0.8368
17213TIP3   OH273053   5.012   2.606  11.622  0.1050  0.2918 -0.3411
17213TIP3    H173054   5.097   2.645  11.600 -0.8466  1.6781 -1.7449
17213TIP3    H273055   4.954   2.681  11.636 -0.5748 -0.6081  2.1574
17214TIP3   OH273056   0.236   2.274   5.340 -0.2161 -0.5368  0.0922
17214TIP3    H173057   0.283   2.254   5.259 -2.9744 -1.4177 -1.3985
17214TIP3    H273058   0.265   2.207   5.402  1.2106 -0.4300 -0.4210
17215TIP3   OH273059   1.395   6.230   1.953  0.0718 -0.2608 -0.1256
17215TIP3    H173060   1.489   6.219   1.939  0.1914  1.8073 -1.4400
17215TIP3    H273061   1.373   6.309   1.904 -2.7091 -1.6894 -1.3880
17216TIP3   OH273062   3.754   3.843  14.443  0.2420  0.1802  0.6830
17216TIP3    H173063   3.684   3.779  14.460 -0.1445  0.1978 -0.6812
17216TIP3    H273064   3.716   3.902  14.378  1.4739  0.2694  0.0151
17217TIP3   OH273065   2.657   0.962  16.555 -0.3407 -0.0453 -0.2969
17217TIP3    H173066   2.664   0.887  16.495  0.1256  0.1802 -0.5243
17217TIP3    H273067   2.578   1.008  16.526 -2.0149 -1.7260  1.3120
17218TIP3   OH273068   5.471   6.101   3.763  0.1957  0.2973 -0.7682
17218TIP3    H173069   5.399   6.163   3.758  1.8510  2.2751 -2.8461
17218TIP3    H273070   5.438   6.021   3.721 -0.4308  1.6319 -2.9973
17219TIP3   OH273071   0.089   6.595  12.429  0.2677 -0.3205  0.4433
17219TIP3    H173072   0.166   6.619  12.377  1.1055 -1.5560  1.0575
17219TIP3    H273073   0.118   6.603  12.520 -0.5186 -0.2285  0.6917
17220TIP3   OH273074   0.847   1.252   5.345 -0.2923  0.1401  0.1818
17220TIP3    H173075   0.889   1.243   5.430  0.7491  1.1391 -0.1981
17220TIP3    H273076   0.786   1.179   5.340  1.4500 -1.4192  0.7501
17221TIP3   OH273077   6.499   1.357  11.211 -0.1832 -0.7249 -0.2704
17221TIP3    H173078   6.452   1.293  11.158  0.6133  0.4160 -2.4964
17221TIP3    H273079   6.432   1.421  11.235 -0.2910 -0.4527 -1.2459
17222TIP3   OH273080   4.853   6.360   2.597  0.3454 -0.2208  0.5254
17222TIP3    H173081   4.785   6.303   2.561 -1.3728  1.7901  0.3822
17222TIP3    H273082   4.887   6.409   2.522  1.5808 -0.8043  0.6830
17223TIP3   OH273083   3.164   2.961   4.740 -0.3160 -0.2641  0.7566
17223TIP3    H173084   3.109   2.898   4.694 -0.3065 -0.8939  1.5852
17223TIP3    H273085   3.253   2.930   4.726 -0.3763 -1.1316  2.1436
17224TIP3   OH273086   2.485   2.140   0.667  0.0005  0.0909  0.3813
17224TIP3    H173087   2.557   2.120   0.606  1.4184  2.8200  1.0092
17224TIP3    H273088   2.506   2.092   0.746  2.2738  2.2702  1.2129
17225TIP3   OH273089   3.349   1.363   1.517  0.1775  0.2975 -0.1001
17225TIP3    H173090   3.392   1.412   1.447 -0.4988  1.9702  0.6037
17225TIP3    H273091   3.257   1.387   1.509 -0.2755 -1.3249 -0.0594
17226TIP3   OH273092   1.663   6.435   3.899  0.6978  0.2955 -0.3347
17226TIP3    H173093   1.605   6.477   3.835  1.9574  2.3283 -0.1940
17226TIP3    H273094   1.746   6.482   3.892  1.2615 -0.2471  1.9416
17227TIP3   OH273095   5.236   3.438  10.951  0.1153 -0.2104 -0.0528
17227TIP3    H173096   5.195   3.356  10.978 -1.3230  0.2500 -0.7631
17227TIP3    H273097   5.329   3.416  10.942 -0.2938 -1.8779 -0.6217
17228TIP3   OH273098   1.078   2.998   3.597 -0.5504 -0.3813  0.0673
17228TIP3    H173099   1.137   3.042   3.537  0.7239  0.5672  1.9044
17228TIP3    H273100   1.017   3.067   3.626 -0.5274 -0.5741  0.5931
17229TIP3   OH273101   2.931   2.945  10.963 -0.2872 -0.0004  0.1565
17229TIP3    H173102   2.943   3.033  10.927 -0.1892  0.0502  0.3125
17229TIP3    H273103   3.000   2.893  10.921 -3.1055 -1.1505 -3.6215
17230TIP3   OH273104   0.375   3.478  11.816  0.3065 -0.6909 -0.0061
17230TIP3    H173105   0.298   3.523  11.780  1.0482  0.0536 -0.6848
17230TIP3    H273106   0.418   3.543  11.870  2.0374 -0.1294 -1.9141
17231TIP3   OH273107   0.393   0.604   0.235  0.0348 -0.3886  0.2675
17231TIP3    H173108   0.381   0.511   0.217 -2.1717 -0.3961  1.4042
17231TIP3    H273109   0.358   0.649   0.158  1.8556 -0.4609 -0.6434
17232TIP3   OH273110   5.392   0.575  17.165  0.3521 -0.0758 -0.3906
17232TIP3    H173111   5.343   0.515  17.220  0.4064  0.5211  0.3137
17232TIP3    H273112   5.387   0.660  17.209  2.3391 -0.0631 -0.0644
17233TIP3   OH273113   3.959   4.129   1.491  0.1673 -0.0155  0.3189
17233TIP3    H173114   3.866   4.126   1.470 -0.0086 -0.6617  1.1566
17233TIP3    H273115   3.979   4.223   1.495  0.3099  0.2192 -2.9300
17234TIP3   OH273116   1.811   2.315  15.609 -0.3005 -0.8014  1.0960
17234TIP3    H173117   1.781   2.351  15.692  1.7352 -0.2958  1.6757
17234TIP3    H273118   1.813   2.221  15.623 -0.3109 -0.7417  1.5071
17235TIP3   OH273119   0.334   5.407  15.180 -0.1752  0.2519 -0.2294
17235TIP3    H173120   0.366   5.438  15.265 -2.3698 -0.6479  0.9886
17235TIP3    H273121   0.320   5.313  15.192 -0.9167  0.1889 -1.4562
17236TIP3   OH273122   6.609   4.788   4.579 -0.4283 -0.8143  0.2129
17236TIP3    H173123   6.547   4.849   4.539 -0.1627 -0.1582  0.7854
17236TIP3    H273124   6.661   4.756   4.505  2.4310  3.0400  0.2403
17237TIP3   OH273125   6.695   2.909  12.350 -0.4373 -0.0733  0.0037
17237TIP3    H173126   6.711   3.003  12.346 -1.9352  0.1534 -2.1496
17237TIP3    H273127   6.681   2.883  12.259 -0.9026 -2.2297  0.6375
17238TIP3   OH273128   2.765   3.029  16.024 -0.7177 -0.3608 -0.5263
17238TIP3    H173129   2.807   3.067  15.946 -0.3994  1.3346  0.4290
17238TIP3    H273130   2.755   3.103  16.084 -1.0563 -1.6192  1.0145
17239TIP3   OH273131   6.359   3.871  15.220  0.1053 -0.3368  0.1693
17239TIP3    H173132   6.273   3.902  15.193  0.3706 -0.3462 -0.7404
17239TIP3    H273133   6.346   3.831  15.305 -1.0691 -1.6578 -0.5985
17240TIP3   OH273134   6.269   4.767  13.810  0.0700 -0.7278 -0.2198
17240TIP3    H173135   6.304   4.691  13.857 -0.3570 -0.6116  0.3083
17240TIP3    H273136   6.244   4.828  13.880  2.5957  0.9351 -0.6449
17241TIP3   OH273137   1.459   1.239  14.486  0.0384 -0.2788 -0.1996
17241TIP3    H173138   1.537   1.251  14.431 -1.3562 -0.1909 -2.2343
17241TIP3    H273139   1.467   1.149  14.518  1.9720  0.3611  1.3336
17242TIP3   OH273140   3.293   0.298   5.124 -0.0445  0.1047 -0.0229
17242TIP3    H173141   3.244   0.337   5.051  0.5347  0.4490 -0.2311
17242TIP3    H273142   3.352   0.367   5.153  0.9830 -0.5967 -0.3827
17243TIP3   OH273143   0.605   4.732  14.021 -0.2412 -0.1499 -0.2299
17243TIP3    H173144   0.556   4.650  14.027  0.6293 -0.9131 -2.6384
17243TIP3    H273145   0.548   4.790  13.970 -0.9037  0.8479  1.5534
17244TIP3   OH273146   6.653   6.345  16.325  0.2650  0.0388  0.1311
17244TIP3    H173147   6.588   6.277  16.305 -1.7701  1.0599  2.7079
17244TIP3    H273148   6.650   6.404  16.250 -2.6099  0.5896  0.5752
17245TIP3   OH273149   4.594   5.605   2.394 -0.9666 -0.4009  0.2131
17245TIP3    H173150   4.540   5.627   2.317 -0.0890 -1.0637 -0.6197
17245TIP3    H273151   4.682   5.593   2.358  0.0023  1.6842  1.6898
17246TIP3   OH273152   3.417   2.613  13.543  0.3066  0.8113 -0.1232
17246TIP3    H173153   3.494   2.561  13.566 -1.1614 -1.1777  0.6020
17246TIP3    H273154   3.452   2.688  13.496  2.5845 -0.8273 -1.2623
17247TIP3   OH273155   1.577   2.133   4.475  0.0891 -0.4224  0.3958
17247TIP3    H173156   1.566   2.097   4.562  0.9565  1.0039  1.1359
17247TIP3    H273157   1.492   2.172   4.455 -1.0071 -3.0626 -0.5956
17248TIP3   OH273158   4.318   0.083   1.575  0.1628  0.4734 -0.8743
17248TIP3    H173159   4.359   0.169   1.572  2.0946 -0.2138  1.9310
17248TIP3    H273160   4.231   0.100   1.611  0.6203  1.2446 -0.0929
17249TIP3   OH273161   3.560   3.250   3.959  0.7285 -0.4135  0.3224
17249TIP3    H173162   3.635   3.238   4.017  1.1925 -1.1289 -0.4026
17249TIP3    H273163   3.501   3.177   3.981  0.5368 -0.2221  0.4458
17250TIP3   OH273164   5.953   0.761   2.980  0.2912 -0.1858 -0.0663
17250TIP3    H173165   6.017   0.762   3.051 -0.0074 -1.3014  0.2282
17250TIP3    H273166   5.906   0.679   2.991 -2.8995  1.6087  1.2316
17251TIP3   OH273167   0.357   6.034  10.908  0.7324  0.0826 -0.1218
17251TIP3    H173168   0.397   6.079  10.834  3.7003 -1.0975  0.6078
17251TIP3    H273169   0.351   6.100  10.977  3.3882 -0.0499  0.3586
17252TIP3   OH273170   1.257   4.861   4.540 -0.1537 -0.2673 -0.0101
17252TIP3    H173171   1.248   4.806   4.462  0.7040 -0.4496  0.0129
17252TIP3    H273172   1.278   4.800   4.611  2.2803  0.2083 -0.2666
17253TIP3   OH273173   5.702   6.325  15.330 -0.1307  0.0114  0.7018
17253TIP3    H173174   5.736   6.288  15.412 -1.1126 -2.2968  0.1695
17253TIP3    H273175   5.640   6.259  15.299  1.2842  0.0483 -2.6669
17254TIP3   OH273176   1.538   0.785   2.914 -0.3735  0.3976 -0.1335
17254TIP3    H173177   1.495   0.734   2.982 -1.9997 -2.1875 -2.8452
17254TIP3    H273178   1.479   0.858   2.898  0.0921  1.1057  1.2450
17255TIP3   OH273179   5.656   0.678   5.246 -0.0852  0.1260  0.3335
17255TIP3    H173180   5.651   0.602   5.303 -1.4704 -0.0509  0.0025
17255TIP3    H273181   5.747   0.708   5.255  0.2890 -1.1205  1.0187
17256TIP3   OH273182   2.794   5.671   1.066  0.4373  0.3273  0.0489
17256TIP3    H173183   2.795   5.755   1.019 -0.6192  1.1785  1.4850
17256TIP3    H273184   2.742   5.688   1.145  0.1004 -1.7203  0.3154
17257TIP3   OH273185   0.327   2.172   5.114 -0.4565  0.2956 -0.1795
17257TIP3    H173186   0.248   2.117   5.112 -0.7167  0.5964 -3.2382
17257TIP3    H273187   0.396   2.116   5.080 -0.1255  1.0102 -0.7105
17258TIP3   OH273188   4.697   2.463  14.783 -0.8080 -0.1395 -0.6095
17258TIP3    H173189   4.791   2.472  14.797 -0.9349  0.3666 -0.0473
17258TIP3    H273190   4.681   2.369  14.785 -0.6187 -0.1685  1.4207
17259TIP3   OH273191   1.390   6.301   6.417 -0.6034  0.6248  0.0004
17259TIP3    H173192   1.386   6.261   6.504  2.5560  2.6684  1.2509
17259TIP3    H273193   1.300   6.295   6.384 -1.7151 -1.1386  2.9426
17260TIP3   OH273194   4.034   3.253  12.285 -0.3449 -0.1996 -0.4322
17260TIP3    H173195   4.060   3.344  12.295 -1.0468  0.1459 -1.5288
17260TIP3    H273196   4.085   3.221  12.210 -1.2050 -0.2419 -1.0202
17261TIP3   OH273197   2.998   0.049   2.294 -0.3219  0.1463  0.0709
17261TIP3    H173198   2.948  -0.025   2.261  0.4811 -1.0700  1.4343
17261TIP3    H273199   2.964   0.064   2.382  1.7439 -0.8306  1.0995
17262TIP3   OH273200   1.589   4.743  11.600  0.1986 -0.2622 -0.2415
17262TIP3    H173201   1.518   4.694  11.642 -0.2272 -0.6140 -1.3449
17262TIP3    H273202   1.572   4.734  11.506  1.5403 -0.1073 -0.5163
17263TIP3   OH273203   2.659   6.141  16.095  0.2189 -0.3995  0.0165
17263TIP3    H173204   2.639   6.073  16.159  1.1188 -0.5233  0.1812
17263TIP3    H273205   2.749   6.124  16.069  0.1489  0.1731 -0.6421
17264TIP3   OH273206   2.721   4.951  11.593 -0.0043  0.2367  0.0688
17264TIP3    H173207   2.770   4.869  11.578  1.2566  0.6844  1.4920
17264TIP3    H273208   2.630   4.923  11.597  0.2603 -0.8919 -0.8972
17265TIP3   OH273209   5.655   4.247   1.134  0.0038  0.8718 -0.3992
17265TIP3    H173210   5.676   4.170   1.081  1.2378 -0.1764  1.4817
17265TIP3    H273211   5.733   4.302   1.128 -0.2490  1.2213 -0.4873
17266TIP3   OH273212   1.242   3.461  15.695  0.1279  0.0728  0.1344
17266TIP3    H173213   1.290   3.543  15.702 -1.5130  1.1949 -0.8933
17266TIP3    H273214   1.259   3.431  15.606  1.4245 -1.2168  0.7758
17267TIP3   OH273215   5.480   5.683   2.026  0.1506 -0.4135 -0.0508
17267TIP3    H173216   5.531   5.762   2.040 -0.3722 -0.5233  3.0683
17267TIP3    H273217   5.408   5.710   1.968 -0.5807  1.6914  1.7259
17268TIP3   OH273218   1.855   6.094  14.345 -0.3542 -0.3231  0.4455
17268TIP3    H173219   1.934   6.114  14.294  0.3253 -0.8543  1.2562
17268TIP3    H273220   1.799   6.171  14.333 -0.1537 -0.3717 -0.9611
17269TIP3   OH273221   1.493   5.845   4.096  0.7527  0.1017  0.4644
17269TIP3    H173222   1.416   5.855   4.151 -0.1058  0.5969 -0.7838
17269TIP3    H273223   1.547   5.780   4.142  0.4374  1.0268  2.2495
17270TIP3   OH273224   3.614   4.411  15.103  0.9113 -0.6159  0.3347
17270TIP3    H173225   3.531   4.403  15.151  0.6349 -1.6870 -0.2884
17270TIP3    H273226   3.642   4.501  15.118 -1.0512  0.1911 -0.5163
17271TIP3   OH273227   6.102   1.040  17.302  0.2301  0.2874  0.7288
17271TIP3    H173228   6.068   1.002  17.383 -0.3957  0.9498  0.7848
17271TIP3    H273229   6.186   0.995  17.287  0.1627 -0.1102  1.5316
17272TIP3   OH273230   4.106   3.565  13.909  0.4047  0.1470 -0.2702
17272TIP3    H173231   4.090   3.540  13.819  0.8952  0.0525 -0.3365
17272TIP3    H273232   4.118   3.483  13.956  1.3261  0.2247 -0.3540
17273TIP3   OH273233   6.704   3.172   0.531  0.3747  0.4726  0.3137
17273TIP3    H173234   6.749   3.221   0.600 -0.1985 -1.4636  2.1662
17273TIP3    H273235   6.646   3.112   0.577  0.1911 -1.1608 -1.8520
17274TIP3   OH273236   4.952   5.133   1.045  0.5146  0.2730  0.1185
17274TIP3    H173237   4.882   5.131   1.111  0.2030 -1.8722 -0.1968
17274TIP3    H273238   5.024   5.085   1.085  1.0153  0.5783 -0.4041
17275TIP3   OH273239   6.478   6.346  13.265 -0.2397 -0.0089  0.3575
17275TIP3    H173240   6.496   6.440  13.254 -1.4059  0.0650 -1.4167
17275TIP3    H273241   6.388   6.343  13.297  0.0932 -0.5314  1.2875
17276TIP3   OH273242   2.612   4.305   4.850  0.4614 -0.3586 -0.1458
17276TIP3    H173243   2.695   4.266   4.876  0.6363  0.3984  0.4713
17276TIP3    H273244   2.615   4.394   4.886 -0.2214 -0.0116 -0.9080
17277TIP3   OH273245   2.404   3.992  16.981  0.7105 -0.6519  0.0947
17277TIP3    H173246   2.469   3.939  17.028 -0.2063 -1.1381  0.8422
17277TIP3    H273247   2.423   4.082  17.008  0.0383 -0.9421  1.6369
17278TIP3   OH273248   2.581   6.543   1.202 -0.2944  0.1785  0.2257
17278TIP3    H173249   2.612   6.543   1.112  0.5402 -0.0203  0.5011
17278TIP3    H273250   2.540   6.629   1.214  1.4936  1.0655  0.2867
17279TIP3   OH273251   0.658   5.940  11.222  0.3035 -0.4656 -0.1729
17279TIP3    H173252   0.715   5.928  11.298  1.1427 -1.2132 -0.9019
17279TIP3    H273253   0.593   5.870  11.230  0.6274 -0.7885 -0.3501
17280TIP3   OH273254   2.443   0.172  12.739  0.2715 -0.0092 -0.0375
17280TIP3    H173255   2.426   0.094  12.793  1.0062 -0.5325 -0.5440
17280TIP3    H273256   2.507   0.143  12.675  0.5663  1.0280 -0.2300
17281TIP3   OH273257   3.466   4.552  15.991  0.0661  0.0910  0.1286
17281TIP3    H173258   3.501   4.476  16.038 -0.1235 -0.8094 -1.1438
17281TIP3    H273259   3.499   4.542  15.901 -0.3303  1.2789 -0.1689
17282TIP3   OH273260   1.039   6.243  16.132 -0.6228  0.6288 -0.8497
17282TIP3    H173261   1.056   6.177  16.199 -1.1557  1.1433 -0.1914
17282TIP3    H273262   1.126   6.276  16.108 -0.3389 -0.4397 -1.3283
17283TIP3   OH273263   3.867   6.222   3.091  0.5648  0.0312 -0.0002
17283TIP3    H173264   3.926   6.154   3.123  0.3296 -0.0537  0.2611
17283TIP3    H273265   3.897   6.241   3.002  1.2194  0.2610  0.2688
17284TIP3   OH273266   4.557   6.069  15.169 -0.3876  0.4798  0.3670
17284TIP3    H173267   4.544   6.129  15.097 -1.1723  0.5844  0.5924
17284TIP3    H273268   4.473   6.025  15.181  0.2390 -0.8829  0.0153
17285TIP3   OH273269   2.673   4.614   6.709 -0.2052  0.2072  0.2242
17285TIP3    H173270   2.722   4.637   6.788 -1.0240  0.9338  0.5428
17285TIP3    H273271   2.666   4.697   6.661 -0.6481 -0.0008 -0.0708
17286TIP3   OH273272   3.066   3.854  14.345  0.5304 -0.3236  0.1202
17286TIP3    H173273   2.985   3.894  14.377 -0.5520 -1.4763 -1.0742
17286TIP3    H273274   3.095   3.797  14.417 -0.9837 -1.6268 -0.2429
17287TIP3   OH273275   0.523   6.152  12.389  0.2692  0.0972  0.5575
17287TIP3    H173276   0.448   6.175  12.444 -0.9072 -0.0798 -0.8936
17287TIP3    H273277   0.485   6.098  12.319  1.9133 -0.7612  0.2953
17288TIP3   OH273278   1.847   5.506  15.769  0.6240 -0.2647 -0.5789
17288TIP3    H173279   1.779   5.559  15.729  1.7636  0.4249 -1.7006
17288TIP3    H273280   1.871   5.443  15.701  0.0356 -1.5312  0.3601
17289TIP3   OH273281   6.594   0.556   1.928 -0.4520 -0.3498  0.2756
17289TIP3    H173282   6.649   0.628   1.898 -0.5017 -0.4903 -0.1750
17289TIP3    H273283   6.528   0.596   1.984 -1.4292  0.1948 -1.1958
17290TIP3   OH273284   3.984   4.782   0.567 -0.0054 -0.1015 -1.4301
17290TIP3    H173285   3.976   4.703   0.514 -0.1207 -1.6391  0.7377
17290TIP3    H273286   4.002   4.750   0.655  0.4825  2.3326 -0.5640
17291TIP3   OH273287   2.249   6.206  16.854  0.3482  0.2718 -0.1237
17291TIP3    H173288   2.310   6.217  16.926  0.4100  0.1516 -0.1579
17291TIP3    H273289   2.300   6.165  16.784  0.3794  0.7123 -0.3627
17292TIP3   OH273290   6.557   3.846  14.563 -0.4645 -0.2824 -0.2612
17292TIP3    H173291   6.534   3.842  14.470  0.8773  2.2024 -0.7787
17292TIP3    H273292   6.648   3.819  14.567 -0.2511  0.4702  0.1975
17293TIP3   OH273293   5.278   1.861  17.535 -0.4765 -0.1508 -0.1868
17293TIP3    H173294   5.267   1.772  17.568 -1.7921  0.2247  0.4708
17293TIP3    H273295   5.194   1.904  17.553  0.8378  1.8930  1.5742
17294TIP3   OH273296   3.845   3.945   0.388  0.4217  0.0848 -0.4776
17294TIP3    H173297   3.867   3.888   0.314 -0.5190  1.1751 -1.6522
17294TIP3    H273298   3.913   4.013   0.386 -1.2457  1.8650 -2.3592
17295TIP3   OH273299   5.590   1.555  12.207  0.4605 -0.1109  0.3118
17295TIP3    H173300   5.654   1.619  12.238  0.9626 -0.2737 -0.3597
17295TIP3    H273301   5.553   1.594  12.127  0.7037 -0.6039 -0.0492
17296TIP3   OH273302   2.183   4.932   3.495  0.5004 -0.2691 -0.4078
17296TIP3    H173303   2.206   4.979   3.415 -0.2139 -0.0835 -0.5121
17296TIP3    H273304   2.160   4.844   3.466  2.0274 -0.7722 -0.1914
17297TIP3   OH273305   0.116   4.568   5.756  0.1294  0.0542 -0.0286
17297TIP3    H173306   0.123   4.641   5.695 -0.3094 -0.5230 -0.7776
17297TIP3    H273307   0.052   4.509   5.716  0.2765 -0.6139  0.7032
17298TIP3   OH273308   4.721   3.711   0.047  0.1551 -0.2781 -0.1902
17298TIP3    H173309   4.651   3.773   0.068  0.3629  0.1295 -0.6763
17298TIP3    H273310   4.768   3.752  -0.025  0.0746 -1.1784 -0.7633
17299TIP3   OH273311   6.022   4.199   3.547 -0.0874 -0.1784  0.2396
17299TIP3    H173312   6.088   4.191   3.616 -0.9147  1.4723  1.2959
17299TIP3    H273313   6.011   4.293   3.535 -1.2277 -0.4262 -0.9384
17300TIP3   OH273314   4.658   4.463   2.868  1.0178  0.5269 -0.1210
17300TIP3    H173315   4.606   4.541   2.887  1.8637  1.6943 -2.2912
17300TIP3    H273316   4.748   4.492   2.879  1.3250 -0.3433 -0.3143
17301TIP3   OH273317   3.628   0.421   5.737  0.4566  0.3115  0.3027
17301TIP3    H173318   3.723   0.426   5.725  0.5117  1.6201  1.0314
17301TIP3    H273319   3.608   0.491   5.800 -1.0188  0.2046 -0.0039
17302TIP3   OH273320   0.346   6.470  16.671  0.3283 -0.1574  0.1493
17302TIP3    H173321   0.315   6.556  16.641  0.7929 -0.6525 -1.8903
17302TIP3    H273322   0.335   6.473  16.766 -1.9474  1.2398 -0.0822
17303TIP3   OH273323   6.273   1.866   3.424  0.5187  0.2176 -0.2545
17303TIP3    H173324   6.265   1.913   3.340 -0.2986 -0.5293 -0.6064
17303TIP3    H273325   6.350   1.811   3.413  0.6562  0.4256 -0.3572
17304TIP3   OH273326   2.589   3.228   1.831  0.3295  0.1445  0.8345
17304TIP3    H173327   2.495   3.222   1.850  0.0869  0.4141 -0.2424
17304TIP3    H273328   2.617   3.137   1.823  0.2303  0.0527  1.4208
17305TIP3   OH273329   2.960   2.427   4.047 -0.2418 -0.0857 -0.3496
17305TIP3    H173330   2.995   2.357   3.992  2.4282  0.4022  0.6042
17305TIP3    H273331   2.874   2.394   4.075 -2.3097  0.0216 -5.4334
17306TIP3   OH273332   5.900   3.744  16.011 -0.0272  0.2133 -0.0364
17306TIP3    H173333   5.823   3.800  16.014  0.7544  1.3253  0.0270
17306TIP3    H273334   5.930   3.749  15.920 -2.2622 -3.4297 -1.1473
17307TIP3   OH273335   5.460   4.650  11.380 -0.0047  0.4295 -0.0129
17307TIP3    H173336   5.440   4.670  11.289 -0.8771 -0.7098 -0.0881
17307TIP3    H273337   5.481   4.735  11.419 -0.0078  0.9802 -1.1745
17308TIP3   OH273338   3.575   3.216   5.683 -0.6552 -0.1790  0.2112
17308TIP3    H173339   3.632   3.251   5.751 -0.8697  1.1597 -0.2783
17308TIP3    H273340   3.627   3.148   5.640 -0.3409 -0.6912  1.3683
17309TIP3   OH273341   2.578   5.801  13.874  0.4948  0.4420  0.3564
17309TIP3    H173342   2.495   5.781  13.832  0.0655  1.3113  0.7782
17309TIP3    H273343   2.633   5.724  13.856 -0.8236 -0.7506  1.1989
17310TIP3   OH273344   0.090   6.328   0.909 -0.3159  0.5306  0.5748
17310TIP3    H173345   0.005   6.285   0.902 -0.6351  1.2497 -0.3117
17310TIP3    H273346   0.153   6.257   0.918 -1.0346  0.0018  1.6301
17311TIP3   OH273347   2.878   5.694   4.550 -0.0523 -0.0147 -0.0659
17311TIP3    H173348   2.925   5.707   4.632 -1.6555  1.3525  0.6862
17311TIP3    H273349   2.940   5.721   4.482  0.7937  0.1958  0.7772
17312TIP3   OH273350   3.538   6.603   3.253  0.6221  0.8653  0.3340
17312TIP3    H173351   3.613   6.642   3.209  0.2805  1.5904  0.3747
17312TIP3    H273352   3.501   6.543   3.189  1.5520  0.0840  0.5080
17313TIP3   OH273353   3.897   5.475  12.502  0.0488  0.6849  0.0416
17313TIP3    H173354   3.827   5.529  12.538 -0.9171 -0.1857 -0.4974
17313TIP3    H273355   3.967   5.482  12.567 -0.6264  1.3478  0.7291
17314TIP3   OH273356   6.500   0.863  16.094  0.8219 -0.3068  0.1872
17314TIP3    H173357   6.528   0.898  16.010 -3.0748  0.8606 -0.8042
17314TIP3    H273358   6.524   0.930  16.158  1.4832 -0.0237 -0.3565
17315TIP3   OH273359   2.496   3.466   0.580 -0.2901 -0.3162 -0.1530
17315TIP3    H173360   2.565   3.461   0.646 -0.9811  0.1174  0.6313
17315TIP3    H273361   2.429   3.404   0.611  0.2617 -1.7035 -1.5751
17316TIP3   OH273362   2.963   5.662  14.718  0.7374 -0.3036 -0.3874
17316TIP3    H173363   2.882   5.686  14.673  0.9671  0.7548 -0.2533
17316TIP3    H273364   2.947   5.573  14.751 -0.5698  0.1195  0.1493
17317TIP3   OH273365   5.327   1.480   4.510 -0.0508  0.5600  0.2723
17317TIP3    H173366   5.362   1.466   4.598 -0.1609  1.8843  0.5532
17317TIP3    H273367   5.240   1.439   4.512  0.1180  0.2100  0.6385
17318TIP3   OH273368   4.000   6.416   1.757  0.9923 -0.5124 -0.3797
17318TIP3    H173369   3.906   6.423   1.774  0.9677 -0.3618 -0.5781
17318TIP3    H273370   4.019   6.323   1.764  0.8858 -0.5109 -0.0370
17319TIP3   OH273371   5.576   0.356   1.213  0.2852 -0.4955 -1.1063
17319TIP3    H173372   5.521   0.434   1.207  0.9393 -0.0336 -1.1217
17319TIP3    H273373   5.586   0.342   1.307  4.3854  2.4907 -0.8634
17320TIP3   OH273374   1.653   3.134   1.621 -0.6725 -0.3433 -0.3384
17320TIP3    H173375   1.633   3.217   1.577  0.8043  1.4113  2.0182
17320TIP3    H273376   1.572   3.111   1.666 -0.6419  0.8036  0.3643
17321TIP3   OH273377   1.868   5.437  14.354  0.1298  0.0553 -0.1497
17321TIP3    H173378   1.833   5.422  14.266  0.5628 -1.6793 -0.0579
17321TIP3    H273379   1.963   5.431  14.343  0.1736 -0.5582  0.4986
17322TIP3   OH273380   0.454   5.485  15.418 -0.3941  0.2668  0.2641
17322TIP3    H173381   0.436   5.509  15.508 -1.2219  1.2661 -0.1517
17322TIP3    H273382   0.503   5.560  15.382 -0.6485  0.1736 -0.2951
17323TIP3   OH273383   2.851   2.934   1.739  0.3997 -0.0672 -0.3727
17323TIP3    H173384   2.925   2.948   1.799 -0.6391  0.4846  0.8131
17323TIP3    H273385   2.849   3.014   1.685 -1.2014  1.3735  1.6885
17324TIP3   OH273386   1.305   1.212  13.200 -0.3579 -0.2300  0.0923
17324TIP3    H173387   1.335   1.181  13.285 -0.0965  0.4688  0.2551
17324TIP3    H273388   1.384   1.216  13.146 -0.6543 -1.6469 -0.5144
17325TIP3   OH273389   4.684   6.461   6.434  0.4635  0.1821 -0.7800
17325TIP3    H173390   4.629   6.479   6.510 -0.8056  1.7489 -2.0030
17325TIP3    H273391   4.771   6.492   6.458  0.3577 -0.4276  0.4365
17326TIP3   OH273392   4.314   4.743   4.097  0.1063  0.9958 -0.3640
17326TIP3    H173393   4.310   4.662   4.046 -2.2072  1.6499 -1.3563
17326TIP3    H273394   4.233   4.742   4.150  1.0648  1.6960  1.1922
17327TIP3   OH273395   3.949   1.883   5.214 -0.2462  0.5649  0.2946
17327TIP3    H173396   3.932   1.791   5.192 -1.1296  0.3385  1.7715
17327TIP3    H273397   3.946   1.929   5.130  2.7442 -1.0497 -0.8352
17328TIP3   OH273398   2.509   3.561   4.111 -0.6024 -0.1303  0.4022
17328TIP3    H173399   2.518   3.653   4.137  0.3887 -0.5734  1.7005
17328TIP3    H273400   2.468   3.519   4.187  4.6398 -1.9656  2.6884
17329TIP3   OH273401   6.596   3.386   3.541  0.4366 -0.3474 -0.5093
17329TIP3    H173402   6.558   3.304   3.572 -1.7481  0.3949 -1.0413
17329TIP3    H273403   6.660   3.410   3.608 -1.4202 -0.6966  1.5124
17330TIP3   OH273404   6.161   4.336   0.554 -0.0583 -0.1831 -0.2216
17330TIP3    H173405   6.250   4.363   0.532 -0.1065  0.9398  0.9206
17330TIP3    H273406   6.172   4.252   0.598  0.6433  0.8872  1.7422
17331TIP3   OH273407   0.470   4.626  16.276 -0.3199 -0.2064 -0.0119
17331TIP3    H173408   0.413   4.603  16.350  1.3553  0.6620  1.6146
17331TIP3    H273409   0.518   4.545  16.257 -0.6051 -0.3740 -0.0254
17332TIP3   OH273410   3.133   3.183  15.755 -0.0837 -0.3385 -0.1567
17332TIP3    H173411   3.079   3.136  15.691 -1.9846 -0.5863  1.5295
17332TIP3    H273412   3.080   3.259  15.779  1.2299  0.5287  0.0906
17333TIP3   OH273413   2.518   3.723  15.711 -0.2307  0.0930  0.2808
17333TIP3    H173414   2.567   3.783  15.656 -0.9048 -1.2728 -1.9286
17333TIP3    H273415   2.433   3.765  15.724  0.6524  1.4219  2.2209
17334TIP3   OH273416   2.248   1.588   5.537  0.2656 -0.8133  0.3365
17334TIP3    H173417   2.337   1.553   5.552  0.4787 -0.1858  0.5740
17334TIP3    H273418   2.262   1.667   5.485 -0.0802 -0.2409  1.0992
17335TIP3   OH273419   1.658   3.010  14.126 -0.4974 -0.6729 -0.4120
17335TIP3    H173420   1.590   2.971  14.181 -2.5560  1.1961 -1.4650
17335TIP3    H273421   1.687   3.087  14.174  0.0678 -0.8301 -0.4918
17336TIP3   OH273422   4.530   1.181   6.859 -0.0684  0.2952 -0.0553
17336TIP3    H173423   4.502   1.272   6.865 -0.6269  0.1564 -0.4990
17336TIP3    H273424   4.451   1.130   6.876 -0.4306 -0.1033 -2.4610
17337TIP3   OH273425   3.416   2.099   6.213 -0.6382  0.3024  0.3460
17337TIP3    H173426   3.457   2.090   6.127 -1.6290  1.1014 -0.2259
17337TIP3    H273427   3.429   2.191   6.236 -1.3784  0.3619  0.5362
17338TIP3   OH273428   2.507   4.648  12.302  0.5460 -0.0443 -0.0503
17338TIP3    H173429   2.549   4.562  12.304 -0.3745 -0.5088 -0.2311
17338TIP3    H273430   2.562   4.703  12.358  1.0786 -0.7830  0.1624
17339TIP3   OH273431   0.615   6.097  16.151 -0.6673  0.0810 -0.0544
17339TIP3    H173432   0.673   6.172  16.136 -0.4090 -0.4326 -1.9435
17339TIP3    H273433   0.672   6.028  16.184 -0.7745  0.4839  0.9938
17340TIP3   OH273434   1.077   4.008   5.902  0.3347  0.1485 -0.0501
17340TIP3    H173435   1.080   4.040   5.992 -0.2189  0.3072 -0.0876
17340TIP3    H273436   1.096   4.086   5.849  0.6512  0.0570 -0.0763
17341TIP3   OH273437   3.560   1.583   1.063  0.3835 -0.2105 -0.0133
17341TIP3    H173438   3.605   1.668   1.058  0.8130 -0.3992  0.4265
17341TIP3    H273439   3.594   1.533   0.989  1.2052 -0.4793  0.5197
17342TIP3   OH273440   5.498   6.143  15.310 -0.1614  0.6685 -0.4080
17342TIP3    H173441   5.477   6.104  15.394 -1.2007 -0.0561 -0.9866
17342TIP3    H273442   5.506   6.069  15.250  0.3663  1.1885 -0.9939
17343TIP3   OH273443   3.634   3.878  13.258  0.1991 -0.5901 -0.0431
17343TIP3    H173444   3.578   3.880  13.181  1.7002 -0.5314 -1.1894
17343TIP3    H273445   3.705   3.940  13.238  0.5607 -0.4760  1.4397
17344TIP3   OH273446   2.238   2.969   2.114 -0.1017 -0.1323 -0.2779
17344TIP3    H173447   2.319   2.918   2.120  0.0824  0.1970  0.0480
17344TIP3    H273448   2.219   2.996   2.204  0.7035  1.7630 -0.6354
17345TIP3   OH273449   2.779   2.970  12.359 -0.6289 -0.2874  0.3906
17345TIP3    H173450   2.708   2.983  12.296 -0.1580 -0.5703 -0.2122
17345TIP3    H273451   2.736   2.942  12.439 -1.4048  1.6475  0.7147
17346TIP3   OH273452   2.206   1.593   4.072 -0.1277 -0.0984 -0.1268
17346TIP3    H173453   2.202   1.688   4.060 -0.5083  0.0418  1.0371
17346TIP3    H273454   2.159   1.577   4.154  2.0643 -1.0172  1.0273
17347TIP3   OH273455   1.885   4.730  14.414  0.2457 -0.2638  0.3055
17347TIP3    H173456   1.913   4.726  14.506  0.0849  3.3476  0.6558
17347TIP3    H273457   1.789   4.730  14.418  0.2199  1.2177  0.3203
17348TIP3   OH273458   0.182   3.116   2.151 -0.4061  0.1945  0.1935
17348TIP3    H173459   0.149   3.168   2.224  1.4159 -1.5989  2.4722
17348TIP3    H273460   0.270   3.149   2.134 -0.3849 -0.1456 -0.4183
17349TIP3   OH273461   6.053   5.585  11.752 -0.0183 -0.1248 -0.3864
17349TIP3    H173462   6.148   5.572  11.758 -0.2676 -1.5091  1.3562
17349TIP3    H273463   6.028   5.620  11.837 -1.2961 -1.6809 -0.0609
17350TIP3   OH273464   5.182   1.939   4.930 -0.3167  0.1630  0.0135
17350TIP3    H173465   5.205   1.882   4.856  0.7844  0.7089 -0.0910
17350TIP3    H273466   5.088   1.924   4.944 -0.2526 -0.9417 -0.6301
17351TIP3   OH273467   0.492   5.967   3.769  0.0487 -0.0752 -0.3841
17351TIP3    H173468   0.525   5.976   3.858 -0.6590  0.7904 -0.1926
17351TIP3    H273469   0.397   5.976   3.777 -0.1435 -1.1968 -1.0854
17352TIP3   OH273470   5.657   0.302  13.190  0.1611 -0.4892  0.0744
17352TIP3    H173471   5.740   0.326  13.233  0.3969 -0.7619 -0.2210
17352TIP3    H273472   5.684   0.252  13.113 -0.2088  0.8910 -0.9864
17353TIP3   OH273473   0.846   5.062   5.182 -0.1936 -0.3818 -0.1802
17353TIP3    H173474   0.917   5.085   5.122  0.6626 -0.9719  0.5823
17353TIP3    H273475   0.862   5.115   5.260  0.7398 -2.1055  0.8688
17354TIP3   OH273476   3.247   1.932  14.530 -0.7846  0.0064 -0.1542
17354TIP3    H173477   3.291   1.965  14.451 -3.4570 -0.1165 -1.7933
17354TIP3    H273478   3.248   1.837  14.520 -0.4916 -0.0482  0.3545
17355TIP3   OH273479   4.933   2.931  12.121  0.7406  0.0402 -0.6424
17355TIP3    H173480   4.839   2.923  12.107  0.8375  1.4537 -2.3465
17355TIP3    H273481   4.969   2.848  12.090  0.3132  0.6765 -2.9849
17356TIP3   OH273482   6.334   0.688   3.158 -0.6100  0.0658  0.2290
17356TIP3    H173483   6.256   0.633   3.161 -0.4132 -0.2280  0.0023
17356TIP3    H273484   6.311   0.760   3.099 -0.2172 -0.7915 -1.0054
17357TIP3   OH273485   2.544   2.871   5.239  0.2872 -0.3228 -0.0793
17357TIP3    H173486   2.552   2.887   5.145  1.4178 -0.6984 -0.0616
17357TIP3    H273487   2.471   2.926   5.266  0.4867  0.4439 -1.0253
17358TIP3   OH273488   0.455   1.242   2.026 -0.2502 -0.2379  0.3289
17358TIP3    H173489   0.547   1.216   2.017  0.7452  2.7540  0.7554
17358TIP3    H273490   0.446   1.268   2.118 -1.1070  0.7443 -0.0082
17359TIP3   OH273491   5.112   1.082   4.201  0.2442 -0.2778 -0.2759
17359TIP3    H173492   5.130   1.086   4.107 -3.1606  0.3229 -1.0525
17359TIP3    H273493   5.071   0.996   4.213  2.3395 -1.1528  1.0956
17360TIP3   OH273494   6.332   0.898  12.963 -0.0784 -0.3844  0.1941
17360TIP3    H173495   6.313   0.829  13.026  1.0914 -2.1933 -1.3369
17360TIP3    H273496   6.326   0.979  13.013  0.8894 -1.7376  2.6355
17361TIP3   OH273497   4.736   4.100  16.672 -0.8451 -0.0283  0.5922
17361TIP3    H173498   4.764   4.054  16.751  0.4934  0.5590  0.4995
17361TIP3    H273499   4.778   4.186  16.679 -0.7589  0.0585 -0.7122
17362TIP3   OH273500   1.542   5.857  12.524  0.0124 -0.1371  0.2251
17362TIP3    H173501   1.573   5.891  12.440 -0.3758  0.5044  0.3334
17362TIP3    H273502   1.448   5.845  12.511  0.0053 -0.3409  0.4676
17363TIP3   OH273503   2.900   0.055  14.182 -0.0323 -0.0399  0.2961
17363TIP3    H173504   2.887   0.149  14.198 -1.7960 -0.3283  0.6964
17363TIP3    H273505   2.877   0.013  14.265 -1.8493 -1.0081 -0.6503
17364TIP3   OH273506   0.729   1.405   5.644  0.6381 -0.3028 -0.1022
17364TIP3    H173507   0.781   1.466   5.592  2.4158 -1.5293  0.1769
17364TIP3    H273508   0.783   1.386   5.720 -0.6657 -0.8418  0.7176
17365TIP3   OH273509   1.463   4.544  14.625 -0.3130 -0.1036 -0.6233
17365TIP3    H173510   1.454   4.634  14.656  0.3668  0.2071 -1.3206
17365TIP3    H273511   1.375   4.507  14.635 -0.5081  0.5088  0.0423
17366TIP3   OH273512   5.550   5.900  15.793  0.6608  0.2983  1.0142
17366TIP3    H173513   5.574   5.842  15.865 -0.0120  0.7851  1.6479
17366TIP3    H273514   5.519   5.841  15.724  2.6357 -0.2572  0.5638
17367TIP3   OH273515   0.026   0.874   1.193 -0.1200  0.0599 -0.7847
17367TIP3    H173516  -0.034   0.826   1.250 -0.0522  0.1205 -0.6622
17367TIP3    H273517   0.075   0.931   1.252 -0.1304  0.2085 -0.9176
17368TIP3   OH273518   5.856   0.183   4.191 -0.3167 -0.5882  0.4683
17368TIP3    H173519   5.778   0.129   4.176 -0.0770 -0.7586 -0.1892
17368TIP3    H273520   5.831   0.242   4.263 -0.9563 -0.8238  0.4428
17369TIP3   OH273521   1.663   2.660   3.404  0.5343 -0.4682 -0.1993
17369TIP3    H173522   1.661   2.644   3.498  1.8632 -1.7426 -0.3615
17369TIP3    H273523   1.592   2.723   3.389  0.3953 -0.1384  1.6560
17370TIP3   OH273524   3.767   6.577   4.786 -0.3267  0.0046 -0.1525
17370TIP3    H173525   3.745   6.668   4.768  0.5697  0.6688  1.7560
17370TIP3    H273526   3.863   6.575   4.787 -0.3306 -1.0917 -0.7294
17371TIP3   OH273527   2.512   0.409  16.770 -0.1613 -0.0853 -0.0343
17371TIP3    H173528   2.543   0.369  16.851  0.7988  1.5390  0.4493
17371TIP3    H273529   2.553   0.495  16.768  0.0319 -0.1583 -2.3815
17372TIP3   OH273530   0.854   1.859  16.694  0.6070 -0.2663  0.2059
17372TIP3    H173531   0.792   1.790  16.718  0.6971 -1.5639 -2.8315
17372TIP3    H273532   0.799   1.935  16.676  0.2290 -0.4036  0.7397
17373TIP3   OH273533   0.497   4.727   1.939 -0.2864  0.1064 -0.0972
17373TIP3    H173534   0.572   4.772   1.899 -0.4870 -0.5912 -1.3074
17373TIP3    H273535   0.456   4.793   1.995  1.0015  0.6130  0.2860
17374TIP3   OH273536   2.382   3.870   1.783  0.3823 -0.2857 -0.2928
17374TIP3    H173537   2.314   3.826   1.835  2.4249 -1.7126  1.3053
17374TIP3    H273538   2.399   3.952   1.830 -2.7043  2.0172 -2.7251
17375TIP3   OH273539   1.168   4.045   6.803 -0.1255 -0.2951  0.0011
17375TIP3    H173540   1.187   4.138   6.794  0.7528 -0.3332  1.1942
17375TIP3    H273541   1.074   4.038   6.786  0.1104  0.5181 -1.9587
17376TIP3   OH273542   2.991   3.765   6.452 -0.7909 -0.0866 -0.1647
17376TIP3    H173543   3.040   3.710   6.390 -1.4418  0.4024 -1.1428
17376TIP3    H273544   3.000   3.720   6.536  0.8987 -0.2725 -0.4115
17377TIP3   OH273545   4.421   3.421  13.882 -0.3487 -0.0574  0.3105
17377TIP3    H173546   4.423   3.496  13.822 -0.9046 -0.7392 -0.5942
17377TIP3    H273547   4.450   3.456  13.966  1.8410  0.6329 -0.6561
17378TIP3   OH273548   3.358   6.194  16.520  0.4386 -0.1843 -0.0175
17378TIP3    H173549   3.276   6.156  16.488 -0.9232  1.9173  0.7697
17378TIP3    H273550   3.332   6.278  16.559  3.0597  0.9018 -0.3945
17379TIP3   OH273551   1.767   1.442  15.365 -0.3986  0.9461 -0.2284
17379TIP3    H173552   1.731   1.496  15.435 -0.1208 -0.8450  1.3697
17379TIP3    H273553   1.833   1.497  15.324 -0.4147  1.9766  1.0730
17380TIP3   OH273554   2.408   0.794   1.063  0.4481 -0.0358 -0.0520
17380TIP3    H173555   2.379   0.874   1.020 -0.4505 -0.1148  0.3881
17380TIP3    H273556   2.330   0.739   1.068  0.0095  0.6519  3.2072
17381TIP3   OH273557   5.949   0.369  12.813  0.1650 -0.0363  0.2106
17381TIP3    H173558   5.999   0.290  12.790 -0.8786 -0.4167 -0.8518
17381TIP3    H273559   5.994   0.405  12.890  0.5514 -1.7640  0.8307
17382TIP3   OH273560   2.919   3.729  17.221 -0.2464 -0.1285 -0.0416
17382TIP3    H173561   2.953   3.777  17.296 -3.0241  0.5585  0.8640
17382TIP3    H273562   2.966   3.766  17.146  1.8739 -0.1580  1.1790
17383TIP3   OH273563   4.635   0.059  11.517  0.0478 -0.3608 -0.0552
17383TIP3    H173564   4.708   0.018  11.564  0.6021  0.0507 -0.5412
17383TIP3    H273565   4.566   0.067  11.583  0.1947 -1.3605  0.2436
17384TIP3   OH273566   6.406   6.475  16.167 -0.6957  0.1853 -0.0025
17384TIP3    H173567   6.490   6.521  16.164 -0.6351  0.0023 -2.1785
17384TIP3    H273568   6.366   6.491  16.082 -1.1591 -2.8956 -0.4735
17385TIP3   OH273569   0.212   5.607  13.155 -0.7780  0.0390  0.1797
17385TIP3    H173570   0.296   5.563  13.165  0.5686  2.3186 -0.5979
17385TIP3    H273571   0.204   5.663  13.232 -1.3994  0.1539  0.0400
17386TIP3   OH273572   1.723   5.842   3.664  0.1544 -0.2314  0.0219
17386TIP3    H173573   1.743   5.826   3.756  1.3153 -0.7329 -0.3039
17386TIP3    H273574   1.660   5.774   3.641  0.5055 -0.6273  0.2212
17387TIP3   OH273575   4.509   1.852   2.463 -0.0552 -0.0614 -0.0453
17387TIP3    H173576   4.569   1.778   2.452 -0.2193 -0.0656 -0.9539
17387TIP3    H273577   4.497   1.859   2.558  0.7417 -0.5722  0.1040
17388TIP3   OH273578   5.801   3.437  15.916 -0.5089  0.6521 -0.1475
17388TIP3    H173579   5.812   3.342  15.915  0.3309  0.7438 -0.6336
17388TIP3    H273580   5.788   3.461  15.824  0.2016  1.0975 -0.1386
17389TIP3   OH273581   1.034   1.507   0.323  0.1937 -0.2248 -0.2903
17389TIP3    H173582   0.991   1.543   0.400  0.2824 -1.9645  0.6049
17389TIP3    H273583   0.972   1.522   0.251 -0.6569 -0.1681  0.4414
17390TIP3   OH273584   1.965   6.219   1.020 -0.3803  0.1472  0.1736
17390TIP3    H173585   2.021   6.293   1.042 -0.0186 -0.2153  0.4861
17390TIP3    H273586   2.024   6.144   1.017 -0.6714 -0.0672 -0.5538
17391TIP3   OH273587   6.656   5.958  14.022 -0.3388 -0.0433 -0.3344
17391TIP3    H173588   6.563   5.963  14.000 -0.2095  0.5321 -0.7910
17391TIP3    H273589   6.690   5.889  13.965 -1.4150 -4.0099  3.3540
17392TIP3   OH273590   6.274   4.757   1.438 -0.1756 -0.1296  1.1195
17392TIP3    H173591   6.182   4.778   1.422 -0.3220 -0.6504  1.2802
17392TIP3    H273592   6.304   4.714   1.358 -0.3822 -0.9855  1.4983
17393TIP3   OH273593   1.345   5.238  11.697  0.4070  0.6060  0.0096
17393TIP3    H173594   1.387   5.254  11.782 -0.1757 -0.0054  0.4222
17393TIP3    H273595   1.396   5.167  11.658  3.0545  3.2795 -1.8639
17394TIP3   OH273596   1.212   4.050   3.588  0.2880  0.0389 -0.2386
17394TIP3    H173597   1.285   4.012   3.637  0.4094  0.5593 -0.0063
17394TIP3    H273598   1.212   4.002   3.505  0.8792  0.0176 -0.2329
17395TIP3   OH273599   3.767   4.740  11.233  0.2124 -0.5352 -0.3744
17395TIP3    H173600   3.682   4.708  11.263  0.9544 -1.8757  0.4130
17395TIP3    H273601   3.749   4.825  11.193 -1.3520 -0.3617  0.6411
17396TIP3   OH273602   3.906   6.000  15.849  0.5848 -0.1424  0.4881
17396TIP3    H173603   3.892   5.928  15.910 -1.3727 -0.1407  0.1085
17396TIP3    H273604   3.937   5.958  15.768 -1.4103 -0.7056 -0.0282
17397TIP3   OH273605   4.891   4.878  14.733  0.3419  0.2063 -0.5232
17397TIP3    H173606   4.898   4.968  14.702 -0.7531  0.5955  0.3091
17397TIP3    H273607   4.908   4.825  14.656  2.1683  1.0894 -0.7923
17398TIP3   OH273608   2.532   1.706   5.469 -0.0111 -0.1641 -0.7428
17398TIP3    H173609   2.533   1.634   5.532 -1.8128  0.0241 -0.4250
17398TIP3    H273610   2.582   1.674   5.394  1.7233 -0.6067  0.5361
17399TIP3   OH273611   2.530   3.053   6.012  0.2080  0.3043 -0.0309
17399TIP3    H173612   2.594   3.022   6.076  0.2490 -0.1136 -0.2718
17399TIP3    H273613   2.554   3.144   5.997 -1.7248  1.4457  2.9594
17400TIP3   OH273614   1.461   3.261   5.472  0.7172  0.2628  0.5346
17400TIP3    H173615   1.470   3.352   5.443 -1.7682 -0.1245 -1.7133
17400TIP3    H273616   1.414   3.267   5.555  1.4781  1.0470  0.9264
17401TIP3   OH273617   5.925   5.240   5.617 -0.2008 -0.5265  0.4670
17401TIP3    H173618   6.009   5.200   5.596 -0.9190 -2.1191  0.4748
17401TIP3    H273619   5.890   5.188   5.689 -2.2878 -1.5092 -1.1382
17402TIP3   OH273620   3.125   6.349   3.965 -0.1037  0.0874 -0.2645
17402TIP3    H173621   3.153   6.439   3.948  1.1492 -0.1723  0.2500
17402TIP3    H273622   3.126   6.307   3.879 -0.8388  0.5910 -0.5285
17403TIP3   OH273623   4.957   2.330   6.551 -0.8191 -0.0216  0.1865
17403TIP3    H173624   4.917   2.330   6.638  2.3719  2.4669  1.8675
17403TIP3    H273625   5.022   2.260   6.555 -2.8535 -2.2254 -1.5819
17404TIP3   OH273626   1.359   2.129   2.056 -0.2135  0.1350 -0.6153
17404TIP3    H173627   1.312   2.173   1.985  1.2963  0.6927 -1.3187
17404TIP3    H273628   1.422   2.072   2.011 -0.9264 -1.4232  0.2933
17405TIP3   OH273629   0.608   5.168  16.138 -0.2353  0.4952 -0.1980
17405TIP3    H173630   0.690   5.132  16.105  0.0614  2.4766 -1.7583
17405TIP3    H273631   0.540   5.113  16.097  0.2405 -0.6534  0.4909
17406TIP3   OH273632   3.769   0.621   0.882 -0.3243 -0.2284  0.2878
17406TIP3    H173633   3.708   0.559   0.921 -1.1894  0.2476 -0.2818
17406TIP3    H273634   3.740   0.631   0.792  0.5502  0.0695  0.0255
17407TIP3   OH273635   0.195   2.446  16.855  0.5244 -0.0008  0.0564
17407TIP3    H173636   0.268   2.508  16.868  0.2889  0.5261 -1.0221
17407TIP3    H273637   0.230   2.362  16.885  0.4393  0.8362  2.7609
17408TIP3   OH273638   5.052   1.896   6.382  0.1189  0.3934  0.2105
17408TIP3    H173639   5.044   1.841   6.459  0.3065  0.9100  0.6052
17408TIP3    H273640   5.049   1.835   6.308  0.4695 -0.1520  0.6403
17409TIP3   OH273641   6.301   0.034  15.179  0.2149 -0.4908  0.1257
17409TIP3    H173642   6.255   0.042  15.096 -1.7960 -3.5648  0.7678
17409TIP3    H273643   6.392   0.051  15.158 -0.5142  0.9963 -2.2135
17410TIP3   OH273644   3.986   6.019   0.748 -0.3753 -0.1016  0.1536
17410TIP3    H173645   4.026   6.080   0.810  0.4292  1.0150 -1.3995
17410TIP3    H273646   4.060   5.969   0.712 -0.7262 -0.1593 -0.5126
17411TIP3   OH273647   3.363   6.635  17.450 -0.4125  0.6945 -0.2994
17411TIP3    H173648   3.375   6.644  17.355 -1.5188  0.1042 -0.5168
17411TIP3    H273649   3.449   6.654  17.487  0.5744 -1.0233 -1.5392
17412TIP3   OH273650   1.748   2.426   6.702  0.9816  0.0156  0.0601
17412TIP3    H173651   1.707   2.341   6.716 -0.0222  0.2190 -1.3830
17412TIP3    H273652   1.679   2.480   6.665  1.3419  1.7773  1.8017
17413TIP3   OH273653   6.527   1.076   1.594 -0.9148 -0.3155  0.3697
17413TIP3    H173654   6.600   1.068   1.655 -2.0299 -0.8979  1.6779
17413TIP3    H273655   6.565   1.054   1.508  0.3222 -1.1282  1.0888
17414TIP3   OH273656   0.920   0.510  13.206 -0.2280  0.2149  0.3295
17414TIP3    H173657   0.863   0.457  13.149 -1.9096  0.8841  1.3330
17414TIP3    H273658   0.942   0.587  13.153  0.1528 -0.2589 -0.2225
17415TIP3   OH273659   5.878   5.736  15.670 -0.1726  0.4567  0.4894
17415TIP3    H173660   5.910   5.821  15.700 -0.1493  0.5126  0.3064
17415TIP3    H273661   5.947   5.704  15.611  0.1377  0.0002  1.0914
17416TIP3   OH273662   4.499   5.084   5.373  0.3310  0.0591  0.6351
17416TIP3    H173663   4.474   5.095   5.282  0.4132 -0.6941  0.5139
17416TIP3    H273664   4.484   5.170   5.413 -1.2570 -0.0216  0.2910
17417TIP3   OH273665   4.269   3.936   1.243  0.4046  1.1236  0.5459
17417TIP3    H173666   4.289   3.886   1.322 -1.0635 -2.3281 -1.0444
17417TIP3    H273667   4.343   3.920   1.185 -0.3322  0.2274 -0.1790
17418TIP3   OH273668   6.611   2.948  14.448 -0.3072 -0.1667  0.0354
17418TIP3    H173669   6.685   2.959  14.507 -0.0070 -0.1127 -0.3450
17418TIP3    H273670   6.635   2.999  14.370 -1.1384  0.6128  0.2636
17419TIP3   OH273671   4.424   5.925   1.523 -0.0294 -0.2165  0.1979
17419TIP3    H173672   4.437   5.855   1.460 -0.3699 -1.7436  1.7393
17419TIP3    H273673   4.329   5.927   1.537  0.0297  0.1750  0.5673
17420TIP3   OH273674   2.340   6.517   5.388  0.0169  0.1555 -0.0817
17420TIP3    H173675   2.435   6.511   5.397 -0.0508  0.9312  1.8626
17420TIP3    H273676   2.311   6.553   5.472 -1.8638  1.2799 -1.1417
17421TIP3   OH273677   2.950   1.815  15.744 -0.1480  0.1847  0.2714
17421TIP3    H173678   2.912   1.903  15.740  0.0758  0.2646 -0.1065
17421TIP3    H273679   3.044   1.829  15.753  0.1334  0.0092 -1.8896
17422TIP3   OH273680   5.558   2.792   2.657 -0.3098  0.0766  0.6486
17422TIP3    H173681   5.513   2.877   2.659  0.0094  0.2361  1.0496
17422TIP3    H273682   5.494   2.730   2.692 -0.6338  0.1074  0.1185
17423TIP3   OH273683   5.901   1.540   4.185 -0.3976  0.3231 -0.5002
17423TIP3    H173684   5.980   1.524   4.237 -0.5551 -0.6692 -0.5499
17423TIP3    H273685   5.928   1.603   4.119 -0.1337  1.4432  0.6254
17424TIP3   OH273686   6.376   5.055   0.279  0.3632 -0.0088  0.4755
17424TIP3    H173687   6.449   4.996   0.260 -0.4220 -0.4617 -1.3640
17424TIP3    H273688   6.306   4.998   0.309  0.0728  0.1630  0.1300
17425TIP3   OH273689   4.987   5.509   3.002 -0.2047 -0.3230  0.0865
17425TIP3    H173690   5.047   5.466   2.941 -0.2288 -2.2738  1.3629
17425TIP3    H273691   4.912   5.535   2.949  1.1133  0.8862 -1.2725
17426TIP3   OH273692   4.457   1.862   2.751  0.8292  0.5232 -0.1066
17426TIP3    H173693   4.415   1.916   2.819  0.0620 -0.5240  0.2817
17426TIP3    H273694   4.535   1.827   2.793 -0.0217 -0.7069  0.5168
17427TIP3   OH273695   1.071   1.989  15.657  0.1855 -0.2914  0.0040
17427TIP3    H173696   1.152   1.954  15.620 -0.9134 -1.2896 -1.6166
17427TIP3    H273697   1.042   2.054  15.594  0.9496  1.9574  1.8170
17428TIP3   OH273698   4.283   5.257   6.600  0.1387  0.1702  0.2184
17428TIP3    H173699   4.354   5.255   6.665  1.1668 -0.7788 -0.8973
17428TIP3    H273700   4.323   5.293   6.521 -0.7653  0.1225 -0.2768
17429TIP3   OH273701   1.729   1.859  15.640 -0.3689  0.2115 -0.0387
17429TIP3    H173702   1.782   1.869  15.561 -0.2875 -2.1743 -0.3463
17429TIP3    H273703   1.665   1.792  15.618 -1.6658  0.9438  1.2978
17430TIP3   OH273704   6.090   0.527   3.108 -0.4601  0.2210  0.1178
17430TIP3    H173705   6.039   0.527   3.189 -2.1096  1.2163 -0.8628
17430TIP3    H273706   6.024   0.517   3.039  0.9204 -0.7754 -1.1039
17431TIP3   OH273707   2.500   3.864  11.747 -0.3389 -0.6640  0.0330
17431TIP3    H173708   2.494   3.885  11.654  1.5160 -0.7277 -0.1543
17431TIP3    H273709   2.461   3.939  11.791 -1.2687 -0.6486 -0.7901
17432TIP3   OH273710   2.005   5.532  11.022 -0.4628  0.2881 -0.2124
17432TIP3    H173711   1.912   5.551  11.029 -0.1475  1.3938  2.4690
17432TIP3    H273712   2.046   5.617  11.006  0.0615 -0.3664 -2.7664
17433TIP3   OH273713   2.669   1.765   3.750 -0.7111  0.1646  0.0180
17433TIP3    H173714   2.609   1.741   3.821 -1.7880 -0.2761 -1.0120
17433TIP3    H273715   2.639   1.852   3.723  0.4045  0.8235  0.8176
17434TIP3   OH273716   0.492   4.616   0.272 -0.1962  0.2220  0.0530
17434TIP3    H173717   0.453   4.651   0.352  0.4765  0.9775  0.0664
17434TIP3    H273718   0.463   4.675   0.203 -1.5621 -0.9704 -0.4474
17435TIP3   OH273719   4.783   0.186   2.440 -0.6529  0.1017 -0.0365
17435TIP3    H173720   4.711   0.236   2.400 -1.0358  0.5919  1.2123
17435TIP3    H273721   4.749   0.160   2.525  0.5014 -0.0472  0.3945
17436TIP3   OH273722   3.618   3.794   4.484  0.5420 -0.7206  0.2132
17436TIP3    H173723   3.677   3.788   4.409 -0.4298  1.2125 -0.7729
17436TIP3    H273724   3.650   3.869   4.534  0.7290 -1.5372  1.3567
17437TIP3   OH273725   2.492   4.523   0.067 -0.0486  0.2778 -0.1685
17437TIP3    H173726   2.411   4.478   0.086 -0.5900  1.4658  0.4762
17437TIP3    H273727   2.499   4.523  -0.029 -0.4122 -0.4777 -0.1974
17438TIP3   OH273728   4.504   0.694  15.085  0.4357 -0.7721 -0.0871
17438TIP3    H173729   4.553   0.771  15.112 -3.2919  2.7628 -2.2568
17438TIP3    H273730   4.496   0.702  14.990 -0.7917 -3.4494 -0.3226
17439TIP3   OH273731   0.996   0.510  14.572  0.2214 -0.0771  0.0774
17439TIP3    H173732   0.906   0.478  14.584 -0.8387  2.0846 -1.4850
17439TIP3    H273733   0.994   0.599  14.607  1.6342  0.1870 -0.4594
17440TIP3   OH273734   4.841   3.994  13.639  0.3762  0.0083 -0.0714
17440TIP3    H173735   4.887   4.011  13.721  0.1561 -0.3148  0.1230
17440TIP3    H273736   4.787   3.916  13.657  1.5505 -1.0590 -0.9946
17441TIP3   OH273737   0.960   2.444  15.993  0.6631  0.2887  0.3760
17441TIP3    H173738   0.910   2.392  15.929 -0.1895 -1.9107  2.6784
17441TIP3    H273739   1.040   2.394  16.006  0.8133  0.6946  1.0332
17442TIP3   OH273740   0.720   2.030   1.905 -0.1226 -0.4955  0.3375
17442TIP3    H173741   0.706   1.960   1.840 -0.8109 -0.1981  0.1529
17442TIP3    H273742   0.684   1.994   1.986 -0.9861 -0.1506  0.1149
17443TIP3   OH273743   6.514   2.005  13.617 -0.2367 -0.0981 -0.3174
17443TIP3    H173744   6.596   2.041  13.585 -0.4645  3.9489  2.8965
17443TIP3    H273745   6.452   2.018  13.544  0.6260  2.6944 -0.6546
17444TIP3   OH273746   3.013   1.591  11.419  0.1518 -0.2458  0.0784
17444TIP3    H173747   3.041   1.654  11.353 -2.3395  1.1062  0.1927
17444TIP3    H273748   3.002   1.509  11.371 -0.6310  0.4688 -1.0146
17445TIP3   OH273749   5.520   5.075  12.270  0.3554  0.2778 -0.3044
17445TIP3    H173750   5.560   5.118  12.194 -0.4612 -0.2877 -1.0810
17445TIP3    H273751   5.536   5.135  12.343 -1.0761  2.0947 -1.4038
17446TIP3   OH273752   4.666   2.317  10.243  0.1146 -0.1007  0.1229
17446TIP3    H173753   4.675   2.225  10.270  0.1618  0.1740  1.0791
17446TIP3    H273754   4.756   2.347  10.231  0.0671 -0.6961 -2.0805
17447TIP3   OH273755   2.366   2.929   2.533  0.0001 -0.0726 -0.3683
17447TIP3    H173756   2.407   2.995   2.478 -2.6031  2.0967  0.0425
17447TIP3    H273757   2.330   2.865   2.472  1.6135 -0.5619 -0.8394
17448TIP3   OH273758   3.595   0.471  15.548  0.7132 -0.1396 -0.3283
17448TIP3    H173759   3.671   0.412  15.550  0.0090 -1.0816 -0.7202
17448TIP3    H273760   3.589   0.505  15.637  1.3439 -0.3836 -0.1837
17449TIP3   OH273761   4.809   5.262  12.560  0.1003  0.3395 -0.0134
17449TIP3    H173762   4.796   5.287  12.651  1.4872 -1.9142  0.8875
17449TIP3    H273763   4.899   5.290  12.540 -0.7523  2.3873 -1.3243
17450TIP3   OH273764   5.624   4.967   4.571  0.3665 -0.6642 -0.1429
17450TIP3    H173765   5.534   4.979   4.603 -0.0032  0.6276 -1.5309
17450TIP3    H273766   5.665   4.910   4.636 -1.0501 -0.1775  1.2500
17451TIP3   OH273767   3.144   2.921  15.056  0.4037  0.1448 -0.0318
17451TIP3    H173768   3.213   2.873  15.103 -0.2174  0.3752  1.1568
17451TIP3    H273769   3.190   2.964  14.984  1.1229 -1.4750 -0.5842
17452TIP3   OH273770   3.770   3.647   2.746 -0.2543 -0.1568  0.4811
17452TIP3    H173771   3.858   3.629   2.713 -0.7291  0.8603 -1.5208
17452TIP3    H273772   3.752   3.576   2.808  1.7658 -0.6535  0.5485
17453TIP3   OH273773   6.343   6.524  14.961 -0.2967 -0.0328  0.3154
17453TIP3    H173774   6.378   6.469  15.031 -1.2877 -0.1378  0.7298
17453TIP3    H273775   6.267   6.567  14.998 -0.4708  0.4014 -0.5057
17454TIP3   OH273776   0.923   0.229   6.537 -0.2587 -0.0455 -1.1091
17454TIP3    H173777   0.979   0.181   6.476 -0.1808 -1.0142 -0.2999
17454TIP3    H273778   0.890   0.162   6.597  1.1463  1.1054  1.0696
17455TIP3   OH273779   3.466   1.192  13.406 -0.2605  0.1334 -0.2461
17455TIP3    H173780   3.457   1.185  13.311 -0.8433 -0.2030 -0.1694
17455TIP3    H273781   3.558   1.173  13.423  0.0418  1.0774 -0.8221
17456TIP3   OH273782   3.184   4.302  15.617  0.3446 -0.5131  0.0914
17456TIP3    H173783   3.273   4.266  15.620  0.3248 -0.4995  1.5165
17456TIP3    H273784   3.193   4.385  15.572  1.1210 -0.3687  0.4954
17457TIP3   OH273785   4.373   1.207  15.224 -0.4198 -0.7079 -0.1271
17457TIP3    H173786   4.435   1.159  15.279  1.1878  0.9261 -0.4029
17457TIP3    H273787   4.426   1.274  15.181 -2.1098 -0.2575 -1.6577
17458TIP3   OH273788   0.954   3.217   3.723  0.2367  0.4010 -0.0471
17458TIP3    H173789   0.953   3.260   3.809  0.6684 -1.6104  1.0223
17458TIP3    H273790   0.967   3.289   3.661 -0.1499  1.9278  1.5477
17459TIP3   OH273791   2.578   4.580   4.942 -0.2562 -0.5847  0.2043
17459TIP3    H173792   2.605   4.587   5.034  0.6340 -1.3333  0.0060
17459TIP3    H273793   2.490   4.619   4.941 -0.5360 -1.1082  1.4930
17460TIP3   OH273794   0.031   3.592   5.671 -0.1579  0.0418 -0.5899
17460TIP3    H173795   0.068   3.504   5.677 -1.3045 -0.3587  1.8878
17460TIP3    H273796   0.065   3.637   5.749 -2.4221  0.6108  0.1340
17461TIP3   OH273797   2.905   4.371   0.725 -0.3277 -0.0242 -0.0088
17461TIP3    H173798   2.942   4.457   0.705  0.1618 -0.4375 -0.9505
17461TIP3    H273799   2.881   4.376   0.817 -1.5331  1.5639 -0.3623
17462TIP3   OH273800   6.452   1.421   4.429  0.1712  0.9606 -0.2270
17462TIP3    H173801   6.396   1.492   4.461 -0.3829  0.9154 -1.0673
17462TIP3    H273802   6.408   1.390   4.350 -0.1641 -1.0027  0.6524
17463TIP3   OH273803   5.207   5.539  13.882 -0.1701 -0.1968  0.3868
17463TIP3    H173804   5.113   5.554  13.891 -0.0853  0.0271  0.9368
17463TIP3    H273805   5.215   5.469  13.817 -0.8029 -1.6260  1.8054
17464TIP3   OH273806   2.568   6.575   2.655  0.0155 -0.4469  0.6311
17464TIP3    H173807   2.500   6.508   2.650  1.6196 -2.1146 -0.7294
17464TIP3    H273808   2.632   6.539   2.717  0.8226 -0.1531 -0.0029
17465TIP3   OH273809   6.639   0.062  10.529 -0.4339  0.0986  0.1954
17465TIP3    H173810   6.604  -0.027  10.534 -0.4697  0.1893  1.9006
17465TIP3    H273811   6.726   0.057  10.567 -0.3081  0.7441  0.0124
17466TIP3   OH273812   6.076   5.441  15.136  0.0757 -0.2267 -0.2775
17466TIP3    H173813   6.032   5.491  15.205 -0.6821 -1.7662  0.4054
17466TIP3    H273814   6.066   5.349  15.163  0.9789 -0.7854 -1.7387
17467TIP3   OH273815   2.954   0.675  11.279 -0.2650  0.1949 -0.2370
17467TIP3    H173816   2.956   0.744  11.345  0.4101 -0.5982  0.5794
17467TIP3    H273817   2.980   0.719  11.198  2.4150  0.4948  0.6873
17468TIP3   OH273818   1.036   5.013   1.735  0.0127  0.0430 -0.2352
17468TIP3    H173819   0.954   5.056   1.711 -0.3804  0.0617  1.0694
17468TIP3    H273820   1.025   4.990   1.827  1.6080  0.3287  0.0541
17469TIP3   OH273821   1.168   0.416  13.146 -0.3373  0.3577  0.2549
17469TIP3    H173822   1.081   0.445  13.174  0.1322  0.8247  1.2651
17469TIP3    H273823   1.161   0.407  13.051 -1.3090  1.0002  0.2598
17470TIP3   OH273824   4.170   0.479   3.371  0.3749  0.1749 -0.7823
17470TIP3    H173825   4.142   0.494   3.462  1.7730 -2.9596  0.3167
17470TIP3    H273826   4.095   0.507   3.319 -1.0627  0.7724  1.4371
17471TIP3   OH273827   0.483   2.599  15.173  0.4219  0.2923  0.7035
17471TIP3    H173828   0.424   2.658  15.222  1.1138 -0.0431  1.9978
17471TIP3    H273829   0.437   2.515  15.173 -0.9687  0.9446 -1.8897
17472TIP3   OH273830   2.731   2.139  17.085 -0.0736  0.3052 -0.6479
17472TIP3    H173831   2.681   2.123  17.165  1.4804 -1.1746  0.1022
17472TIP3    H273832   2.675   2.196  17.033 -2.2819 -0.7686  0.3748
17473TIP3   OH273833   6.106   6.281  14.254  0.5093  0.0650  0.0436
17473TIP3    H173834   6.131   6.220  14.185 -1.1199  0.4705 -0.9882
17473TIP3    H273835   6.171   6.351  14.250  1.0195 -0.4346 -0.3958
17474TIP3   OH273836   0.659   1.683  16.768 -0.0971 -0.1124 -0.8170
17474TIP3    H173837   0.680   1.618  16.835 -2.3080 -1.2107 -1.0991
17474TIP3    H273838   0.567   1.702  16.781  0.1719  2.0255 -1.6057
17475TIP3   OH273839   0.288   1.068   0.265 -0.2946  0.5094 -0.5344
17475TIP3    H173840   0.312   1.095   0.176  0.3634 -0.9142 -0.8132
17475TIP3    H273841   0.345   1.119   0.322  0.7722 -0.0801 -1.0350
17476TIP3   OH273842   3.145   2.579   5.703  0.6395 -0.0154  0.6099
17476TIP3    H173843   3.119   2.546   5.617  1.0189 -0.2757  0.5927
17476TIP3    H273844   3.241   2.579   5.701  0.6557  1.1916  0.5721
17477TIP3   OH273845   3.982   3.592  16.650 -0.4035 -0.0224 -0.2771
17477TIP3    H173846   4.025   3.662  16.699 -1.1084  1.6788 -1.9515
17477TIP3    H273847   4.017   3.511  16.688 -0.1285  1.1741  2.2575
17478TIP3   OH273848   3.660   2.975   5.211 -0.5787 -0.1669 -0.2900
17478TIP3    H173849   3.640   3.049   5.269  0.6957 -1.1794  1.5489
17478TIP3    H273850   3.580   2.962   5.160 -2.3723 -0.1113  2.2829
17479TIP3   OH273851   3.201   0.031   2.111 -0.5214  0.0790  0.5783
17479TIP3    H173852   3.120   0.036   2.161 -0.2631 -0.2283  1.0289
17479TIP3    H273853   3.197  -0.054   2.067  0.7066 -1.1166  2.6199
17480TIP3   OH273854   2.141   1.762  15.608  0.2572 -0.3484 -0.0275
17480TIP3    H173855   2.229   1.787  15.635  0.4342 -0.5357 -0.4225
17480TIP3    H273856   2.145   1.667  15.597  0.6204 -0.1396 -2.1546
17481TIP3   OH273857   3.444   3.437   5.748  0.1464 -0.1755 -0.0512
17481TIP3    H173858   3.490   3.372   5.695  1.2822 -0.1640  0.8837
17481TIP3    H273859   3.352   3.426   5.723  0.1805 -2.6690  0.5910
17482TIP3   OH273860   1.580   6.305  14.489 -0.0019 -0.1627  0.4915
17482TIP3    H173861   1.620   6.312  14.575 -1.0275  1.5057  0.8739
17482TIP3    H273862   1.624   6.371  14.436  1.2299 -1.7510 -0.5642
17483TIP3   OH273863   5.176   3.430  14.944  0.5326 -0.5801  0.0335
17483TIP3    H173864   5.094   3.418  14.895  0.7643  0.7326 -0.7252
17483TIP3    H273865   5.241   3.448  14.876  0.5351  3.0470  0.8380
17484TIP3   OH273866   6.031   0.182   3.950 -0.7084 -0.2395 -0.2493
17484TIP3    H173867   5.966   0.151   3.888 -1.0459 -1.4434  0.6680
17484TIP3    H273868   6.004   0.146   4.034  0.0722  0.8413  0.5041
17485TIP3   OH273869   4.366   5.993   3.991  0.5930  0.6127  0.9186
17485TIP3    H173870   4.278   5.956   3.984  0.0449  2.0062  0.1102
17485TIP3    H273871   4.381   6.003   4.085 -1.3702  3.1430  1.0737
17486TIP3   OH273872   4.317   5.452   1.041  0.3323  0.5415  0.4160
17486TIP3    H173873   4.399   5.476   1.085  0.6166  1.2710 -0.4686
17486TIP3    H273874   4.311   5.513   0.968 -0.9700  0.4389  0.4158
17487TIP3   OH273875   3.095   2.402   1.034  0.5901  0.4995  0.5189
17487TIP3    H173876   3.083   2.319   0.987  0.8797 -0.9355  2.7874
17487TIP3    H273877   3.008   2.422   1.069  0.8424  0.2054  1.3577
17488TIP3   OH273878   0.049   0.579  11.816 -0.2784 -0.3124 -0.0534
17488TIP3    H173879   0.083   0.565  11.727 -0.7342 -0.9869 -0.1309
17488TIP3    H273880  -0.009   0.654  11.808 -2.8454 -2.2588 -1.0587
17489TIP3   OH273881   3.311   0.602  17.581  0.0717 -0.2160 -0.0206
17489TIP3    H173882   3.335   0.694  17.590 -1.9041  0.1871  1.9301
17489TIP3    H273883   3.234   0.602  17.523  0.2255 -0.6798 -0.2353
17490TIP3   OH273884   1.448   3.527  12.874  0.0696 -0.4994  0.4895
17490TIP3    H173885   1.437   3.548  12.781 -0.5839 -0.3961  0.5867
17490TIP3    H273886   1.518   3.586  12.903 -1.5657  1.4626  0.6960
17491TIP3   OH273887   5.451   2.975  13.097  0.3215  0.0546  0.1891
17491TIP3    H173888   5.376   2.971  13.038  0.0503  0.1678  0.5205
17491TIP3    H273889   5.419   3.025  13.173  1.6581  2.9814 -1.0278
17492TIP3   OH273890   2.598   2.581  12.761 -0.5785  0.0351 -0.4153
17492TIP3    H173891   2.655   2.651  12.729 -0.6885 -0.5783 -2.0284
17492TIP3    H273892   2.618   2.575  12.854  0.9405  0.8139 -0.6606
17493TIP3   OH273893   4.357   3.236   3.226 -0.3307 -0.1317  0.2417
17493TIP3    H173894   4.332   3.147   3.247  0.3850  0.0534  2.0630
17493TIP3    H273895   4.296   3.291   3.275 -0.9797  0.4259 -1.1156
17494TIP3   OH273896   0.907   4.323  15.387  0.1134 -0.1573  0.1315
17494TIP3    H173897   0.983   4.374  15.412 -1.1450  0.7871  2.3226
17494TIP3    H273898   0.913   4.243  15.440  0.3221 -0.7752 -0.7936
17495TIP3   OH273899   4.985   5.846  11.920 -0.0021  0.0193 -0.3301
17495TIP3    H173900   4.930   5.824  11.995  2.0319 -1.0626  0.9218
17495TIP3    H273901   5.070   5.868  11.958  1.3082 -1.3055 -2.3305
17496TIP3   OH273902   6.694   3.168   6.454 -0.1493  0.0302  0.0953
17496TIP3    H173903   6.736   3.106   6.513  0.0571  0.1789  0.1067
17496TIP3    H273904   6.606   3.134   6.442 -1.4367  1.8377  3.3150
17497TIP3   OH273905   3.967   1.924   5.687  0.2249 -0.0086  0.4417
17497TIP3    H173906   3.973   2.017   5.665  0.0429 -0.2605 -0.7662
17497TIP3    H273907   4.057   1.892   5.680  0.5130  0.3523  2.2461
17498TIP3   OH273908   3.187   4.175  11.888 -0.0365  0.6242 -0.3976
17498TIP3    H173909   3.154   4.087  11.872 -2.1564  1.3419 -0.3784
17498TIP3    H273910   3.280   4.163  11.908  0.1575 -1.4006 -2.1345
17499TIP3   OH273911   2.211   1.314   3.683 -0.6075 -0.3518  0.5195
17499TIP3    H173912   2.206   1.334   3.776 -4.6679  0.9352  0.2155
17499TIP3    H273913   2.222   1.399   3.640  2.8771 -1.0436 -0.3073
17500TIP3   OH273914   2.708   2.730   4.217 -0.1971  0.4675 -0.0557
17500TIP3    H173915   2.617   2.740   4.244 -0.2812 -1.0707  0.3094
17500TIP3    H273916   2.722   2.802   4.156 -2.0607  0.0085 -1.1332
17501TIP3   OH273917   6.190   3.441   5.187 -0.2338 -0.0283 -0.7276
17501TIP3    H173918   6.232   3.355   5.196 -3.7477 -1.8491 -0.0083
17501TIP3    H273919   6.255   3.503   5.221  1.6345 -2.6302  0.8006
17502TIP3   OH273920   0.298   4.390   4.723 -0.1683 -0.2508  1.0295
17502TIP3    H173921   0.246   4.369   4.646  0.7253  0.1867  0.2887
17502TIP3    H273922   0.234   4.410   4.791 -0.9819 -2.0143  0.8133
17503TIP3   OH273923   2.073   5.260  10.985  0.4108  0.3125 -0.1440
17503TIP3    H173924   2.000   5.207  10.952  0.7121  0.2565 -0.7420
17503TIP3    H273925   2.038   5.349  10.990  1.2670  1.0686 -4.0237
17504TIP3   OH273926   4.231   4.406  13.058 -0.1500  0.1753 -0.3291
17504TIP3    H173927   4.172   4.479  13.073  0.2179  0.0186  2.3150
17504TIP3    H273928   4.174   4.329  13.050 -0.4146  0.0250  2.1813
17505TIP3   OH273929   6.577   4.332   2.414 -0.3167  0.5252 -0.1872
17505TIP3    H173930   6.561   4.426   2.406  1.0998  0.8739  0.6278
17505TIP3    H273931   6.553   4.296   2.328  1.4074  2.0126 -1.3847
17506TIP3   OH273932   3.487   4.506   1.484 -0.7872  0.4932 -0.3295
17506TIP3    H173933   3.494   4.551   1.569 -0.8194 -0.0271 -0.0453
17506TIP3    H273934   3.569   4.456   1.477 -0.9046  0.3207 -0.4794
17507TIP3   OH273935   1.036   4.465   4.800 -0.1896  0.2689  0.0291
17507TIP3    H173936   0.993   4.550   4.795  0.1417  0.3966 -3.2457
17507TIP3    H273937   0.968   4.405   4.830 -1.3994  1.1924 -0.7836
17508TIP3   OH273938   2.092   1.801  17.561  0.2580  0.3731  0.1402
17508TIP3    H173939   2.128   1.815  17.473  1.0550 -1.7413  0.0530
17508TIP3    H273940   2.016   1.743  17.546  0.8971 -0.6897  0.8782
17509TIP3   OH273941   4.536   0.694   0.525 -0.0733  0.3403  0.3189
17509TIP3    H173942   4.592   0.618   0.546  0.6623  1.0181  0.8819
17509TIP3    H273943   4.481   0.664   0.453 -0.1686 -0.9116  0.8759
17510TIP3   OH273944   5.126   6.432  15.493 -0.3897 -0.0876  0.3013
17510TIP3    H173945   5.049   6.402  15.542 -0.4536  0.1576  0.3555
17510TIP3    H273946   5.144   6.519  15.528  0.2895 -0.3876  0.7219
17511TIP3   OH273947   3.660   5.257   3.301 -0.0921 -0.2911 -0.3443
17511TIP3    H173948   3.732   5.284   3.245  0.6000  0.9761  1.0918
17511TIP3    H273949   3.628   5.339   3.340  1.1129 -1.2694  3.0323
17512TIP3   OH273950   5.545   2.874  17.461 -0.1524  0.3009  0.0394
17512TIP3    H173951   5.466   2.861  17.409  0.7410 -0.4940 -1.1873
17512TIP3    H273952   5.533   2.819  17.538 -0.1427 -1.0498 -0.8966
17513TIP3   OH273953   2.322   0.599   2.708 -0.7194  0.4257  0.3840
17513TIP3    H173954   2.244   0.555   2.675  1.6985 -3.3795 -0.9520
17513TIP3    H273955   2.329   0.678   2.656 -0.9986 -1.7508 -3.3000
17514TIP3   OH273956   3.372   2.282  14.304  0.2776 -0.1142 -0.2482
17514TIP3    H173957   3.451   2.308  14.256  0.7181 -1.0096 -0.0173
17514TIP3    H273958   3.377   2.331  14.386  0.7121 -0.3539 -0.1331
17515TIP3   OH273959   6.683   1.081   5.868  0.2641  0.1247 -0.2961
17515TIP3    H173960   6.727   1.157   5.904 -1.3818  0.9890 -0.0349
17515TIP3    H273961   6.609   1.116   5.819 -0.7374 -1.3127  0.1112
17516TIP3   OH273962   1.290   0.880   1.575 -0.5580 -0.4970 -0.4464
17516TIP3    H173963   1.206   0.909   1.540  0.0461  0.8845 -0.7817
17516TIP3    H273964   1.282   0.784   1.578 -1.2986 -0.5661 -2.6618
17517TIP3   OH273965   2.220   3.731   2.256  0.4649  0.2427  0.5718
17517TIP3    H173966   2.241   3.704   2.345 -2.9430 -0.7362  1.2414
17517TIP3    H273967   2.181   3.654   2.216  2.3710  0.5169 -2.0082
17518TIP3   OH273968   4.534   2.998  16.886  0.0657 -0.0917 -0.0071
17518TIP3    H173969   4.594   2.955  16.948 -0.2866 -0.5565  0.0229
17518TIP3    H273970   4.448   2.960  16.906 -0.1127  0.0235 -0.5412
17519TIP3   OH273971   0.684   3.674  13.694  0.1264 -0.4383 -0.2079
17519TIP3    H173972   0.697   3.694  13.601  2.6200  1.7041  0.4770
17519TIP3    H273973   0.614   3.734  13.721  1.0995  0.7647 -0.2389
17520TIP3   OH273974   1.781   1.219   3.633  0.6929  0.2030 -0.3008
17520TIP3    H173975   1.756   1.212   3.725 -1.1668 -1.8690 -0.8563
17520TIP3    H273976   1.741   1.301   3.604 -1.9035 -0.8744 -0.0514
17521TIP3   OH273977   3.318   5.464   6.163 -0.0981 -0.6230  0.0564
17521TIP3    H173978   3.249   5.468   6.229  1.0103  0.1461  1.2143
17521TIP3    H273979   3.344   5.555   6.148  0.8436 -0.9103 -0.1655
17522TIP3   OH273980   2.095   2.070  17.133  0.0883  0.3711  0.2283
17522TIP3    H173981   2.080   1.975  17.132  1.5005  0.1266  0.3017
17522TIP3    H273982   2.039   2.102  17.204 -1.6405 -0.1546 -0.8209
17523TIP3   OH273983   3.215   0.544  14.012  0.1231 -0.2994  0.1283
17523TIP3    H173984   3.280   0.560  14.080 -1.2912  0.1345  1.4370
17523TIP3    H273985   3.172   0.463  14.038 -0.6610  0.0515 -0.0448
17524TIP3   OH273986   0.748   3.894  12.641  0.4702  0.1109 -0.3077
17524TIP3    H173987   0.759   3.909  12.548 -1.8437 -0.5106 -0.7333
17524TIP3    H273988   0.825   3.935  12.681  0.7801  1.6731 -2.3494
17525TIP3   OH273989   6.201   2.566  14.906 -0.1619 -0.3955  0.6497
17525TIP3    H173990   6.219   2.659  14.900  0.0825 -0.4699  0.2165
17525TIP3    H273991   6.247   2.538  14.986 -0.6109 -0.0643  1.0289
17526TIP3   OH273992   4.841   3.277   5.429  0.0847 -0.6503 -0.3789
17526TIP3    H173993   4.917   3.284   5.487  0.3034  0.9504 -0.8056
17526TIP3    H273994   4.766   3.278   5.488  0.2815  1.5055 -0.0803
17527TIP3   OH273995   0.726   1.967  15.436 -0.2167  0.0276  0.3673
17527TIP3    H173996   0.679   2.012  15.366 -0.8744  0.2390  0.9290
17527TIP3    H273997   0.712   1.874  15.418 -0.6129  0.0852  0.3734
17528TIP3   OH273998   1.559   5.268   4.433  0.8677 -0.2231 -0.2950
17528TIP3    H173999   1.532   5.183   4.468 -1.6739 -0.0597 -1.6220
17528TIP3    H274000   1.565   5.325   4.510  0.4078 -1.0733  0.3888
17529TIP3   OH274001   2.373   5.667  14.155 -0.4881  0.1156 -0.0723
17529TIP3    H174002   2.454   5.625  14.126 -0.6434  0.2160 -0.6733
17529TIP3    H274003   2.308   5.597  14.153 -0.7199  0.3455 -0.9533
17530TIP3   OH274004   0.454   4.939   2.105 -0.3731 -0.1809 -0.3838
17530TIP3    H174005   0.407   4.986   2.174 -0.0097 -1.4249  0.7485
17530TIP3    H274006   0.535   4.987   2.092  0.2177 -0.7428  1.1085
17531TIP3   OH274007   4.926   3.355  17.179 -0.4092  0.5264 -0.5284
17531TIP3    H174008   5.021   3.361  17.179 -0.4310  1.1629 -1.5682
17531TIP3    H274009   4.896   3.446  17.175 -1.0752  0.3448 -0.0051
17532TIP3   OH274010   0.750   4.799  16.006  0.0269  0.3363 -0.4466
17532TIP3    H174011   0.834   4.826  15.969 -0.2162  3.1358  0.8173
17532TIP3    H274012   0.772   4.764  16.093 -0.1926  3.2295  0.8762
17533TIP3   OH274013   1.787   5.302   0.002 -0.4235 -0.0903 -0.6317
17533TIP3    H174014   1.816   5.215  -0.024  1.0499  0.0800  0.3181
17533TIP3    H274015   1.697   5.308  -0.029 -0.5890 -1.9921 -0.6165
17534TIP3   OH274016   2.001   0.355   4.088  0.4286 -1.1256 -0.3330
17534TIP3    H174017   1.965   0.402   4.163  0.7201 -1.5450  0.0732
17534TIP3    H274018   2.021   0.423   4.024  1.5177 -0.6186  0.5209
17535TIP3   OH274019   4.664   0.740   5.121 -0.4817 -0.2101  0.0259
17535TIP3    H174020   4.579   0.783   5.130  0.0348  0.7646  0.3510
17535TIP3    H274021   4.708   0.757   5.204  0.8190  1.0667 -0.8760
17536TIP3   OH274022   5.504   2.741   0.111 -0.4165 -0.0135  0.0603
17536TIP3    H174023   5.579   2.791   0.145 -0.5828  1.4510 -1.6160
17536TIP3    H274024   5.543   2.661   0.076  0.1323 -0.0715  0.7757
17537TIP3   OH274025   0.285   3.721   6.135 -0.4670  0.0982 -0.3086
17537TIP3    H174026   0.374   3.691   6.153 -0.1062  2.0356  1.4855
17537TIP3    H274027   0.297   3.809   6.098 -1.6294  0.0653 -0.8006
17538TIP3   OH274028   5.900   0.485  15.249  0.2266 -0.0115  0.2531
17538TIP3    H174029   5.916   0.541  15.173 -0.5051 -0.2206 -0.0600
17538TIP3    H274030   5.957   0.409  15.234  0.3031  0.0807  0.0615
17539TIP3   OH274031   4.591   0.231   2.162 -0.0647  0.1577 -0.1877
17539TIP3    H174032   4.642   0.178   2.101 -0.8272 -0.9105  0.0645
17539TIP3    H274033   4.625   0.320   2.151  2.7374 -0.6665  0.8867
17540TIP3   OH274034   1.663   4.129  11.187  0.4923  0.7407  0.2289
17540TIP3    H174035   1.705   4.128  11.273 -0.3172  1.3699  0.6487
17540TIP3    H274036   1.710   4.197  11.138  1.1959  0.1283  0.0371
17541TIP3   OH274037   4.962   1.731  13.165 -0.0466  0.2378 -0.1647
17541TIP3    H174038   5.036   1.706  13.221  1.4026 -0.4977 -2.2441
17541TIP3    H274039   4.921   1.648  13.142 -1.3371  0.6227  0.6947
17542TIP3   OH274040   4.360   4.373  15.423 -0.0725  0.1707  0.2712
17542TIP3    H174041   4.404   4.288  15.418  0.3841  0.3728  0.7936
17542TIP3    H274042   4.353   4.391  15.517 -0.3704  0.6061  0.1676
17543TIP3   OH274043   1.953   1.813  12.266 -0.2088 -0.3339 -0.6132
17543TIP3    H174044   1.876   1.776  12.308 -0.1558  0.0884 -0.1299
17543TIP3    H274045   1.927   1.902  12.244  0.1049 -0.2252 -0.5436
17544TIP3   OH274046   2.972   4.464   0.051  0.1502 -0.0629 -0.0076
17544TIP3    H174047   2.966   4.461  -0.045  3.1489  0.3556 -0.3010
17544TIP3    H274048   2.930   4.546   0.076 -0.7441 -0.2198 -0.9111
17545TIP3   OH274049   3.553   4.498  12.559  0.2067  0.3345 -0.2766
17545TIP3    H174050   3.581   4.421  12.508 -0.7020 -1.0320  1.2117
17545TIP3    H274051   3.635   4.541  12.583  0.7553 -0.3495 -0.8525
17546TIP3   OH274052   0.421   1.442   4.833  0.0905  0.2534  0.3774
17546TIP3    H174053   0.374   1.448   4.917 -0.6623 -3.0157  0.3450
17546TIP3    H274054   0.505   1.482   4.850  0.4401 -1.3515  3.1845
17547TIP3   OH274055   4.766   1.250   5.781 -0.1981  0.2782 -0.5223
17547TIP3    H174056   4.803   1.192   5.715 -2.8127  0.1983 -2.0593
17547TIP3    H274057   4.715   1.193   5.838 -0.3378  0.6941 -0.2272
17548TIP3   OH274058   4.408   5.218   3.325  0.7632  0.4259 -0.2425
17548TIP3    H174059   4.442   5.256   3.243  1.1364 -1.8386 -1.2169
17548TIP3    H274060   4.471   5.149   3.347 -0.5240 -0.4929  0.7150
17549TIP3   OH274061   3.181   3.810  13.156  0.3235 -0.0094  0.0651
17549TIP3    H174062   3.134   3.773  13.230 -1.0418  0.4259 -0.5550
17549TIP3    H274063   3.153   3.757  13.081  1.7248 -0.4787 -0.1604
17550TIP3   OH274064   4.396   2.593   1.563  0.5876 -0.8207 -0.3580
17550TIP3    H174065   4.483   2.631   1.570  1.5134 -3.0898  3.6187
17550TIP3    H274066   4.337   2.667   1.580  1.9345  0.0897  0.5831
17551TIP3   OH274067   3.330   0.717  16.298  0.0619 -0.2493  0.2342
17551TIP3    H174068   3.403   0.655  16.298 -0.5291 -0.9610 -0.4950
17551TIP3    H274069   3.364   0.794  16.251  0.7389 -0.0722  0.9954
17552TIP3   OH274070   3.133   5.769   3.317 -0.1687  0.2413  0.0908
17552TIP3    H174071   3.131   5.826   3.240  0.7855 -0.9551 -0.8555
17552TIP3    H274072   3.185   5.693   3.290 -1.1010 -0.9277  1.4190
17553TIP3   OH274073   3.629   6.476  11.210 -0.5083  0.0621  0.1922
17553TIP3    H174074   3.609   6.549  11.152 -2.2093  0.4449  1.2068
17553TIP3    H274075   3.548   6.425  11.214  0.8512 -2.3856 -1.1278
17554TIP3   OH274076   2.988   0.681  12.360 -0.2638 -0.2960  0.1321
17554TIP3    H174077   3.073   0.723  12.344  0.8774 -2.9687 -1.3912
17554TIP3    H274078   2.967   0.636  12.279 -2.7686 -0.4330  0.7696
17555TIP3   OH274079   6.339   5.770   2.054  0.4326  0.2094 -0.3708
17555TIP3    H174080   6.339   5.725   2.138  0.3705  0.2027 -0.3743
17555TIP3    H274081   6.409   5.729   2.004  0.4269  0.1698 -0.3455
17556TIP3   OH274082   0.895   3.268  12.988  0.0913  0.0886 -0.7455
17556TIP3    H174083   0.804   3.279  12.962 -0.6467 -1.4341  1.0277
17556TIP3    H274084   0.900   3.302  13.077  0.8896 -1.0876 -0.3016
17557TIP3   OH274085   6.131   2.668   6.054 -0.7110 -0.1927  0.3423
17557TIP3    H174086   6.118   2.752   6.097  1.6236  1.0724 -1.2339
17557TIP3    H274087   6.094   2.680   5.966 -0.0599 -0.6820 -0.0074
17558TIP3   OH274088   2.190   5.359   1.873 -0.1254  0.1638 -0.0058
17558TIP3    H174089   2.181   5.395   1.961 -0.3016 -0.4026  0.2150
17558TIP3    H274090   2.162   5.268   1.882 -2.1567  0.6071 -1.0452
17559TIP3   OH274091   4.751   4.933   6.274 -0.6862 -0.4813 -0.2905
17559TIP3    H174092   4.812   5.006   6.265 -3.0499  1.4065 -2.6270
17559TIP3    H274093   4.675   4.970   6.317 -0.4431 -2.7416  2.4077
17560TIP3   OH274094   0.121   2.371   1.659 -0.3135 -0.1566 -0.3099
17560TIP3    H174095   0.087   2.343   1.744  0.7671 -1.4111 -0.2564
17560TIP3    H274096   0.128   2.466   1.666 -1.2467 -0.1392  0.6138
17561TIP3   OH274097   1.695   2.179   4.223  0.0559  0.2250 -0.3529
17561TIP3    H174098   1.619   2.126   4.197  0.1618  0.3659 -0.9675
17561TIP3    H274099   1.701   2.166   4.317  0.4640 -1.3775 -0.5681
17562TIP3   OH274100   0.106   4.167   2.462 -0.0685  0.2068  0.3254
17562TIP3    H174101   0.170   4.180   2.393 -1.6120 -1.0582 -1.4591
17562TIP3    H274102   0.039   4.233   2.445 -0.8179 -0.5817  0.1367
17563TIP3   OH274103   3.827   3.218  16.764  0.2177 -0.1843  0.3016
17563TIP3    H174104   3.834   3.239  16.671 -1.4828 -1.8553 -0.2565
17563TIP3    H274105   3.892   3.274  16.806 -1.3147  3.1736 -1.4490
17564TIP3   OH274106   3.859   0.135   4.490  0.2580 -0.1110  0.0791
17564TIP3    H174107   3.941   0.107   4.532  0.2290 -1.7257 -0.8719
17564TIP3    H274108   3.854   0.229   4.508  2.1901 -0.0295  0.3841
17565TIP3   OH274109   2.918   4.110  14.684  0.0297 -0.3250  0.1589
17565TIP3    H174110   2.874   4.194  14.680 -1.4613 -1.0896 -0.0884
17565TIP3    H274111   3.011   4.132  14.680 -0.3330  1.2738 -0.3796
17566TIP3   OH274112   4.437   2.690   4.522  0.1169 -0.0503 -0.1434
17566TIP3    H174113   4.442   2.785   4.531 -0.4620  0.1233 -1.4070
17566TIP3    H274114   4.526   2.663   4.500  0.4683  0.0799  1.0535
17567TIP3   OH274115   0.437   5.716   2.440  0.0608 -0.0579  0.4701
17567TIP3    H174116   0.511   5.746   2.493 -0.6975  0.9684  0.9816
17567TIP3    H274117   0.366   5.776   2.462 -0.9650 -1.0911  0.0772
17568TIP3   OH274118   0.161   0.625  13.128  0.1528 -0.0876 -0.1357
17568TIP3    H174119   0.243   0.655  13.169  0.3318  0.8823 -1.1619
17568TIP3    H274120   0.107   0.704  13.123  0.1786 -0.1460 -1.8322
17569TIP3   OH274121   6.345   2.596   6.625 -0.0444 -0.4883  0.4606
17569TIP3    H174122   6.333   2.519   6.680  1.2186 -0.8327  0.2948
17569TIP3    H274123   6.434   2.626   6.645 -0.1788  0.3749 -0.1598
17570TIP3   OH274124   3.423   2.186   0.931  0.2180 -0.3147 -0.1177
17570TIP3    H174125   3.507   2.179   0.975 -0.2252 -0.4597  0.7303
17570TIP3    H274126   3.431   2.262   0.874  0.1331  1.1641  1.7501
17571TIP3   OH274127   3.448   5.534   3.894  0.6939 -0.0598 -0.0120
17571TIP3    H174128   3.512   5.524   3.964  1.3491 -0.0626 -0.6012
17571TIP3    H274129   3.497   5.518   3.813  0.1478  0.7851 -0.5340
17572TIP3   OH274130   3.286   3.597  12.501  0.0828 -0.1497  0.1539
17572TIP3    H174131   3.317   3.509  12.525  0.2806  0.0931  0.8144
17572TIP3    H274132   3.366   3.644  12.479  0.1611  0.3351  1.3852
17573TIP3   OH274133   2.369   0.264   4.792 -0.3052 -0.8285  0.2444
17573TIP3    H174134   2.376   0.186   4.738 -0.0251 -1.0668  0.6228
17573TIP3    H274135   2.355   0.335   4.729 -0.5006 -1.1689 -0.1036
17574TIP3   OH274136   5.797   3.799   4.393 -0.2253  0.6087 -0.0354
17574TIP3    H174137   5.775   3.765   4.306  1.5533 -1.0203  0.0847
17574TIP3    H274138   5.852   3.875   4.375  0.6539 -0.0843 -0.3858
17575TIP3   OH274139   4.925   3.567   0.218 -0.8589 -0.7324 -0.2187
17575TIP3    H174140   4.860   3.578   0.149  0.4000 -0.0836 -1.3500
17575TIP3    H274141   4.901   3.484   0.260 -0.5917 -2.1606 -2.6814
17576TIP3   OH274142   2.131   6.067  14.081 -0.0016 -0.4102 -0.4571
17576TIP3    H174143   2.184   6.146  14.090 -0.5933  0.1556 -1.6486
17576TIP3    H274144   2.153   6.014  14.157 -0.3928  1.3718  0.9661
17577TIP3   OH274145   3.483   4.246   1.590  0.2623 -0.1403  0.2321
17577TIP3    H174146   3.439   4.178   1.538 -0.1376  0.3331 -0.0482
17577TIP3    H274147   3.428   4.323   1.581 -0.4774 -0.3600  2.3142
17578TIP3   OH274148   1.950   0.588  12.954  0.0390 -0.1117  0.1522
17578TIP3    H174149   2.014   0.625  12.893  0.0052 -1.6733 -0.9021
17578TIP3    H274150   1.865   0.617  12.920  0.0029 -1.2298 -0.7671
17579TIP3   OH274151   0.086   2.356  15.896  0.7243  0.1210  0.4930
17579TIP3    H174152   0.132   2.437  15.872  1.1152 -0.6384 -1.5239
17579TIP3    H274153   0.060   2.369  15.987  3.1517  1.4231  1.0860
17580TIP3   OH274154   3.925   6.580   2.454  0.4494  0.0625 -0.0872
17580TIP3    H174155   3.952   6.504   2.505  2.2959  0.4010 -0.4979
17580TIP3    H274156   3.869   6.630   2.514  2.0046  0.1054  1.3920
17581TIP3   OH274157   2.225   2.018  13.694  0.4760  0.0624 -0.6743
17581TIP3    H174158   2.258   1.931  13.671  0.9096 -0.0646  0.3596
17581TIP3    H274159   2.289   2.079  13.656  0.2919 -0.0751 -1.2092
17582TIP3   OH274160   4.025   2.281  17.295  0.4928  0.3186 -0.2349
17582TIP3    H174161   3.949   2.223  17.295  0.8383 -0.1807 -1.6771
17582TIP3    H274162   4.085   2.242  17.232  1.2444  1.6078 -0.3586
17583TIP3   OH274163   5.751   1.862   1.268  0.0310 -0.1901  0.1915
17583TIP3    H174164   5.835   1.879   1.309  0.0970 -0.6917  0.2775
17583TIP3    H274165   5.756   1.771   1.239  0.0630  0.2018 -1.1205
17584TIP3   OH274166   1.336   1.007   5.374  0.5115 -0.2452  0.2520
17584TIP3    H174167   1.370   0.918   5.389  2.0282  0.0950 -0.8657
17584TIP3    H274168   1.415   1.061   5.367 -0.3072  0.8100 -1.2740
17585TIP3   OH274169   3.362   5.364  16.776 -1.3437  0.0754  0.0863
17585TIP3    H174170   3.318   5.427  16.833 -2.6093 -0.8923  0.2152
17585TIP3    H274171   3.333   5.278  16.808  1.1838 -0.6610  0.6205
17586TIP3   OH274172   5.739   2.188  15.970  0.2281  0.3785 -0.5003
17586TIP3    H174173   5.716   2.249  16.040  0.1734  1.1994 -1.2048
17586TIP3    H274174   5.704   2.229  15.891  2.2144  0.6143 -1.3275
17587TIP3   OH274175   1.791   4.584  11.936  0.0112 -0.4615  0.2636
17587TIP3    H174176   1.826   4.543  12.015  2.3005  0.5176 -0.1467
17587TIP3    H274177   1.788   4.514  11.871  0.3605 -0.7697  0.5783
17588TIP3   OH274178   5.008   3.254   3.539  0.1521  0.5200  0.1701
17588TIP3    H174179   5.081   3.282   3.483  0.2425 -0.0837 -0.0249
17588TIP3    H274180   5.000   3.160   3.521 -0.5357  0.5436  0.3527
17589TIP3   OH274181   1.343   6.247  14.329 -0.0360 -0.2200 -0.1232
17589TIP3    H174182   1.397   6.260  14.407  1.2068  1.4061 -1.1901
17589TIP3    H274183   1.253   6.251  14.362  0.4538  0.8375  1.1710
17590TIP3   OH274184   6.400   5.841   0.840 -0.3862  0.3672 -0.0680
17590TIP3    H174185   6.417   5.871   0.929  2.3583  0.0365 -0.3935
17590TIP3    H274186   6.448   5.902   0.784  0.5763 -1.2416 -1.0939
17591TIP3   OH274187   0.259   3.636  14.770  0.8296 -0.0006 -0.4031
17591TIP3    H174188   0.259   3.556  14.822  0.0276  1.0113  1.2555
17591TIP3    H274189   0.344   3.636  14.725  1.7063 -0.7866  1.1766
17592TIP3   OH274190   1.238   1.137  15.569  0.0078  0.3641 -0.2276
17592TIP3    H174191   1.329   1.158  15.589 -0.3646  0.9145  1.0238
17592TIP3    H274192   1.205   1.094  15.648 -0.5738 -0.6756 -1.0072
17593TIP3   OH274193   4.488   5.466   5.941  0.0997 -0.2024  0.3777
17593TIP3    H174194   4.541   5.415   6.002  0.6594  1.4456  1.3410
17593TIP3    H274195   4.459   5.542   5.992  2.2003  2.2938 -1.8170
17594TIP3   OH274196   3.106   1.150  16.288 -0.5844 -0.5667  0.4228
17594TIP3    H174197   3.073   1.100  16.362 -1.2017  1.3907  1.5360
17594TIP3    H274198   3.176   1.204  16.324 -0.3602 -0.1514 -0.5847
17595TIP3   OH274199   3.899   0.968  10.957 -0.5779 -0.5827 -0.3660
17595TIP3    H174200   3.994   0.967  10.954 -0.5928 -0.7002 -0.8671
17595TIP3    H274201   3.873   0.876  10.961 -0.6805 -0.5736 -0.7428
17596TIP3   OH274202   4.738   5.721   1.137 -0.1102 -0.6473  0.1405
17596TIP3    H174203   4.768   5.662   1.069  2.1697 -0.1018  0.5788
17596TIP3    H274204   4.818   5.762   1.170 -1.3512  0.6805  1.6814
17597TIP3   OH274205   6.075   2.335  13.913 -0.2055 -0.5738 -0.1006
17597TIP3    H174206   6.054   2.335  13.819 -1.9853 -1.9933  0.2307
17597TIP3    H274207   6.152   2.279  13.920  0.2136 -0.1027 -0.7372
17598TIP3   OH274208   0.120   4.964  12.742 -0.4879  0.2797 -0.1115
17598TIP3    H174209   0.098   5.052  12.770 -1.1183  0.0127  0.2443
17598TIP3    H274210   0.088   4.907  12.812  2.2772 -0.0800  1.0129
17599TIP3   OH274211   6.050   4.664  12.361 -0.3941 -0.2522 -0.1613
17599TIP3    H174212   5.996   4.740  12.342 -0.5001  0.3469  2.1998
17599TIP3    H274213   6.131   4.701  12.396 -0.6814 -1.1702  1.5930
17600TIP3   OH274214   0.791   3.942   2.209 -0.0173  0.5855  0.5485
17600TIP3    H174215   0.826   3.871   2.262  0.0054  0.6456  0.6154
17600TIP3    H274216   0.860   4.009   2.212 -0.6499  1.2201  1.7266
17601TIP3   OH274217   2.477   3.468  12.631  0.4338  0.0537 -0.3497
17601TIP3    H174218   2.482   3.469  12.727 -1.1635  2.6894 -0.1952
17601TIP3    H274219   2.420   3.394  12.611  1.9587 -1.4399  0.5842
17602TIP3   OH274220   1.613   5.897  11.622  0.0548 -0.1004  0.5578
17602TIP3    H174221   1.658   5.816  11.646 -0.6713 -0.7937 -0.3602
17602TIP3    H274222   1.651   5.922  11.538  0.1061  0.3830  0.7212
17603TIP3   OH274223   1.887   3.107   5.380 -0.0647 -0.3367  0.9138
17603TIP3    H174224   1.823   3.158   5.429  0.1731 -0.8903  1.8246
17603TIP3    H274225   1.853   3.105   5.290 -1.6107 -1.0601  1.4806
17604TIP3   OH274226   5.497   0.117  17.471 -0.1273 -0.2790  0.6367
17604TIP3    H174227   5.450   0.185  17.519 -0.4718  0.0174 -0.1006
17604TIP3    H274228   5.519   0.158  17.387 -0.0044 -0.9557  0.3342
17605TIP3   OH274229   2.023   3.475   5.485  0.0902 -1.1811 -0.1476
17605TIP3    H174230   2.057   3.386   5.475 -1.5797 -2.0368  1.4306
17605TIP3    H274231   1.944   3.466   5.538 -0.8332  1.1071 -0.9896
17606TIP3   OH274232   2.043   6.292  16.237 -0.4459  0.0898  0.2920
17606TIP3    H174233   2.103   6.220  16.218 -2.0610 -0.8969 -1.5551
17606TIP3    H274234   1.988   6.260  16.309 -2.3501 -1.4190 -1.6894
17607TIP3   OH274235   3.335   4.687   6.560  0.5079  0.0623  0.7321
17607TIP3    H174236   3.332   4.762   6.501 -0.3649 -0.7073 -0.2609
17607TIP3    H274237   3.366   4.722   6.643  3.1961  0.9377 -0.5374
17608TIP3   OH274238   4.491   5.692  11.038  0.5271 -0.8420 -0.2818
17608TIP3    H174239   4.558   5.750  11.003  0.1843 -1.0843 -1.4045
17608TIP3    H274240   4.470   5.728  11.124  1.6203 -0.3892 -0.1892
17609TIP3   OH274241   0.826   0.306  13.392  0.4596 -0.1502 -0.0930
17609TIP3    H174242   0.740   0.337  13.420  0.5498 -1.6143  1.9771
17609TIP3    H274243   0.861   0.378  13.339 -1.4921  1.0053  0.0960
17610TIP3   OH274244   0.176   6.400   0.502 -0.4935 -0.1506  0.2453
17610TIP3    H174245   0.261   6.396   0.459 -0.2031 -0.0066  0.7945
17610TIP3    H274246   0.123   6.335   0.456  0.1109 -0.7096  0.3197
17611TIP3   OH274247   4.257   1.919   3.824  0.0569  0.5752 -0.6087
17611TIP3    H174248   4.205   1.855   3.776 -0.4527  0.0735  0.5803
17611TIP3    H274249   4.242   2.002   3.778 -2.2430  0.5595  0.0087
17612TIP3   OH274250   4.593   3.815  15.483  0.1197  0.0568 -0.1165
17612TIP3    H174251   4.644   3.787  15.407  1.1890  2.9868 -0.6012
17612TIP3    H274252   4.506   3.834  15.448 -1.0382 -3.4387  0.4373
17613TIP3   OH274253   4.275   6.112  12.378 -0.1456 -0.2075 -0.9506
17613TIP3    H174254   4.333   6.136  12.306  0.3572 -0.8155 -0.7626
17613TIP3    H274255   4.271   6.016  12.375 -0.8288 -0.1962 -0.7156
17614TIP3   OH274256   5.986   0.030  12.043 -0.3080  0.0239  0.3176
17614TIP3    H174257   5.992   0.042  11.948  0.0179 -2.1951 -0.0088
17614TIP3    H274258   5.936   0.105  12.074  0.4987  1.3695 -1.4592
17615TIP3   OH274259   3.955   2.200   6.824 -0.4763  0.3706 -0.5026
17615TIP3    H174260   3.873   2.219   6.869  0.6338  1.7237  1.0540
17615TIP3    H274261   3.979   2.112   6.853 -0.6749  0.5317  0.1631
17616TIP3   OH274262   3.592   1.258  15.732  0.2899  0.0391  0.1036
17616TIP3    H174263   3.640   1.178  15.751 -0.5617 -0.4898  0.1143
17616TIP3    H274264   3.634   1.294  15.654 -0.2884 -1.2720 -0.8595
17617TIP3   OH274265   0.501   1.812   5.848 -0.1610 -0.0953  0.3281
17617TIP3    H174266   0.576   1.753   5.849  0.4052  0.5129 -1.7564
17617TIP3    H274267   0.467   1.806   5.759 -1.6132  0.8762  0.7785
17618TIP3   OH274268   4.260   2.492  14.886 -0.0366 -0.2197  0.3334
17618TIP3    H174269   4.202   2.427  14.926  0.4689 -2.0818 -1.7893
17618TIP3    H274270   4.207   2.534  14.819  0.2582  0.1137  0.3074
17619TIP3   OH274271   6.018   0.313   0.639 -0.1241 -0.1892 -0.1009
17619TIP3    H174272   5.953   0.384   0.642 -1.3069 -1.2554  0.4985
17619TIP3    H274273   6.063   0.324   0.555  0.6604  2.0570  0.5387
17620TIP3   OH274274   0.591   2.955   3.837 -0.1637  0.4228  0.0867
17620TIP3    H174275   0.528   2.975   3.905  1.7250  1.9706  1.4876
17620TIP3    H274276   0.570   2.866   3.810 -1.2753 -0.0749  2.3659
17621TIP3   OH274277   3.964   1.090  11.864  0.3971  0.3468  0.1250
17621TIP3    H174278   3.984   1.170  11.912  0.3816 -0.0892  0.8811
17621TIP3    H274279   3.993   1.107  11.775  1.7634  0.6640  0.6075
17622TIP3   OH274280   0.713   0.210  16.659  0.1382  0.0092  0.6194
17622TIP3    H174281   0.626   0.238  16.687 -0.5714 -3.4563  2.3114
17622TIP3    H274282   0.712   0.222  16.564 -1.4935  1.6162  0.7700
17623TIP3   OH274283   3.607   1.078  11.570 -0.1130  0.2868  0.4568
17623TIP3    H174284   3.625   1.147  11.505  1.9502 -1.2632 -0.7526
17623TIP3    H274285   3.672   1.092  11.638  1.1317 -1.0951 -0.3859
17624TIP3   OH274286   6.319   2.004   0.537 -0.0592  0.1808 -0.2753
17624TIP3    H174287   6.305   2.084   0.587  0.3812 -1.0770  2.0315
17624TIP3    H274288   6.232   1.980   0.505 -0.8186 -0.0621  1.7748
17625TIP3   OH274289   6.448   5.301  12.223  0.2149  0.5773  0.5198
17625TIP3    H174290   6.491   5.313  12.308 -1.2170  2.0614  1.1079
17625TIP3    H274291   6.362   5.265  12.245  0.3934 -0.5012 -0.4604
17626TIP3   OH274292   2.410   0.093  15.688 -0.1693 -0.2224 -0.0182
17626TIP3    H174293   2.387   0.121  15.777  0.5916 -0.1511  0.1647
17626TIP3    H274294   2.505   0.083  15.690  0.3112  2.7829 -1.6226
17627TIP3   OH274295   1.380   3.298  11.932 -0.4730  0.4919  0.9121
17627TIP3    H174296   1.345   3.209  11.936  0.0231  0.2352 -0.3000
17627TIP3    H274297   1.304   3.352  11.911 -0.7870  0.3820  1.7038
17628TIP3   OH274298   0.547   3.734   0.406 -0.6664  0.7420 -0.4834
17628TIP3    H174299   0.575   3.765   0.320 -1.1111 -0.5086 -1.0946
17628TIP3    H274300   0.524   3.642   0.393  3.3177 -0.8552  1.7705
17629TIP3   OH274301   5.522   4.169  16.447  0.2968  0.2752  0.3164
17629TIP3    H174302   5.571   4.219  16.513  1.7810 -1.0158  0.2469
17629TIP3    H274303   5.527   4.078  16.477  0.0305 -0.1883 -0.9840
17630TIP3   OH274304   4.785   6.100  14.785 -0.4348 -0.0273 -0.2620
17630TIP3    H174305   4.717   6.045  14.824  0.7370 -0.1242  1.7906
17630TIP3    H274306   4.852   6.039  14.755  0.5031  0.1934  1.2957
17631TIP3   OH274307   0.758   0.915  16.301 -0.1523  0.3809 -0.0691
17631TIP3    H174308   0.789   0.913  16.392 -1.0947 -1.9761  0.2638
17631TIP3    H274309   0.832   0.884  16.249 -0.5921 -1.3110  0.2741
17632TIP3   OH274310   0.378   5.251   1.501  0.5496  0.5846 -0.8153
17632TIP3    H174311   0.285   5.238   1.518  0.9558  0.6971  2.0560
17632TIP3    H274312   0.416   5.163   1.509  1.0067  0.9022  0.9458
17633TIP3   OH274313   5.809   1.187  15.338  0.1129  0.5158  0.2548
17633TIP3    H174314   5.723   1.175  15.379  0.1979  0.4652  0.4202
17633TIP3    H274315   5.862   1.115  15.372  0.4313  0.9648  0.7340
17634TIP3   OH274316   4.550   6.189   1.608 -0.2121  0.1461  0.9565
17634TIP3    H174317   4.498   6.206   1.686 -1.6006  0.9745 -0.1107
17634TIP3    H274318   4.526   6.100   1.582 -0.5296  0.2456  0.9037
17635TIP3   OH274319   3.071   3.907   5.357  0.0610 -0.1405  0.1275
17635TIP3    H174320   3.144   3.962   5.330  0.2138 -0.8673 -1.0385
17635TIP3    H274321   3.112   3.831   5.399 -0.0168 -0.5028 -0.4407
17636TIP3   OH274322   1.560   1.877  17.482  0.3483  0.3548 -0.1510
17636TIP3    H174323   1.622   1.824  17.432 -0.5855 -0.4269 -0.5415
17636TIP3    H274324   1.605   1.897  17.564  0.5703 -1.5308  0.2505
17637TIP3   OH274325   1.717   1.456   4.703  0.3196  0.2137  0.0315
17637TIP3    H174326   1.777   1.529   4.683 -0.5515  0.9332 -0.0365
17637TIP3    H274327   1.631   1.488   4.675  0.0763 -1.2854 -1.0553
17638TIP3   OH274328   1.904   4.532   1.057  0.3644 -0.0136 -0.0265
17638TIP3    H174329   1.927   4.446   1.022  1.8285  0.2922  0.1077
17638TIP3    H274330   1.969   4.549   1.125 -0.8572  0.5318  1.0632
17639TIP3   OH274331   2.596   1.333   0.411 -0.2424 -0.5778  0.6517
17639TIP3    H174332   2.645   1.333   0.493 -1.1139  2.1048  1.2750
17639TIP3    H274333   2.510   1.368   0.434  0.3676  3.0369 -1.7393
17640TIP3   OH274334   5.507   3.259   0.083  0.2710 -0.3674  0.3036
17640TIP3    H174335   5.588   3.296   0.118  1.0680 -2.1503  0.4548
17640TIP3    H274336   5.474   3.203   0.153 -0.1664 -0.9895 -0.3913
17641TIP3   OH274337   5.972   3.976  11.561 -0.5660 -0.2036 -0.0138
17641TIP3    H174338   5.994   4.052  11.507 -0.1584  0.4356  1.0265
17641TIP3    H274339   5.877   3.979  11.571 -0.8974 -1.3938 -2.2148
17642TIP3   OH274340   2.438   2.613  13.196 -0.4376  0.5255 -0.2327
17642TIP3    H174341   2.509   2.606  13.132 -0.8264  1.2360 -0.7681
17642TIP3    H274342   2.482   2.632  13.279  0.0916 -0.6750 -0.2145
17643TIP3   OH274343   0.452   5.946   6.034 -0.1798  0.0537 -0.6650
17643TIP3    H174344   0.488   6.027   5.998  0.8422 -0.8502 -1.7544
17643TIP3    H274345   0.487   5.941   6.122 -2.2984  2.0428  0.3933
17644TIP3   OH274346   4.339   2.976  14.811 -0.1559  0.3650  0.3352
17644TIP3    H174347   4.359   2.890  14.847  0.8398  0.9007  1.1510
17644TIP3    H274348   4.349   2.965  14.716 -1.6016 -0.7714  0.2763
17645TIP3   OH274349   3.189   5.207  14.521  0.2683  0.1390 -0.9627
17645TIP3    H174350   3.233   5.171  14.445  1.8144 -0.0738 -0.0123
17645TIP3    H274351   3.207   5.301  14.517 -0.2460  0.2270 -1.2325
17646TIP3   OH274352   2.970   4.652  17.400 -1.0500  0.1377  0.0698
17646TIP3    H174353   2.999   4.670  17.310 -1.0245  0.0997  0.0691
17646TIP3    H274354   2.953   4.739  17.437  0.0506  0.2291  0.3954
17647TIP3   OH274355   1.182   0.597   5.347  0.5416 -0.1976  0.3550
17647TIP3    H174356   1.143   0.512   5.364 -0.2760  0.2987  1.0256
17647TIP3    H274357   1.115   0.646   5.301  0.9738  0.1171  0.0522
17648TIP3   OH274358   3.739   5.697  14.275  0.1291  0.5018 -0.0598
17648TIP3    H174359   3.682   5.641  14.223 -0.8566  1.7064 -0.3364
17648TIP3    H274360   3.823   5.652  14.277 -0.7924 -1.2880  0.2816
17649TIP3   OH274361   3.639   0.808   6.035 -0.3290  0.1050  0.2646
17649TIP3    H174362   3.666   0.783   6.123 -1.8118 -0.1636  0.6641
17649TIP3    H274363   3.600   0.895   6.046  1.2426  0.9525 -0.4737
17650TIP3   OH274364   5.455   6.044  13.609  0.3323  0.2626  0.3264
17650TIP3    H174365   5.374   6.094  13.612  1.4882  2.3026 -0.3767
17650TIP3    H274366   5.428   5.952  13.615 -2.0638  0.8333 -0.9095
17651TIP3   OH274367   3.988   5.893  15.581  0.4615  0.1654 -0.3805
17651TIP3    H174368   3.982   5.943  15.500 -0.9685  0.8325  0.1086
17651TIP3    H274369   3.931   5.817  15.566 -2.0588  1.6723  0.9072
17652TIP3   OH274370   3.629   3.968  15.848 -0.0111 -0.2040 -0.3128
17652TIP3    H174371   3.662   4.046  15.804  0.6971 -0.5160 -0.3424
17652TIP3    H274372   3.688   3.898  15.821  0.1055 -0.5154  0.6871
17653TIP3   OH274373   2.089   3.832  11.123  0.3625 -0.2406  0.7559
17653TIP3    H174374   2.090   3.903  11.187  2.3043  0.1011  0.4130
17653TIP3    H274375   2.019   3.855  11.062  0.9387  1.4016  0.6589
17654TIP3   OH274376   3.794   1.231   2.593  0.2696  0.1561 -0.1098
17654TIP3    H174377   3.820   1.240   2.501 -0.4127  1.0090 -0.2257
17654TIP3    H274378   3.840   1.302   2.638  0.3847 -0.0912  0.1668
17655TIP3   OH274379   4.641   0.897  13.234 -0.1205 -0.8062 -0.0168
17655TIP3    H174380   4.607   0.896  13.323 -1.0446  0.7136 -0.3220
17655TIP3    H274381   4.566   0.873  13.179  0.0081 -0.1264 -0.4974
17656TIP3   OH274382   3.419   2.766   4.250 -0.2009 -0.1324  0.7346
17656TIP3    H174383   3.458   2.688   4.211  0.3458 -0.3780  1.7412
17656TIP3    H274384   3.485   2.834   4.238 -0.6088  0.1473  0.0065
17657TIP3   OH274385   3.821   5.820   5.779 -0.7589 -0.0958 -0.2913
17657TIP3    H174386   3.795   5.751   5.839 -3.9997  0.0290 -1.3854
17657TIP3    H274387   3.831   5.776   5.695 -1.5464  0.5393 -0.7273
17658TIP3   OH274388   3.268   3.771   3.201  0.2621 -0.3170  0.2470
17658TIP3    H174389   3.183   3.785   3.244  0.2038 -2.0792  0.7912
17658TIP3    H274390   3.329   3.754   3.273  1.2347  1.4643 -0.1077
17659TIP3   OH274391   3.599   2.191  15.905  0.1470 -0.1820 -0.0380
17659TIP3    H174392   3.517   2.162  15.946  0.4276 -2.0564 -0.7070
17659TIP3    H274393   3.637   2.112  15.867  0.6078  1.1763 -2.6993
17660TIP3   OH274394   5.541   4.965  17.156  0.5656 -0.5400 -0.1233
17660TIP3    H174395   5.508   4.987  17.243  0.5716 -1.0109  0.0002
17660TIP3    H274396   5.587   5.043  17.127  1.4282 -0.7162  0.7204
17661TIP3   OH274397   2.972   2.424  11.859  0.3000 -0.2800 -0.7099
17661TIP3    H174398   3.029   2.466  11.923  0.5687  0.9196 -1.7081
17661TIP3    H274399   2.958   2.490  11.791 -1.0575 -1.0706 -1.2377
17662TIP3   OH274400   5.440   4.579   5.979  0.3872 -0.2164 -0.1753
17662TIP3    H174401   5.486   4.613   6.056 -0.0803 -1.1878  0.5563
17662TIP3    H274402   5.475   4.630   5.906  0.6375  0.9202  0.7021
17663TIP3   OH274403   4.484   0.603  15.356  0.7067 -0.0632  0.7821
17663TIP3    H174404   4.535   0.647  15.288  1.8282 -2.0992  0.2262
17663TIP3    H274405   4.393   0.624  15.336  1.1820  1.7535  0.4113
17664TIP3   OH274406   5.324   4.270   1.021  0.2123 -0.3160  0.1848
17664TIP3    H174407   5.402   4.231   1.061  0.3428  0.6963  0.9626
17664TIP3    H274408   5.355   4.351   0.982 -0.5413  0.3763  0.9864
17665TIP3   OH274409   2.856   2.834   0.141  0.2299 -0.3160 -0.1032
17665TIP3    H174410   2.918   2.761   0.154  0.8398 -0.1474 -1.8303
17665TIP3    H274411   2.782   2.794   0.094 -0.6894 -0.3600  1.3209
17666TIP3   OH274412   5.043   2.516   5.628 -0.8036  0.1080 -0.5589
17666TIP3    H174413   5.123   2.569   5.628 -1.4808  1.2198  0.9714
17666TIP3    H274414   5.003   2.533   5.543 -0.7797  1.7702 -0.2763
17667TIP3   OH274415   6.305   3.177  11.327  0.7405 -0.0660  0.3603
17667TIP3    H174416   6.265   3.094  11.353 -0.3071 -0.0714 -1.1168
17667TIP3    H274417   6.235   3.242  11.339  0.4768  0.0512 -1.5364
17668TIP3   OH274418   6.610   1.129   1.302 -0.3660  0.0511  0.1700
17668TIP3    H174419   6.517   1.123   1.283 -0.7964  0.9223  1.8103
17668TIP3    H274420   6.627   1.223   1.308 -0.0227 -0.0975  2.5485
17669TIP3   OH274421   1.717   2.095  13.219  0.2945 -0.1774 -0.0943
17669TIP3    H174422   1.646   2.138  13.172  0.7724  0.1043 -0.5702
17669TIP3    H274423   1.787   2.159  13.220  0.4202 -0.3212  0.6843
17670TIP3   OH274424   5.983   3.690  14.924 -0.3189 -0.1570  0.1474
17670TIP3    H174425   5.913   3.709  14.862 -0.0263 -0.4827 -0.2892
17670TIP3    H274426   5.943   3.700  15.011 -0.9156 -0.4183 -0.1024
17671TIP3   OH274427   4.158   3.629   1.718  0.3613 -0.5437  0.4516
17671TIP3    H174428   4.245   3.662   1.740  0.0289  0.0890  0.8524
17671TIP3    H274429   4.120   3.698   1.664  0.2383 -0.9840 -0.0369
17672TIP3   OH274430   0.094   3.280  16.738 -0.3408  0.2902  0.0748
17672TIP3    H174431  -0.001   3.292  16.745  0.0186  2.2746  3.2334
17672TIP3    H274432   0.110   3.193  16.775 -0.7669  1.1578  2.4956
17673TIP3   OH274433   3.959   5.819  17.568 -0.2434  0.3491 -0.2547
17673TIP3    H174434   3.915   5.862  17.495 -0.0384  0.1986 -0.4740
17673TIP3    H274435   3.997   5.740  17.528 -0.9128 -0.2189  0.2071
17674TIP3   OH274436   6.627   4.737  14.125 -0.0849  0.1678  0.2124
17674TIP3    H174437   6.698   4.751  14.062 -0.2292  0.1525  0.0435
17674TIP3    H274438   6.589   4.824  14.137 -0.5832  0.0416 -0.3582
17675TIP3   OH274439   3.025   1.079  12.918 -0.3921  0.5193  0.2960
17675TIP3    H174440   3.063   0.991  12.921  1.3008  1.2249  1.5414
17675TIP3    H274441   2.984   1.084  12.832  2.0179 -0.5016 -1.0318
17676TIP3   OH274442   0.317   3.204   0.867  0.6796  0.4198  0.2236
17676TIP3    H174443   0.333   3.134   0.931 -0.0349  0.0980  0.0536
17676TIP3    H274444   0.318   3.284   0.919 -1.7425  0.0306  1.0016
17677TIP3   OH274445   1.009   0.640  15.308 -0.5262 -0.2162 -0.5962
17677TIP3    H174446   0.937   0.682  15.260  0.0904  0.4055 -0.9916
17677TIP3    H274447   1.088   0.684  15.277  0.0082 -0.7012  0.0409
17678TIP3   OH274448   3.382   3.997  15.679  0.4838 -0.2657  0.4130
17678TIP3    H174449   3.392   4.087  15.646  2.6608 -1.1673 -1.6671
17678TIP3    H274450   3.453   3.987  15.743  0.2162 -0.5009  0.6741
17679TIP3   OH274451   3.799   0.686  15.721  0.0193 -0.2379  0.0428
17679TIP3    H174452   3.883   0.728  15.700 -0.3360  0.5365  0.1378
17679TIP3    H274453   3.745   0.700  15.643 -0.6741  1.0055  0.7210
17680TIP3   OH274454   3.671   1.436  12.190 -0.3076 -0.3309  0.0899
17680TIP3    H174455   3.757   1.478  12.193  0.2976 -1.5760  0.9524
17680TIP3    H274456   3.626   1.478  12.117  1.3636 -0.2608 -0.9468
17681TIP3   OH274457   5.614   0.035   3.569  0.0631  0.5474  0.3222
17681TIP3    H174458   5.664   0.060   3.492 -1.5278  2.7325 -0.1003
17681TIP3    H274459   5.585  -0.055   3.551  1.9326  0.0369 -0.3628
17682TIP3   OH274460   5.905   2.581  16.020 -0.6222 -0.5675  0.0908
17682TIP3    H174461   5.962   2.525  15.967  0.2059  0.0075  0.3477
17682TIP3    H274462   5.890   2.531  16.100  0.9122 -0.0602  0.7350
17683TIP3   OH274463   1.693   4.431  14.723  0.2177  0.3742  0.5457
17683TIP3    H174464   1.638   4.482  14.664  0.5946  1.0836  0.7949
17683TIP3    H274465   1.632   4.382  14.777 -0.1413 -1.0274 -1.0441
17684TIP3   OH274466   0.285   2.254  11.983 -0.2869  0.0151  0.6035
17684TIP3    H174467   0.289   2.337  11.936 -0.7855  0.4876  1.3712
17684TIP3    H274468   0.254   2.191  11.918 -0.9224  0.6464  0.2744
17685TIP3   OH274469   0.155   5.790   4.613 -0.0053  0.1224 -0.3948
17685TIP3    H174470   0.081   5.819   4.667 -1.4299 -2.4414 -0.8168
17685TIP3    H274471   0.136   5.825   4.526  0.9166  2.0068  0.1073
17686TIP3   OH274472   2.142   5.029  13.636  0.0352  0.1520  0.1661
17686TIP3    H174473   2.131   5.037  13.730 -1.3324 -0.1493  0.0469
17686TIP3    H274474   2.078   4.963  13.609  1.7426 -1.2392 -0.7151
17687TIP3   OH274475   0.431   4.918  11.995 -0.6723  0.3883 -0.3739
17687TIP3    H174476   0.502   4.974  12.028 -1.0261 -0.2308  1.6038
17687TIP3    H274477   0.470   4.871  11.922  1.2246 -0.4531  1.0847
17688TIP3   OH274478   3.298   2.171   1.475  0.2752 -0.2255 -0.3395
17688TIP3    H174479   3.320   2.194   1.385  0.8437  1.5313  0.2178
17688TIP3    H274480   3.213   2.127   1.468 -1.1525  2.4950 -1.4925
17689TIP3   OH274481   5.788   0.038   4.761  0.0154  0.4779 -0.3243
17689TIP3    H174482   5.818   0.094   4.832 -1.0525  0.7404 -0.0639
17689TIP3    H274483   5.826   0.077   4.682  0.2248  0.8868 -0.0238
17690TIP3   OH274484   0.775   4.769   4.448 -0.2379 -0.3833  0.3961
17690TIP3    H174485   0.754   4.825   4.522 -1.9726 -0.3001 -0.1029
17690TIP3    H274486   0.780   4.680   4.484 -0.4844 -0.2660  0.7193
17691TIP3   OH274487   6.550   1.292   6.097 -0.8725 -0.1938  0.7164
17691TIP3    H174488   6.528   1.385   6.089 -1.5087 -0.4948 -1.8530
17691TIP3    H274489   6.636   1.284   6.057 -1.5460 -0.9151 -0.6788
17692TIP3   OH274490   2.767   6.069   5.158  0.1814 -0.4564  0.0396
17692TIP3    H174491   2.848   6.028   5.188  0.4140 -1.9345 -2.3696
17692TIP3    H274492   2.700   6.003   5.174  0.0815 -0.6876 -1.2632
17693TIP3   OH274493   2.757   6.603   0.168  0.3126  0.3666  0.2889
17693TIP3    H174494   2.711   6.553   0.100  1.4211 -1.3364  0.7201
17693TIP3    H274495   2.697   6.604   0.242  0.9035 -1.9355  0.8887
17694TIP3   OH274496   6.365   4.062   2.020 -0.2793 -0.0130  0.0702
17694TIP3    H174497   6.347   3.968   2.022  0.7317 -0.2647 -1.0638
17694TIP3    H274498   6.344   4.088   1.930 -1.1011  0.9740  0.5314
17695TIP3   OH274499   4.310   3.332  17.484 -0.4572 -0.1211  0.3722
17695TIP3    H174500   4.393   3.380  17.479 -0.0626 -0.7124  0.9978
17695TIP3    H274501   4.245   3.393  17.450  0.2848  0.2229 -0.4647
17696TIP3   OH274502   5.003   1.653   0.327 -0.0822  0.2754 -0.4054
17696TIP3    H174503   4.942   1.579   0.327 -0.2022  0.3696 -0.0005
17696TIP3    H274504   4.988   1.696   0.243 -0.2854  0.0611 -0.4814
17697TIP3   OH274505   3.639   1.859   0.999 -0.1118 -0.0104 -0.2743
17697TIP3    H174506   3.661   1.950   1.022  1.7913 -0.4756 -0.0861
17697TIP3    H274507   3.690   1.842   0.919  0.6568 -1.3188  0.4583
17698TIP3   OH274508   5.526   0.654  11.346  0.1142  0.0031 -0.4098
17698TIP3    H174509   5.461   0.607  11.294 -1.2370  0.5340  0.7352
17698TIP3    H274510   5.575   0.706  11.282 -0.5784 -0.4042 -1.2936
17699TIP3   OH274511   5.807   5.145   0.515 -0.2051 -0.1049  0.4060
17699TIP3    H174512   5.784   5.210   0.582 -1.9011  0.8903 -1.0559
17699TIP3    H274513   5.822   5.197   0.436  1.0290 -1.3224 -0.1949
17700TIP3   OH274514   3.472   0.909   4.725 -0.4178 -0.1057  0.0699
17700TIP3    H174515   3.561   0.876   4.732  0.4035  1.9018 -0.2663
17700TIP3    H274516   3.477   1.000   4.753 -2.5087 -0.1160  0.6836
17701TIP3   OH274517   4.576   1.365   2.461 -0.0243 -0.2076  0.2631
17701TIP3    H174518   4.648   1.303   2.451 -0.2167 -0.7577  1.9585
17701TIP3    H274519   4.497   1.312   2.451 -0.3361  0.6416 -3.1802
17702TIP3   OH274520   1.540   4.704   3.777 -0.1709 -0.2951  0.4811
17702TIP3    H174521   1.468   4.660   3.732 -0.9950  0.4704  1.0078
17702TIP3    H274522   1.571   4.641   3.842 -0.5705 -0.5216  0.4504
17703TIP3   OH274523   4.098   3.218  13.762  0.5139  0.0578 -0.1613
17703TIP3    H174524   4.099   3.249  13.853  0.2918 -0.1895 -0.0722
17703TIP3    H274525   4.189   3.194  13.744  0.3165 -1.3297  0.5048
17704TIP3   OH274526   5.073   0.554  15.570 -0.7429  0.3803  0.0341
17704TIP3    H174527   5.028   0.479  15.610 -0.0254 -0.3365 -0.4641
17704TIP3    H274528   5.003   0.615  15.547 -1.5603 -0.9958 -1.3323
17705TIP3   OH274529   0.165   5.361  14.722  0.0807  0.5898 -0.0388
17705TIP3    H174530   0.213   5.286  14.686 -0.3005  0.8878 -1.1946
17705TIP3    H274531   0.191   5.363  14.814 -0.8827 -1.7346  0.3521
17706TIP3   OH274532   2.072   0.533   2.387 -0.1743  0.5051  0.4478
17706TIP3    H174533   2.071   0.438   2.374 -2.2087  0.2231  2.1311
17706TIP3    H274534   1.991   0.564   2.346  0.6341  1.5840 -0.3864
17707TIP3   OH274535   6.305   0.098  13.761  0.1723  0.4147  0.7412
17707TIP3    H174536   6.295   0.003  13.762 -0.5064  0.4818  2.0424
17707TIP3    H274537   6.249   0.129  13.832 -0.2861  1.8588 -0.2000
17708TIP3   OH274538   0.292   6.320  12.525 -0.0540 -0.7020 -0.0835
17708TIP3    H174539   0.213   6.350  12.571  0.0737 -1.5048  0.6732
17708TIP3    H274540   0.344   6.400  12.514  0.2365 -0.5625  1.8214
17709TIP3   OH274541   2.900   0.264  11.225 -0.3443  0.1522 -0.2229
17709TIP3    H174542   2.980   0.317  11.216 -0.2015  0.3713  1.8714
17709TIP3    H274543   2.931   0.180  11.259 -0.9324 -0.0077 -0.0673
17710TIP3   OH274544   3.010   5.399  11.750 -0.0790 -0.1760 -0.4229
17710TIP3    H174545   3.104   5.382  11.755  0.2298  1.2596 -0.9503
17710TIP3    H274546   2.979   5.344  11.679  0.7987  0.9768 -1.7497
17711TIP3   OH274547   0.041   0.031  12.147  0.0575 -0.2185  0.3676
17711TIP3    H174548   0.125   0.029  12.193 -0.3373  0.6263  1.1600
17711TIP3    H274549   0.058   0.083  12.068  0.7788 -1.8123 -0.5904
17712TIP3   OH274550   1.592   4.350   3.591 -0.6928  0.1079 -1.0009
17712TIP3    H174551   1.500   4.368   3.606 -0.5195 -0.2789  0.7766
17712TIP3    H274552   1.618   4.293   3.664  1.2845  1.3664 -0.6421
17713TIP3   OH274553   2.177   3.646   3.343 -0.1238 -0.4646  0.1256
17713TIP3    H174554   2.158   3.720   3.286  0.9420 -0.5968 -0.4333
17713TIP3    H274555   2.130   3.665   3.424  0.1846  0.8494  0.0156
17714TIP3   OH274556   6.303   4.752  11.410  0.6645  0.2248  0.1010
17714TIP3    H174557   6.279   4.800  11.331  0.0608 -1.3412 -0.7095
17714TIP3    H274558   6.322   4.663  11.380 -1.5759 -0.9826  1.9172
17715TIP3   OH274559   2.593   5.462   3.057 -0.1655 -0.6585  0.2186
17715TIP3    H174560   2.664   5.514   3.095 -1.3992  1.1022  0.2373
17715TIP3    H274561   2.634   5.414   2.986  1.0976  0.1652  0.3589
17716TIP3   OH274562   2.490   6.228   5.642 -0.1429  0.1011  0.1424
17716TIP3    H174563   2.416   6.284   5.668 -0.9630 -0.9795  0.1870
17716TIP3    H274564   2.468   6.142   5.677  1.2405 -0.2040  0.3134
17717TIP3   OH274565   0.415   3.503  14.155 -0.1910  0.3455  0.0356
17717TIP3    H174566   0.504   3.470  14.141 -0.2418  0.4645 -0.5867
17717TIP3    H274567   0.358   3.427  14.138 -0.3102  0.7338 -1.4315
17718TIP3   OH274568   0.601   0.034   1.597 -0.2490  0.3101  0.6910
17718TIP3    H174569   0.659   0.056   1.524  0.0260 -0.4863  0.6586
17718TIP3    H274570   0.634   0.087   1.670  0.9722 -0.6026  0.8526
17719TIP3   OH274571   0.892   3.146  17.453 -0.2166  0.0516  0.0417
17719TIP3    H174572   0.976   3.167  17.492 -0.3054 -1.3901  1.1121
17719TIP3    H274573   0.832   3.138  17.528 -1.2370  0.7003 -0.6707
17720TIP3   OH274574   6.479   6.588   5.409 -0.3073 -0.0097  0.6020
17720TIP3    H174575   6.529   6.526   5.356 -0.4259 -0.4662  1.0148
17720TIP3    H274576   6.516   6.579   5.497  0.4004  1.2936  0.4571
17721TIP3   OH274577   0.699   4.623  15.617  0.4421  0.0225  0.0813
17721TIP3    H174578   0.763   4.561  15.651  1.3962  0.6133 -0.5825
17721TIP3    H274579   0.615   4.577  15.623  0.7236 -0.2799  2.1971
17722TIP3   OH274580   3.205   1.068   4.307 -0.3911 -0.7291  0.0890
17722TIP3    H174581   3.227   1.134   4.241  1.1153 -2.4627 -1.2722
17722TIP3    H274582   3.119   1.036   4.282  0.3758 -1.7222 -1.4133
17723TIP3   OH274583   1.618   1.100  15.961 -0.2198  0.4877 -0.2361
17723TIP3    H174584   1.533   1.131  15.930 -0.6204 -0.2887  0.0614
17723TIP3    H274585   1.670   1.179  15.971 -1.0548  1.0194  0.0213
17724TIP3   OH274586   1.247   4.176  14.614  0.3214  0.7427  0.1701
17724TIP3    H174587   1.328   4.223  14.635  0.2895  1.0801 -0.4528
17724TIP3    H274588   1.181   4.220  14.667  0.4981  0.6054  0.5150
17725TIP3   OH274589   0.225   2.452  12.735  0.1356  0.7540  0.5554
17725TIP3    H174590   0.235   2.547  12.735 -1.2016  0.9230  0.7592
17725TIP3    H274591   0.314   2.418  12.735  0.6536  1.9988 -0.6020
17726TIP3   OH274592   2.799   2.967   5.333 -0.1196  0.1030 -0.1978
17726TIP3    H174593   2.722   2.917   5.304 -0.4972  0.3002  0.4194
17726TIP3    H274594   2.770   3.058   5.332  0.7718  0.3952 -1.9408
17727TIP3   OH274595   1.178   1.549   4.378 -0.1391 -0.3653  0.0275
17727TIP3    H174596   1.145   1.583   4.294  0.9370 -0.4009 -0.4271
17727TIP3    H274597   1.099   1.523   4.426 -0.8233  0.3911 -0.6504
17728TIP3   OH274598   5.577   6.363  12.692 -0.4491  0.7068 -0.4834
17728TIP3    H174599   5.510   6.424  12.660 -0.7692 -0.2325 -1.6658
17728TIP3    H274600   5.644   6.364  12.624  1.1137  2.1458  0.9999
17729TIP3   OH274601   0.763   1.331  15.318  0.2470  0.3672 -0.1547
17729TIP3    H174602   0.806   1.269  15.378 -0.3666 -0.9528 -1.0176
17729TIP3    H274603   0.693   1.370  15.370 -1.1372 -1.7393 -0.2883
17730TIP3   OH274604   2.154   4.521  14.427 -0.1827  0.4358  0.7866
17730TIP3    H174605   2.080   4.512  14.486 -1.4819 -0.4546 -0.8782
17730TIP3    H274606   2.114   4.536  14.341  1.6158  1.9907  0.1405
17731TIP3   OH274607   5.201   1.420  12.886  0.3820  0.3438  0.2260
17731TIP3    H174608   5.227   1.483  12.954 -2.4659  0.8827  0.9294
17731TIP3    H274609   5.235   1.458  12.805  2.0646  0.7547  1.0653
17732TIP3   OH274610   3.569   2.953   1.581 -0.7584 -0.6318  0.4939
17732TIP3    H174611   3.474   2.937   1.579 -0.4527 -2.6421 -0.3572
17732TIP3    H274612   3.585   3.005   1.502 -1.4017  1.7680  1.8405
17733TIP3   OH274613   5.554   0.860  14.699 -0.6407 -0.6121 -0.6496
17733TIP3    H174614   5.518   0.773  14.719 -1.5198 -0.2374 -0.5994
17733TIP3    H274615   5.610   0.880  14.774 -3.0070  0.2777  1.0049
17734TIP3   OH274616   0.994   3.219   6.383  0.5501 -0.3678 -0.2503
17734TIP3    H174617   1.075   3.232   6.431  0.8145 -1.9284 -0.1938
17734TIP3    H274618   0.947   3.151   6.432 -0.3280 -0.1890 -0.8112
17735TIP3   OH274619   1.150   4.854   4.204 -0.1069  0.9924  0.0136
17735TIP3    H174620   1.189   4.849   4.117  0.3223  1.1868  0.1920
17735TIP3    H274621   1.163   4.766   4.241 -1.4803  0.5010 -0.6129
17736TIP3   OH274622   5.817   2.109  12.209 -0.3391 -0.0915  0.1659
17736TIP3    H174623   5.733   2.145  12.238 -0.5223 -0.5436  0.2062
17736TIP3    H274624   5.836   2.155  12.127 -0.7563 -0.1654  0.0247
17737TIP3   OH274625   3.000   0.597   4.390  0.3468  0.1309 -0.5310
17737TIP3    H174626   2.930   0.637   4.339 -0.0526  0.2159  0.0681
17737TIP3    H274627   2.994   0.503   4.369 -0.7848 -0.0534  0.4662
17738TIP3   OH274628   5.733   0.540  12.830 -0.4556  0.1096 -0.1809
17738TIP3    H174629   5.808   0.483  12.813  0.7227  1.5942 -0.1199
17738TIP3    H274630   5.687   0.545  12.746  0.4217  0.4477 -0.6475
17739TIP3   OH274631   5.443   5.411   1.390  0.5863  0.0683 -0.1327
17739TIP3    H174632   5.482   5.498   1.386  1.5146 -0.2487  1.3788
17739TIP3    H274633   5.363   5.423   1.440  1.7964 -0.2638  1.9876
17740TIP3   OH274634   1.852   6.319  10.869  0.8760 -0.0776  0.0956
17740TIP3    H174635   1.824   6.246  10.924 -0.5495 -0.1214 -0.6420
17740TIP3    H274636   1.809   6.303  10.785  1.6123  0.9204 -0.4931
17741TIP3   OH274637   1.796   1.804   2.619  0.0068  0.3395 -0.1805
17741TIP3    H174638   1.829   1.735   2.562  1.0419  0.1114  0.6384
17741TIP3    H274639   1.800   1.883   2.566  0.8718  0.1215 -0.4711
17742TIP3   OH274640   5.993   0.965  13.183 -0.4753 -0.2141 -0.1268
17742TIP3    H174641   6.040   1.026  13.125  1.0078 -1.7083 -0.5586
17742TIP3    H274642   5.942   1.022  13.241  0.1937  1.4073 -1.0596
17743TIP3   OH274643   5.139   2.449  17.347 -0.3831  0.0989  0.8581
17743TIP3    H174644   5.095   2.389  17.287  0.7533  0.5701 -0.4936
17743TIP3    H274645   5.225   2.411  17.361 -0.2982  0.4901  1.4408
17744TIP3   OH274646   4.903   2.608  17.267  0.1529  0.0634 -0.1609
17744TIP3    H174647   4.973   2.556  17.307  0.4612  0.0226 -0.7526
17744TIP3    H274648   4.826   2.590  17.323 -0.6320 -3.6564 -2.1175
17745TIP3   OH274649   2.715   5.451  11.686  0.2763 -0.0931  0.6640
17745TIP3    H174650   2.739   5.433  11.776 -0.4967  0.0172  0.8958
17745TIP3    H274651   2.697   5.544  11.684 -2.2789 -0.5222  1.0249
17746TIP3   OH274652   3.150   2.901  12.132  0.3999  0.2032 -0.1150
17746TIP3    H174653   3.110   2.984  12.160 -0.9871 -0.1297 -0.9835
17746TIP3    H274654   3.120   2.837  12.197 -1.2206 -0.1982 -1.1923
17747TIP3   OH274655   2.309   6.707   1.198 -0.4022  0.1493 -0.1522
17747TIP3    H174656   2.267   6.674   1.118  1.6388 -0.5772 -1.0170
17747TIP3    H274657   2.268   6.659   1.269 -1.3086 -0.2045 -0.8968
17748TIP3   OH274658   2.553   0.722   5.697  0.5304 -0.2792 -0.3427
17748TIP3    H174659   2.610   0.645   5.699 -0.4380 -1.0115  0.0939
17748TIP3    H274660   2.600   0.788   5.749  1.6020 -0.3895 -1.1391
17749TIP3   OH274661   0.588   5.647  14.809  0.4219  0.0046 -0.3436
17749TIP3    H174662   0.656   5.714  14.799  0.7485 -0.3578 -0.5960
17749TIP3    H274663   0.559   5.629  14.720  2.5934 -2.4826 -0.6671
17750TIP3   OH274664   5.615   6.436  14.886 -0.2401 -0.1956 -0.4974
17750TIP3    H174665   5.669   6.478  14.953 -2.5340  0.4606  1.0390
17750TIP3    H274666   5.561   6.373  14.933 -2.9019  1.2500 -1.4049
17751TIP3   OH274667   5.915   0.806   4.862  0.2927  0.2444 -0.5364
17751TIP3    H174668   5.876   0.857   4.933  1.4598  1.9544 -1.0328
17751TIP3    H274669   5.895   0.856   4.783  0.0188 -0.9997 -1.2801
17752TIP3   OH274670   2.762   1.264  17.231  0.1695 -0.8388 -0.1114
17752TIP3    H174671   2.670   1.276  17.256  0.5355 -0.8526  1.3557
17752TIP3    H274672   2.779   1.333  17.168 -1.0998 -1.4254 -1.1453
17753TIP3   OH274673   2.612   5.553  14.102 -0.0749  0.3391 -0.1508
17753TIP3    H174674   2.672   5.604  14.048 -0.4423 -0.6602 -1.5636
17753TIP3    H274675   2.595   5.474  14.050 -1.7764  0.1204  0.6854
17754TIP3   OH274676   5.243   2.183   3.445  0.2548  0.6816  0.7591
17754TIP3    H174677   5.315   2.200   3.505  1.8494  0.2627 -0.9331
17754TIP3    H274678   5.286   2.158   3.363 -1.8261  0.7515 -0.4166
17755TIP3   OH274679   5.773   0.070   6.920 -0.1592 -0.3156 -0.6399
17755TIP3    H174680   5.730   0.155   6.915  0.0886 -0.1434  0.0158
17755TIP3    H274681   5.736   0.030   6.999  0.0632 -0.6239 -0.6918
17756TIP3   OH274682   1.328   2.766   5.838  0.5717 -0.0171 -0.0788
17756TIP3    H174683   1.315   2.783   5.745  1.1917 -1.0021 -0.3640
17756TIP3    H274684   1.270   2.692   5.857  1.6241 -0.8584 -0.0707
17757TIP3   OH274685   1.655   5.611   4.185 -0.1493  0.4702 -0.5464
17757TIP3    H174686   1.664   5.518   4.205  0.3275  1.0131  2.1198
17757TIP3    H274687   1.732   5.653   4.224 -1.4999  2.2283  0.4099
17758TIP3   OH274688   0.972   5.672   0.577  0.5125 -0.6123 -0.0506
17758TIP3    H174689   0.953   5.735   0.646  0.9914  0.3863 -0.8059
17758TIP3    H274690   1.054   5.631   0.604  0.4588 -0.5512  0.2053
17759TIP3   OH274691   1.640   2.495  11.332  0.3010  0.6363  0.6929
17759TIP3    H174692   1.651   2.583  11.295 -4.9745 -0.0303 -3.7770
17759TIP3    H274693   1.590   2.509  11.412 -0.0420  1.7744  0.3064
17760TIP3   OH274694   3.491   6.154  11.838 -0.0841  0.4130  0.4290
17760TIP3    H174695   3.558   6.091  11.864  0.3112  0.1213 -1.1449
17760TIP3    H274696   3.534   6.240  11.847  0.7005  0.2030 -0.9906
17761TIP3   OH274697   0.573   4.324   5.269 -0.3098  0.3452  0.1347
17761TIP3    H174698   0.484   4.345   5.241 -0.0398  1.4992  0.0986
17761TIP3    H274699   0.628   4.349   5.196  0.0942  0.0803  0.3429
17762TIP3   OH274700   1.696   2.582  17.137  0.0052 -0.0314 -0.5964
17762TIP3    H174701   1.750   2.600  17.214 -0.7808 -0.7985  0.1461
17762TIP3    H274702   1.606   2.583  17.170 -0.4607  1.1265 -1.7956
17763TIP3   OH274703   5.056   4.270   2.247  0.4074 -0.1108  0.2761
17763TIP3    H174704   5.136   4.271   2.196  0.4015 -2.2870  0.1358
17763TIP3    H274705   5.048   4.180   2.278 -2.2905 -0.1326 -0.2413
17764TIP3   OH274706   1.090   5.588   3.532  0.0820 -0.9641 -0.2613
17764TIP3    H174707   1.055   5.573   3.445  0.1260 -1.5839 -0.1758
17764TIP3    H274708   1.026   5.645   3.574 -0.0099 -0.7804 -0.6475
17765TIP3   OH274709   1.810   1.200   1.787  0.0651  0.0370  0.0711
17765TIP3    H174710   1.862   1.235   1.859  1.3982  0.7225 -1.1746
17765TIP3    H274711   1.749   1.270   1.765  0.2946  0.1861 -0.0861
17766TIP3   OH274712   0.412   5.784  10.983  0.3709 -0.0614  0.2459
17766TIP3    H174713   0.399   5.873  10.950 -1.5564  0.2558  1.7078
17766TIP3    H274714   0.478   5.793  11.051 -0.0171  0.3123  0.5765
17767TIP3   OH274715   3.535   0.982  10.911  0.3265 -0.2499 -0.1922
17767TIP3    H174716   3.461   1.022  10.866 -0.4392 -1.6218 -0.1977
17767TIP3    H274717   3.610   0.999  10.853  0.0194  1.0457 -0.2417
17768TIP3   OH274718   3.901   1.680   0.764 -1.0150 -0.2587  0.2444
17768TIP3    H174719   3.826   1.733   0.735 -1.0561  0.8025  2.1458
17768TIP3    H274720   3.862   1.598   0.795 -1.1194 -0.7215 -1.0364
17769TIP3   OH274721   5.462   4.838  15.303  0.2080 -0.7024  0.6346
17769TIP3    H174722   5.494   4.927  15.319 -0.3550 -0.6127  1.3535
17769TIP3    H274723   5.513   4.807  15.228 -0.6526  0.7763 -0.6268
17770TIP3   OH274724   3.006   3.913   1.184  0.0423 -0.2935 -0.4452
17770TIP3    H174725   3.093   3.947   1.164 -0.3912 -0.0110 -1.9235
17770TIP3    H274726   3.008   3.822   1.156 -0.1372 -0.2879 -0.4792
17771TIP3   OH274727   0.877   5.092  16.028 -0.3636  0.4061  0.4377
17771TIP3    H174728   0.930   5.073  16.106 -0.6023 -0.1059  0.4805
17771TIP3    H274729   0.931   5.063  15.955 -0.0301  1.1298  0.3921
17772TIP3   OH274730   5.448   6.143   0.932  0.1350  0.8641  0.3452
17772TIP3    H174731   5.493   6.177   0.855  0.1103  0.8422  0.3209
17772TIP3    H274732   5.510   6.156   1.004 -0.2141  1.7698  0.4932
17773TIP3   OH274733   5.948   5.172   4.104  0.2330 -0.5398  0.2942
17773TIP3    H174734   6.018   5.153   4.166 -1.2285  2.2050  3.0568
17773TIP3    H274735   5.868   5.146   4.149 -0.8282  0.2340 -1.0618
17774TIP3   OH274736   5.212   0.298  13.069 -0.2953 -0.3031 -0.1976
17774TIP3    H174737   5.281   0.357  13.100  0.5363 -1.6473  0.6026
17774TIP3    H274738   5.258   0.217  13.046 -1.6220 -1.3601  0.7077
17775TIP3   OH274739   0.715   0.234  16.376 -0.2381  0.1762  0.1777
17775TIP3    H174740   0.658   0.263  16.304 -0.5466 -1.7746 -0.4320
17775TIP3    H274741   0.765   0.162  16.339  1.1583  0.5040  1.3382
17776TIP3   OH274742   0.778   4.610  13.520  0.0257 -0.1111 -0.4744
17776TIP3    H174743   0.844   4.592  13.454  1.5081  3.3481 -0.1364
17776TIP3    H274744   0.709   4.657  13.473 -0.3604 -0.2947 -0.1011
17777TIP3   OH274745   1.755   0.856  16.575  0.0752  0.0257 -0.3372
17777TIP3    H174746   1.829   0.913  16.598 -0.5641  0.1139  1.6736
17777TIP3    H274747   1.727   0.888  16.489  0.6597  1.7906  0.0735
17778TIP3   OH274748   6.616   5.377  11.249  0.0209  0.6275  0.2588
17778TIP3    H174749   6.627   5.322  11.172 -2.8610 -0.7853  0.7290
17778TIP3    H274750   6.537   5.343  11.292 -0.0865  3.1678  2.3073
17779TIP3   OH274751   0.441   2.088   0.939  0.1288  0.5787  0.5739
17779TIP3    H174752   0.536   2.100   0.935 -0.0845  2.8968  0.9483
17779TIP3    H274753   0.410   2.113   0.853 -0.0708 -1.9195 -0.1630
17780TIP3   OH274754   5.052   1.232  15.963  0.4008 -0.5402 -0.2040
17780TIP3    H174755   5.050   1.221  15.868  0.7486 -2.3054 -0.0444
17780TIP3    H274756   4.993   1.306  15.980 -0.3201 -0.7298 -1.7260
17781TIP3   OH274757   5.986   6.408  11.506  0.1778  0.2418 -0.4286
17781TIP3    H174758   5.982   6.478  11.441 -0.8632  0.5121 -0.0907
17781TIP3    H274759   5.962   6.450  11.588  1.5131 -0.0876  0.1622
17782TIP3   OH274760   6.535   2.144  11.099 -0.0825 -0.2037  0.4016
17782TIP3    H174761   6.584   2.068  11.069 -0.8418 -0.5462 -0.0125
17782TIP3    H274762   6.463   2.152  11.037 -1.7288 -0.9658  2.0794
17783TIP3   OH274763   3.851   4.125   3.880  0.6522  0.0156 -0.0528
17783TIP3    H174764   3.824   4.174   3.958 -0.1265 -0.6943  0.1371
17783TIP3    H274765   3.917   4.180   3.839 -1.0556  1.8731 -0.5129
17784TIP3   OH274766   0.627   2.783  11.271 -0.1313 -0.3834 -0.5801
17784TIP3    H174767   0.574   2.853  11.310 -0.2901 -0.4851 -0.6114
17784TIP3    H274768   0.679   2.827  11.204  2.8366  0.5173  2.0717
17785TIP3   OH274769   5.171   6.392  10.932  0.1376  0.2993  0.5487
17785TIP3    H174770   5.103   6.348  10.983  0.0376  0.5460  0.6297
17785TIP3    H274771   5.150   6.370  10.841 -1.0619  1.7568  0.4387
17786TIP3   OH274772   3.865   4.178  13.691  0.3121 -0.7494  0.3184
17786TIP3    H174773   3.916   4.195  13.612 -0.4254 -0.0323 -0.0314
17786TIP3    H274774   3.929   4.150  13.756  0.8378 -2.1735 -0.7513
17787TIP3   OH274775   4.216   6.334  15.558 -0.1012  0.1815 -0.4217
17787TIP3    H174776   4.262   6.404  15.511 -0.4569  0.1804 -0.7721
17787TIP3    H274777   4.235   6.255  15.508 -0.5034  0.1848 -0.5851
17788TIP3   OH274778   6.280   1.464   6.840  0.5083  0.5607  0.4133
17788TIP3    H174779   6.190   1.453   6.870  1.3149 -3.0223  2.0526
17788TIP3    H274780   6.279   1.432   6.750  0.4813 -1.8505  1.2055
17789TIP3   OH274781   1.315   2.612   2.082  0.1374 -0.3289 -0.0289
17789TIP3    H174782   1.223   2.600   2.106  0.3104 -1.1261  0.2391
17789TIP3    H274783   1.330   2.548   2.012 -0.0200  1.1126 -1.4502
17790TIP3   OH274784   2.681   3.900  17.294  0.7361 -0.3305  0.6145
17790TIP3    H174785   2.654   3.899  17.202 -2.0054 -1.7636  1.3145
17790TIP3    H274786   2.731   3.820  17.305  0.1949 -0.6762  0.5834
17791TIP3   OH274787   5.029   6.034   0.300  0.1336 -0.2771 -0.3447
17791TIP3    H174788   5.025   5.947   0.340  0.1539 -0.7241 -1.2987
17791TIP3    H274789   5.040   6.094   0.374  0.6403 -1.1251  0.2755
17792TIP3   OH274790   2.485   4.946  17.277 -0.0733  0.8392  0.1872
17792TIP3    H174791   2.405   4.899  17.253  0.6352 -1.4976  1.9605
17792TIP3    H274792   2.485   4.946  17.373  1.5064  1.7939  0.2186
17793TIP3   OH274793   0.696   1.652   4.250 -0.2476  0.2896  0.9898
17793TIP3    H174794   0.632   1.619   4.313 -0.4975  0.0977  0.6347
17793TIP3    H274795   0.761   1.582   4.242 -0.8917 -0.2165  0.0740
17794TIP3   OH274796   3.690   5.965   0.399 -0.4479 -0.5668  0.9711
17794TIP3    H174797   3.693   5.895   0.334  1.8111  0.9014 -0.6226
17794TIP3    H274798   3.707   5.922   0.482 -0.0330 -2.0211  0.1528
17795TIP3   OH274799   2.017   3.265   1.365  0.2397  0.1049 -0.4381
17795TIP3    H174800   2.036   3.180   1.326  2.0899  0.7315 -1.0052
17795TIP3    H274801   1.956   3.246   1.436 -2.0867 -1.2591 -2.6401
17796TIP3   OH274802   5.752   0.945   4.690 -0.1902 -0.4617  0.3173
17796TIP3    H174803   5.701   1.007   4.637  2.0644  0.5316 -0.7968
17796TIP3    H274804   5.692   0.872   4.704 -1.5894  0.1582 -1.8619
17797TIP3   OH274805   6.194   0.616  12.840 -0.0116 -0.1115  0.0030
17797TIP3    H174806   6.135   0.633  12.765  0.4445  0.2643 -0.2792
17797TIP3    H274807   6.144   0.646  12.916  0.2938  1.4377 -0.3626
17798TIP3   OH274808   5.507   2.469  12.036  0.1469 -0.1184  0.2043
17798TIP3    H174809   5.468   2.541  11.986 -0.3569  0.7777  1.8151
17798TIP3    H274810   5.452   2.393  12.014 -0.0105  0.2226 -0.6501
17799TIP3   OH274811   6.593   0.433  13.739  0.1655 -0.4313  0.0234
17799TIP3    H174812   6.605   0.407  13.831  0.2515  0.8422  0.3920
17799TIP3    H274813   6.680   0.463  13.711 -0.2043  0.7300  0.0521
17800TIP3   OH274814   1.226   3.429   3.306  0.0732  0.0708 -0.2000
17800TIP3    H174815   1.167   3.424   3.231  0.8325 -0.0244 -0.8087
17800TIP3    H274816   1.278   3.508   3.289 -0.7284  0.8993  0.9815
17801TIP3   OH274817   3.258   2.274   4.440 -0.1694 -0.2654  1.1007
17801TIP3    H174818   3.321   2.338   4.410 -0.5956 -0.4157 -0.1838
17801TIP3    H274819   3.202   2.321   4.502 -0.1651  0.4698  0.5517
17802TIP3   OH274820   0.054   5.638  11.519  0.4026  0.8153  0.2517
17802TIP3    H174821   0.148   5.620  11.520 -0.0969 -2.5238  0.6486
17802TIP3    H274822   0.043   5.714  11.575  2.7883  0.6948  0.9876
17803TIP3   OH274823   1.078   4.462  10.799  0.2405 -0.7191 -0.1535
17803TIP3    H174824   1.075   4.368  10.784 -0.9726 -0.7823  0.3502
17803TIP3    H274825   1.167   4.488  10.775  0.9248 -2.1642  0.7558
17804TIP3   OH274826   1.645   1.650   3.256 -0.2745 -0.0630 -0.2979
17804TIP3    H174827   1.691   1.576   3.216 -2.1356 -1.4863  0.0504
17804TIP3    H274828   1.659   1.722   3.195  0.5399 -1.0273 -1.3015
17805TIP3   OH274829   3.020   5.630   1.441  0.1512 -0.1930  0.5154
17805TIP3    H174830   3.071   5.707   1.466 -0.3540 -0.1372  1.3939
17805TIP3    H274831   3.016   5.634   1.345  1.8074 -0.2120  0.4090
17806TIP3   OH274832   3.821   2.364  16.858  0.3924  0.4537 -0.0621
17806TIP3    H174833   3.814   2.433  16.924  0.6240 -1.0722  1.6277
17806TIP3    H274834   3.844   2.410  16.778  1.6367  2.2453  1.2431
17807TIP3   OH274835   5.494   3.827   0.167 -0.0171  0.1974  0.0139
17807TIP3    H174836   5.572   3.772   0.173  0.3516  0.8329  1.4192
17807TIP3    H274837   5.449   3.797   0.088  1.4947 -0.3773 -0.6565
17808TIP3   OH274838   2.378   0.284  13.613 -0.1412 -0.4403  0.0119
17808TIP3    H174839   2.288   0.283  13.644 -0.3324  1.8931 -0.3012
17808TIP3    H274840   2.372   0.304  13.519  0.6682 -1.2531 -0.2313
17809TIP3   OH274841   1.026   0.391   5.440  0.2613 -0.6485 -0.0910
17809TIP3    H174842   1.032   0.339   5.360 -0.7312  1.1827 -1.4469
17809TIP3    H274843   0.950   0.355   5.487 -1.2591  0.3280 -1.6722
17810TIP3   OH274844   0.791   1.776   3.048  0.0326 -0.1010  0.0636
17810TIP3    H174845   0.873   1.726   3.046  0.0163 -0.1447  0.3733
17810TIP3    H274846   0.784   1.815   2.961  0.3830 -0.0945  0.0383
17811TIP3   OH274847   4.752   0.780   0.981  0.8795  0.3817  0.5734
17811TIP3    H174848   4.821   0.845   0.975  1.1175  0.0709 -0.1742
17811TIP3    H274849   4.671   0.829   0.969  1.0426  0.5818  0.2933
17812TIP3   OH274850   4.667   2.194  14.798  0.0099  0.2410  0.3547
17812TIP3    H174851   4.700   2.133  14.732 -0.2648 -0.1913  0.6145
17812TIP3    H274852   4.573   2.177  14.803 -0.4332  1.9883 -0.9269
17813TIP3   OH274853   1.027   1.811  11.572  0.0139 -0.2331 -0.3596
17813TIP3    H174854   0.962   1.880  11.557 -0.6028 -0.6326  0.3849
17813TIP3    H274855   1.029   1.761  11.491 -0.0314  0.2518 -0.6618
17814TIP3   OH274856   5.131   5.243  14.459 -0.3499  0.4658  0.2163
17814TIP3    H174857   5.201   5.178  14.461 -0.1299  0.7144  1.6168
17814TIP3    H274858   5.143   5.288  14.375  0.8866  0.1976  0.2262
17815TIP3   OH274859   5.698   5.940   4.424 -0.1503  0.2280  0.5761
17815TIP3    H174860   5.719   5.859   4.377 -1.1064 -0.7697  1.7837
17815TIP3    H274861   5.651   5.994   4.360 -1.5032 -1.1428  0.3504
17816TIP3   OH274862   5.503   1.125  12.159 -0.0897  0.0911  0.8616
17816TIP3    H174863   5.568   1.103  12.092 -0.5659 -0.3606  0.5303
17816TIP3    H274864   5.553   1.148  12.236  0.4688  0.2753  0.4492
17817TIP3   OH274865   0.405   5.388   3.344  0.1264  0.3297 -0.4530
17817TIP3    H174866   0.452   5.338   3.277 -0.5698  0.5114 -1.0918
17817TIP3    H274867   0.456   5.469   3.354 -0.0890  0.5711 -1.2159
17818TIP3   OH274868   3.853   5.332  15.963 -0.0014 -0.3441 -0.1264
17818TIP3    H174869   3.932   5.279  15.975 -1.7715 -3.2202 -0.2111
17818TIP3    H274870   3.837   5.330  15.869 -1.1485 -1.4202  0.0643
17819TIP3   OH274871   6.332   5.546  14.751 -0.3095  0.0747  0.8377
17819TIP3    H174872   6.396   5.614  14.773  0.3481 -0.3293  0.2059
17819TIP3    H274873   6.377   5.490  14.688 -1.4180 -0.0176  0.1132
17820TIP3   OH274874   2.162   4.872  13.958 -0.4323 -0.0669 -0.7689
17820TIP3    H174875   2.102   4.856  14.031  0.6110 -1.4673 -0.1933
17820TIP3    H274876   2.128   4.818  13.887 -1.2185  0.9985 -1.2452
17821TIP3   OH274877   5.801   2.192  15.379  0.3810 -0.4279 -0.6760
17821TIP3    H174878   5.847   2.113  15.350  0.7902 -0.8717  1.0765
17821TIP3    H274879   5.822   2.257  15.313  1.7257 -1.2295 -1.0876
17822TIP3   OH274880   2.002   5.803   6.360 -0.6395  0.0893  0.0030
17822TIP3    H174881   2.050   5.871   6.406 -1.0857  0.8729 -0.6638
17822TIP3    H274882   2.028   5.721   6.403  0.0270  0.6604  0.7006
17823TIP3   OH274883   0.113   3.324  12.745 -0.0315 -0.0527 -0.0242
17823TIP3    H174884   0.020   3.301  12.742  0.0362 -0.3836  0.3179
17823TIP3    H274885   0.143   3.290  12.829 -0.0397  1.7684  0.7557
17824TIP3   OH274886   3.261   4.654  16.909  0.0555  0.3848  0.3659
17824TIP3    H174887   3.303   4.728  16.951 -0.0756 -0.2281  1.6365
17824TIP3    H274888   3.171   4.683  16.893  0.8374  1.6411 -2.2173
17825TIP3   OH274889   5.350   5.522   1.712  0.1380 -0.0467 -0.1059
17825TIP3    H174890   5.325   5.458   1.779  1.6232 -1.1779 -0.5711
17825TIP3    H274891   5.335   5.607   1.753  0.3023 -0.7107  1.3835
17826TIP3   OH274892   1.607   0.310  14.609 -0.3068  0.4797 -0.2686
17826TIP3    H174893   1.659   0.390  14.613  0.5991 -0.0640 -0.8406
17826TIP3    H274894   1.532   0.333  14.554  0.9679  0.4077 -2.1259
17827TIP3   OH274895   4.249   4.910   0.514  0.0337 -0.1101 -0.5600
17827TIP3    H174896   4.280   4.970   0.581  0.1200  0.3751 -1.0247
17827TIP3    H274897   4.163   4.882   0.544 -0.3936  0.9462 -0.7705
17828TIP3   OH274898   3.696   0.133  14.898 -0.2777  0.0554  0.2712
17828TIP3    H174899   3.758   0.068  14.929  0.5083 -0.0485 -1.3948
17828TIP3    H274900   3.687   0.195  14.970  1.0939 -0.4056  0.8658
17829TIP3   OH274901   0.853   1.348   5.870  0.4403 -0.6669 -0.1086
17829TIP3    H174902   0.872   1.367   5.961 -0.7857  0.2040  0.0021
17829TIP3    H274903   0.935   1.314   5.834  1.2291 -0.0654  1.0574
17830TIP3   OH274904   4.732   0.579  17.238  0.0787  0.2656  0.8342
17830TIP3    H174905   4.808   0.589  17.296  0.2348 -0.4731  0.7661
17830TIP3    H274906   4.657   0.595  17.295  0.2824  3.0098  0.5003
17831TIP3   OH274907   5.367   1.210   1.567 -0.9149 -0.1972 -0.0951
17831TIP3    H174908   5.407   1.124   1.574 -0.2052  0.1540  0.3195
17831TIP3    H274909   5.332   1.228   1.655  2.0818  1.3982  0.9238
17832TIP3   OH274910   2.127   2.745   5.188 -0.2656 -0.4414 -0.2827
17832TIP3    H174911   2.182   2.688   5.243  2.5266  2.1636 -0.1087
17832TIP3    H274912   2.167   2.741   5.102 -1.2309 -0.2212 -0.7508
17833TIP3   OH274913   5.929   5.917  15.144 -0.4651 -0.1479  0.3848
17833TIP3    H174914   5.962   6.004  15.164  0.1982 -0.0549 -0.9701
17833TIP3    H274915   5.859   5.902  15.207  0.4423  0.7188  1.6420
17834TIP3   OH274916   3.465   2.391   0.758  0.4200  0.2369  0.2831
17834TIP3    H174917   3.456   2.475   0.803  1.2438 -0.7956  2.5229
17834TIP3    H274918   3.531   2.406   0.691  0.1852  1.4809  0.3072
17835TIP3   OH274919   3.445   3.270  13.889 -0.3614 -0.1779 -0.0732
17835TIP3    H174920   3.528   3.302  13.854 -0.5841  0.2420 -0.2160
17835TIP3    H274921   3.471   3.214  13.962  0.0283  0.3769  0.2205
17836TIP3   OH274922   1.775   1.064  11.538  0.1835  0.3140 -0.4325
17836TIP3    H174923   1.749   1.026  11.623  1.9273  2.5211  1.2258
17836TIP3    H274924   1.861   1.026  11.520  0.4007  0.8394 -0.5192
17837TIP3   OH274925   6.375   5.557   5.268 -0.0834 -0.1960 -0.4216
17837TIP3    H174926   6.464   5.532   5.241 -0.7286 -0.2214 -2.7245
17837TIP3    H274927   6.388   5.633   5.325  1.4112 -0.0712 -0.8817
17838TIP3   OH274928   2.289   3.543  11.522 -0.7809 -0.1193 -0.2121
17838TIP3    H174929   2.321   3.536  11.612 -0.5681  1.0108 -0.1918
17838TIP3    H274930   2.348   3.486  11.472  0.0143  0.3867  0.1377
17839TIP3   OH274931   3.043   0.684  13.114 -0.0323  0.4718 -0.6808
17839TIP3    H174932   3.136   0.699  13.135  0.4849 -1.4629 -1.3725
17839TIP3    H274933   2.999   0.687  13.199  0.9250 -0.2079 -0.1345
17840TIP3   OH274934   2.352   3.658  11.854 -0.0976 -0.2708 -0.6456
17840TIP3    H174935   2.418   3.709  11.808 -0.0458  0.3600  0.1063
17840TIP3    H274936   2.397   3.578  11.882 -0.0402 -0.4955 -1.3709
17841TIP3   OH274937   2.999   5.021  14.607  0.4153 -0.1613 -0.0061
17841TIP3    H174938   3.028   4.938  14.569  0.5742 -0.6366  1.0894
17841TIP3    H274939   3.066   5.084  14.582  1.2278 -0.7555  0.6054
17842TIP3   OH274940   1.973   1.287  12.882  0.0162  0.0444 -0.2951
17842TIP3    H174941   1.944   1.287  12.790  0.8940 -2.5975 -0.6705
17842TIP3    H274942   1.982   1.194  12.903  1.2890  0.6333  2.0247
17843TIP3   OH274943   5.786   0.364   4.389  0.0972 -0.8377  0.5071
17843TIP3    H174944   5.862   0.408   4.429  0.0785  0.8897 -1.2214
17843TIP3    H274945   5.711   0.401   4.434  0.1954 -1.8274  1.5393
17844TIP3   OH274946   6.333   1.250  14.069  0.2117 -0.1140 -0.2267
17844TIP3    H174947   6.412   1.198  14.077 -0.2938 -0.8093  0.4489
17844TIP3    H274948   6.263   1.185  14.060 -0.4787  0.4238  1.0644
17845TIP3   OH274949   2.856   6.488  15.337  0.1407  0.7088  0.0453
17845TIP3    H174950   2.826   6.516  15.423  0.2996  0.5975  0.1375
17845TIP3    H274951   2.875   6.395  15.347  0.7240  0.8245  0.0442
17846TIP3   OH274952   2.267   4.895   0.319 -0.2131  0.6714  0.1440
17846TIP3    H174953   2.206   4.822   0.308  0.7607 -0.2370  0.7355
17846TIP3    H274954   2.345   4.869   0.271 -0.0907  1.6228 -0.1961
17847TIP3   OH274955   2.773   5.785   5.641  0.0563 -0.2299 -0.0410
17847TIP3    H174956   2.853   5.768   5.690  0.2289  1.9083  0.4952
17847TIP3    H274957   2.750   5.699   5.604  1.0740 -1.4731  1.9980
17848TIP3   OH274958   2.422   6.379  12.486 -0.1757 -0.1910 -0.4377
17848TIP3    H174959   2.443   6.444  12.553 -3.2013 -1.2258  1.7131
17848TIP3    H274960   2.507   6.341  12.462  1.0805  0.4158  2.5902
17849TIP3   OH274961   1.618   6.184  11.403 -0.1175 -0.0606  1.1024
17849TIP3    H174962   1.658   6.099  11.386 -0.8912  0.0105 -1.4728
17849TIP3    H274963   1.527   6.174  11.375  0.0225  1.8502 -0.2675
17850TIP3   OH274964   5.609   3.135   4.591  0.0451  0.5532  0.7263
17850TIP3    H174965   5.648   3.219   4.618  0.4806  0.1894  1.2464
17850TIP3    H274966   5.574   3.152   4.504  1.1287  0.9744  0.3557
17851TIP3   OH274967   1.226   1.247   4.722  0.3867 -0.3683 -0.0127
17851TIP3    H174968   1.227   1.335   4.760  0.4780 -0.5076  0.3085
17851TIP3    H274969   1.231   1.262   4.627 -1.0738  0.0243 -0.0535
17852TIP3   OH274970   6.522   0.600  12.282  0.0365  0.6597  0.0604
17852TIP3    H174971   6.472   0.640  12.353 -0.0763 -1.8754  1.5177
17852TIP3    H274972   6.613   0.619  12.304 -0.0307  0.4940  0.4766
17853TIP3   OH274973   0.761   4.939   0.897  0.2978  0.6256  0.3393
17853TIP3    H174974   0.673   4.971   0.917 -1.2223 -1.1002 -2.8696
17853TIP3    H274975   0.759   4.846   0.919  1.3440  0.5846  0.3014
17854TIP3   OH274976   3.602   5.318   2.711 -0.2461 -0.2815 -0.2595
17854TIP3    H174977   3.524   5.286   2.757 -0.3254  2.4260  1.7660
17854TIP3    H274978   3.674   5.273   2.754 -0.5724 -1.1480 -0.6089
17855TIP3   OH274979   1.429   4.515  11.259  0.5241 -0.0735  0.6144
17855TIP3    H174980   1.469   4.491  11.176  0.0139 -1.2502  0.6921
17855TIP3    H274981   1.379   4.437  11.286  1.2580  0.0072  2.3724
17856TIP3   OH274982   5.235   1.686   3.126  0.1104  0.3058  0.6923
17856TIP3    H174983   5.241   1.643   3.212 -0.1488 -0.1335  0.4972
17856TIP3    H274984   5.279   1.770   3.138  0.1339  0.2221  1.2391
17857TIP3   OH274985   6.455   5.766  16.976  0.3064  0.5011 -0.3324
17857TIP3    H174986   6.381   5.706  16.970  0.6971  0.1305 -1.8641
17857TIP3    H274987   6.458   5.792  17.068 -2.3063  1.2531 -0.3826
17858TIP3   OH274988   4.278   0.839  11.489 -0.2839 -0.6842 -0.1491
17858TIP3    H174989   4.198   0.808  11.532 -1.2100 -2.0578 -2.6738
17858TIP3    H274990   4.343   0.842  11.560 -1.9421 -1.8096  1.5316
17859TIP3   OH274991   5.150   3.037  16.660 -0.0727  0.1753 -0.3667
17859TIP3    H174992   5.118   2.949  16.675 -0.1008  0.1152 -0.7682
17859TIP3    H274993   5.073   3.093  16.672  0.1347  0.2330  0.7586
17860TIP3   OH274994   5.310   3.557  15.420 -0.5475  0.0191 -0.0497
17860TIP3    H174995   5.311   3.475  15.370  0.0191 -0.1164  0.1756
17860TIP3    H274996   5.240   3.609  15.379 -1.0526 -0.6537 -0.0636
17861TIP3   OH274997   1.235   4.471   3.358  0.2406  0.1556 -0.3194
17861TIP3    H174998   1.277   4.549   3.321  0.1488 -0.9957 -3.1127
17861TIP3    H274999   1.141   4.489   3.352  0.2180 -0.1547 -1.0150
17862TIP3   OH275000   6.307   2.605  15.776 -0.4709  0.3720  0.2186
17862TIP3    H175001   6.217   2.628  15.752 -0.4272 -0.7828 -1.1443
17862TIP3    H275002   6.306   2.510  15.786  1.1001 -0.0187 -2.3576
17863TIP3   OH275003   0.534   1.429   3.089  0.2934  0.0103 -0.0238
17863TIP3    H175004   0.476   1.503   3.107  1.3330  0.5466  1.2734
17863TIP3    H275005   0.587   1.457   3.015  1.4371  1.0650  1.1405
17864TIP3   OH275006   0.664   1.975  15.989 -0.3911  0.1787  0.1784
17864TIP3    H175007   0.606   2.052  15.988 -0.9264 -0.1753  1.9903
17864TIP3    H275008   0.751   2.011  16.004 -0.4714  0.5211 -0.1581
17865TIP3   OH275009   0.442   4.682   2.315 -0.0432 -0.0390  0.2732
17865TIP3    H175010   0.434   4.610   2.253 -0.0379  1.0958 -1.1196
17865TIP3    H275011   0.352   4.714   2.325  0.0931  0.4584 -0.0235
17866TIP3   OH275012   2.415   2.422   2.153  0.2653 -0.1029  0.6100
17866TIP3    H175013   2.449   2.497   2.203  0.7287 -0.5421  0.9746
17866TIP3    H275014   2.361   2.461   2.085  2.8217  0.7644 -1.0771
17867TIP3   OH275015   2.521   1.694   2.912 -0.0826  0.4833 -0.2681
17867TIP3    H175016   2.432   1.713   2.942 -0.6193  0.5385 -1.8021
17867TIP3    H275017   2.509   1.659   2.823  1.5433  2.1452 -1.1977
17868TIP3   OH275018   0.128   3.147   1.687 -0.6679 -0.0229  0.0202
17868TIP3    H175019   0.068   3.135   1.614 -0.9392 -0.1561  0.2624
17868TIP3    H275020   0.133   3.242   1.698 -0.9185 -0.0123  0.0647
17869TIP3   OH275021   0.805   5.531  16.293 -0.0439 -0.0984  0.2470
17869TIP3    H175022   0.809   5.460  16.357 -3.8335 -0.0202  0.8035
17869TIP3    H275023   0.785   5.488  16.210 -0.6846  0.1777  0.2532
17870TIP3   OH275024   6.470   5.008  14.631 -0.1418 -0.0952  0.2174
17870TIP3    H175025   6.560   4.974  14.628  0.3417  1.1630  0.1427
17870TIP3    H275026   6.417   4.932  14.654  0.8680 -0.9980 -0.3284
17871TIP3   OH275027   1.366   5.588  16.355 -0.1382 -0.4247  0.0243
17871TIP3    H175028   1.394   5.601  16.446 -0.4436  0.5706 -0.0099
17871TIP3    H275029   1.272   5.608  16.357  0.0317  0.5015 -0.6748
17872TIP3   OH275030   4.066   5.236   0.069  0.0694 -0.4443 -0.2003
17872TIP3    H175031   3.996   5.188   0.114 -0.4520  0.6146  0.1298
17872TIP3    H275032   4.095   5.175   0.000 -0.6630 -1.1912  0.1268
17873TIP3   OH275033   1.184   5.529   0.664  0.6441 -0.2729 -0.2148
17873TIP3    H175034   1.212   5.507   0.753  1.4094  0.0129 -0.3766
17873TIP3    H275035   1.210   5.453   0.612  0.4042 -0.3414 -0.2354
17874TIP3   OH275036   5.966   5.727   1.660 -0.1342  0.5862 -0.2631
17874TIP3    H175037   6.049   5.706   1.617 -1.1345 -1.0448 -1.4841
17874TIP3    H275038   5.984   5.714   1.753  0.1481 -3.2307 -0.6830
17875TIP3   OH275039   0.295   0.804   0.964 -0.4896 -0.2123 -0.3105
17875TIP3    H175040   0.293   0.782   1.057 -0.2329 -1.0990 -0.5008
17875TIP3    H275041   0.317   0.721   0.921  0.0594  0.3406 -1.1104
17876TIP3   OH275042   0.412   6.580  11.797 -0.2322 -0.3819  0.3541
17876TIP3    H175043   0.446   6.580  11.707 -1.9898 -0.8427 -0.3357
17876TIP3    H275044   0.377   6.668  11.810 -2.7468 -1.1671 -0.5536
17877TIP3   OH275045   4.513   5.380   3.140 -0.1862 -0.4614 -0.0877
17877TIP3    H175046   4.594   5.330   3.150 -0.1936 -0.1687  1.9439
17877TIP3    H275047   4.538   5.470   3.162 -0.7741 -0.0901 -0.8920
17878TIP3   OH275048   0.824   4.451   5.636  0.6793 -0.8885  0.0856
17878TIP3    H175049   0.877   4.443   5.716  1.4316 -0.5600 -0.3686
17878TIP3    H275050   0.758   4.383   5.645  0.4294 -0.5225  1.2333
17879TIP3   OH275051   4.210   1.549   4.697 -0.4321 -0.3137 -1.3197
17879TIP3    H175052   4.141   1.510   4.643 -1.9714  1.6518 -0.8981
17879TIP3    H275053   4.243   1.622   4.645  2.4942 -2.0392 -2.1623
17880TIP3   OH275054   3.296   5.351   0.117  0.0097  0.0694  0.2045
17880TIP3    H175055   3.331   5.277   0.067  2.0140  0.7898  0.4666
17880TIP3    H275056   3.373   5.397   0.148 -1.1883  2.4211 -0.1382
17881TIP3   OH275057   3.993   3.192  11.873 -0.5927 -0.5231  0.1684
17881TIP3    H175058   4.036   3.194  11.787 -1.8510 -0.5321 -0.4832
17881TIP3    H275059   3.926   3.125  11.865 -0.3257 -0.9679  1.3812
17882TIP3   OH275060   4.511   0.975  11.112 -0.4878  0.0952  0.2831
17882TIP3    H175061   4.539   0.943  11.027  1.4965  0.8658  0.5806
17882TIP3    H275062   4.576   0.940  11.173  0.6011  2.8775  0.8881
17883TIP3   OH275063   6.214   0.538  12.400 -0.0111 -0.0553  0.0887
17883TIP3    H175064   6.224   0.524  12.305  1.0855  0.1236  0.1570
17883TIP3    H275065   6.304   0.546  12.432 -0.3271 -0.9609  1.2819
17884TIP3   OH275066   3.836   5.827  11.573  0.4742 -0.1001 -0.2899
17884TIP3    H175067   3.808   5.751  11.623  0.2806  0.6352  0.7486
17884TIP3    H275068   3.761   5.847  11.516 -0.4306  0.7004  1.1076
17885TIP3   OH275069   0.008   2.972  13.011 -0.3011  0.2984  0.1584
17885TIP3    H175070   0.034   2.880  13.019 -0.0003  0.3446 -0.2315
17885TIP3    H275071  -0.051   2.974  12.936  0.1584  0.5106 -0.2077
17886TIP3   OH275072   5.137   1.206   5.547 -0.2796 -0.4660 -0.5690
17886TIP3    H175073   5.147   1.118   5.510 -0.4772 -0.8169  0.2007
17886TIP3    H275074   5.056   1.239   5.509 -0.6012 -0.9143 -0.2716
17887TIP3   OH275075   3.220   1.369   6.770  0.1475 -0.2591 -0.4667
17887TIP3    H175076   3.176   1.314   6.704 -0.9376  3.2693 -2.9584
17887TIP3    H275077   3.151   1.388   6.834  0.5059 -1.6192  0.3638
17888TIP3   OH275078   1.879   1.641  17.510 -0.1935 -0.5188 -0.2723
17888TIP3    H175079   1.925   1.565  17.476  0.2343 -0.1261 -0.5734
17888TIP3    H275080   1.800   1.648  17.456  0.7418  0.4215 -1.5688
17889TIP3   OH275081   5.600   1.863   2.626  0.1809 -0.5365  1.2319
17889TIP3    H175082   5.597   1.875   2.721  1.3868  0.6108  1.1449
17889TIP3    H275083   5.516   1.821   2.605 -0.8080  0.6310  2.6095
17890TIP3   OH275084   0.751   3.327   5.964  0.0197  0.4442  0.7206
17890TIP3    H175085   0.838   3.356   5.937 -0.1016  1.3692  1.2954
17890TIP3    H275086   0.751   3.336   6.059 -0.7836  0.6925  0.7070
17891TIP3   OH275087   0.983   0.163  17.085  0.0946  0.0928 -0.0513
17891TIP3    H175088   1.077   0.179  17.091  0.2647 -0.1225 -1.6242
17891TIP3    H275089   0.968   0.143  16.993 -1.2223 -1.6032  0.4714
17892TIP3   OH275090   6.288   4.493  11.925  0.1840  0.2779  0.3338
17892TIP3    H175091   6.237   4.511  11.846  2.1729  1.1027 -0.8344
17892TIP3    H275092   6.341   4.417  11.902 -0.1093 -0.2454  1.3393
17893TIP3   OH275093   6.585   5.647   6.318 -0.2244 -0.3787 -0.3347
17893TIP3    H175094   6.545   5.733   6.331  0.6518  0.2801 -1.7442
17893TIP3    H275095   6.659   5.645   6.378  0.6469  0.4827 -1.3459
17894TIP3   OH275096   2.272   4.195  11.324  1.1652  0.2934  0.0313
17894TIP3    H175097   2.183   4.213  11.354  0.8423  1.0278 -1.3039
17894TIP3    H275098   2.311   4.281  11.312  2.4589 -0.0232  1.6587
17895TIP3   OH275099   4.896   6.581  15.274 -0.0501  0.4041 -0.4487
17895TIP3    H175100   4.926   6.516  15.338  0.5843  1.6927  0.6305
17895TIP3    H275101   4.964   6.582  15.206  0.6540  0.8783  0.2371
17896TIP3   OH275102   0.635   4.896   3.164  0.4034  0.2747 -0.0952
17896TIP3    H175103   0.702   4.963   3.176 -0.2842  0.9503  0.0953
17896TIP3    H275104   0.650   4.833   3.235  0.3698  0.8163  0.3960
17897TIP3   OH275105   4.869   2.120   3.991 -0.3531  0.4010  0.0517
17897TIP3    H175106   4.828   2.195   3.949  1.7197  0.6206 -1.7759
17897TIP3    H275107   4.844   2.045   3.938  0.2234  0.2943 -0.0781
17898TIP3   OH275108   5.060   1.785  12.920 -0.5929 -0.1337 -0.7357
17898TIP3    H175109   4.994   1.749  12.860 -0.4039 -1.8007  0.0033
17898TIP3    H275110   5.024   1.771  13.007  0.9825 -1.7388 -0.2779
17899TIP3   OH275111   5.966   2.557  13.738 -0.0482  0.2548 -0.1356
17899TIP3    H175112   5.929   2.625  13.795 -1.1630  0.1185 -0.6776
17899TIP3    H275113   5.903   2.486  13.741  0.1138  0.0536 -1.1638
17900TIP3   OH275114   0.171   2.943  14.999  0.1934 -0.4536 -0.7777
17900TIP3    H175115   0.180   3.031  15.036 -0.3091 -1.3244  1.6116
17900TIP3    H275116   0.258   2.922  14.964  0.2819  1.0069 -1.4802
17901TIP3   OH275117   0.995   3.542   4.290 -0.9125 -0.3121  0.5891
17901TIP3    H175118   1.071   3.560   4.345  0.2957 -0.3674 -0.9836
17901TIP3    H275119   0.983   3.447   4.296  0.2105 -0.5498 -0.4161
17902TIP3   OH275120   3.212   3.871  14.100  0.4780  0.3348  0.5978
17902TIP3    H175121   3.132   3.863  14.152  0.1887  1.3264  0.3179
17902TIP3    H275122   3.181   3.879  14.010  0.9185  0.2427  0.4358
17903TIP3   OH275123   5.427   1.071   5.693 -0.5020  0.5910 -0.1819
17903TIP3    H175124   5.386   1.131   5.631 -0.7015  2.3340  1.5368
17903TIP3    H275125   5.461   1.127   5.763  4.8826 -0.6835 -1.3587
17904TIP3   OH275126   5.143   4.180  12.450  0.1918 -0.2254 -0.1039
17904TIP3    H175127   5.170   4.269  12.472 -2.2695  0.7937 -0.8696
17904TIP3    H275128   5.083   4.155  12.521 -0.2340 -0.7221 -0.6329
17905TIP3   OH275129   1.689   4.359  13.169  0.4086  0.3128  0.6149
17905TIP3    H175130   1.773   4.315  13.187 -0.6537 -1.3589  1.8082
17905TIP3    H275131   1.634   4.290  13.131 -0.3398  1.4887 -0.5207
17906TIP3   OH275132   3.841   5.302   1.683  0.1160  0.2739  0.9392
17906TIP3    H175133   3.789   5.226   1.709  1.6680 -1.6237 -1.1345
17906TIP3    H275134   3.779   5.375   1.683 -1.7629 -1.2477  1.6835
17907TIP3   OH275135   5.917   1.378   6.542 -0.2742 -0.4468 -0.2859
17907TIP3    H175136   6.004   1.338   6.537  0.0135  0.2047 -0.6521
17907TIP3    H275137   5.933   1.465   6.578 -0.9623 -0.8361  1.0206
17908TIP3   OH275138   2.827   3.929  14.486  0.0469  0.8812  0.1716
17908TIP3    H175139   2.846   3.990  14.557  0.7893 -0.7374  1.4112
17908TIP3    H275140   2.769   3.864  14.525  0.3776  0.0187 -0.7391
17909TIP3   OH275141   4.490   5.081   1.801 -0.1048  0.3274 -0.1367
17909TIP3    H175142   4.452   5.008   1.752  0.4478 -0.2666  0.2966
17909TIP3    H275143   4.585   5.070   1.790  0.0198  0.3461  0.8329
17910TIP3   OH275144   5.091   5.828   2.825 -0.0604  0.2420  0.2427
17910TIP3    H175145   5.011   5.867   2.788 -0.0218 -0.4794 -0.6275
17910TIP3    H275146   5.095   5.864   2.913 -1.2860  0.3835  0.2715
17911TIP3   OH275147   6.153   6.198   0.340 -0.4382 -0.7544 -0.3464
17911TIP3    H175148   6.239   6.238   0.335  0.2066 -2.0590 -0.1077
17911TIP3    H275149   6.109   6.225   0.260  0.4902 -0.7312 -0.8609
17912TIP3   OH275150   6.011   5.189  14.662  0.1301 -0.2816 -0.2321
17912TIP3    H175151   5.927   5.142  14.670  0.7599 -1.6575 -1.3303
17912TIP3    H275152   6.043   5.195  14.752 -0.0805 -1.8185 -0.0118
17913TIP3   OH275153   6.620   2.732   2.188 -0.1555  0.0242  0.0429
17913TIP3    H175154   6.559   2.732   2.261 -1.1943  2.7631 -0.7401
17913TIP3    H275155   6.707   2.734   2.229 -0.6141 -1.3223  1.1472
17914TIP3   OH275156   1.689   5.664  17.317 -0.2715  0.1327 -0.2291
17914TIP3    H175157   1.646   5.738  17.360 -0.1567  0.3459 -0.4799
17914TIP3    H275158   1.743   5.624  17.386  1.0722  1.3574 -0.5283
17915TIP3   OH275159   3.742   4.396   2.123  0.3428  0.4379  0.4981
17915TIP3    H175160   3.756   4.431   2.035  1.3635  1.3587  1.0051
17915TIP3    H275161   3.669   4.447   2.157 -0.5380 -0.4166 -0.0569
17916TIP3   OH275162   0.837   2.168   2.286  0.2675  0.3271 -0.2934
17916TIP3    H175163   0.865   2.175   2.377  0.6789  2.3326 -0.5102
17916TIP3    H275164   0.795   2.083   2.280  0.0707  0.2145  1.8215
17917TIP3   OH275165   4.237   0.441  16.894 -0.1840 -0.3056  0.1588
17917TIP3    H175166   4.170   0.423  16.828 -0.5607 -0.8141  0.6799
17917TIP3    H275167   4.283   0.518  16.860 -0.1139 -0.7906 -0.8938
17918TIP3   OH275168   5.358   5.153  16.758  0.5391  0.3423  0.3405
17918TIP3    H175169   5.325   5.133  16.846  0.5717  0.4714  0.3829
17918TIP3    H275170   5.434   5.096  16.748  1.5791  1.5621  1.0784
17919TIP3   OH275171   4.245   0.549  17.317  0.4997 -0.1614 -0.0929
17919TIP3    H175172   4.218   0.530  17.228  1.5212  2.1425 -0.9655
17919TIP3    H275173   4.340   0.535  17.317  0.1253 -3.9458  1.7642
17920TIP3   OH275174   2.941   3.166   1.338 -0.1810  0.0129  0.5143
17920TIP3    H175175   3.005   3.161   1.267  0.8549 -0.0667  1.4345
17920TIP3    H275176   2.890   3.245   1.319  0.6015  0.4318  0.0991
17921TIP3   OH275177   3.412   0.910   4.201 -0.0729 -0.6059 -0.0883
17921TIP3    H175178   3.437   0.877   4.288  0.3108  0.1718  0.1037
17921TIP3    H275179   3.342   0.972   4.218  0.4874  0.0910 -0.2489
17922TIP3   OH275180   1.452   1.443   5.376  0.6823 -0.1726 -0.3896
17922TIP3    H175181   1.458   1.482   5.289 -1.9997  0.7445 -0.2495
17922TIP3    H275182   1.386   1.374   5.368  1.8633 -1.4595  0.4984
17923TIP3   OH275183   4.193   2.301   4.179 -0.2753 -0.1463  0.1863
17923TIP3    H175184   4.242   2.225   4.145 -0.4612  0.2235 -0.9526
17923TIP3    H275185   4.128   2.320   4.111 -0.9885  0.3317  0.9845
17924TIP3   OH275186   0.931   3.104  12.740  0.4288 -0.1657  0.4453
17924TIP3    H175187   0.958   3.176  12.798  0.5361  0.5945 -0.5342
17924TIP3    H275188   0.897   3.147  12.662 -0.1191 -1.1787  0.1054
17925TIP3   OH275189   3.685   2.318   2.322 -0.3056  0.0725  0.2643
17925TIP3    H175190   3.748   2.354   2.384 -0.9483 -0.1293  1.0458
17925TIP3    H275191   3.668   2.390   2.261  0.7867  0.0826 -0.0535
17926TIP3   OH275192   5.740   3.800  13.763  0.5431  0.1806 -0.6205
17926TIP3    H175193   5.793   3.721  13.756  1.1108  0.4881  0.1197
17926TIP3    H275194   5.737   3.835  13.674  1.7326  0.2537 -0.6446
17927TIP3   OH275195   5.234   1.075   0.624 -1.3565  1.2532  0.2087
17927TIP3    H175196   5.279   1.121   0.553  0.8110 -0.5148  0.3222
17927TIP3    H275197   5.269   1.114   0.704 -1.1331  0.8707  0.2998
17928TIP3   OH275198   5.338   5.067   2.407 -0.2742  0.2745  0.1485
17928TIP3    H175199   5.337   5.031   2.496  1.9002 -2.8980 -0.9345
17928TIP3    H275200   5.288   5.004   2.355  0.3437  0.9074 -1.2630
17929TIP3   OH275201   5.294   4.877  16.469 -0.0567 -0.8671  0.0948
17929TIP3    H175202   5.383   4.911  16.471 -0.3517 -0.0567 -0.1011
17929TIP3    H275203   5.304   4.782  16.477  0.8319 -0.8023 -0.1522
17930TIP3   OH275204   1.421   4.400  10.910  0.0761 -0.4968  0.7249
17930TIP3    H175205   1.369   4.447  10.845  2.4890  0.0312 -0.9710
17930TIP3    H275206   1.405   4.307  10.891 -1.9230 -0.4170  1.7472
17931TIP3   OH275207   4.770   0.304   3.384  0.1720 -0.1295 -0.3248
17931TIP3    H175208   4.795   0.371   3.448 -0.5239  0.5623 -0.7559
17931TIP3    H275209   4.837   0.310   3.316 -1.4139  2.2458 -1.8562
17932TIP3   OH275210   3.739   6.421   6.151  0.1899 -0.1209 -0.1025
17932TIP3    H175211   3.809   6.416   6.216  0.9802 -2.0745 -1.0137
17932TIP3    H275212   3.666   6.463   6.196  0.9050 -0.8769  1.8501
17933TIP3   OH275213   4.910   1.321   5.454 -0.0368 -0.2033  0.1913
17933TIP3    H175214   4.869   1.282   5.377  0.7023 -1.3340  0.3415
17933TIP3    H275215   4.854   1.395   5.477  0.6117  1.2197 -2.4127
17934TIP3   OH275216   2.538   4.984   3.947  0.4119  0.1981  0.0423
17934TIP3    H175217   2.572   4.909   3.997 -2.5574  0.4154  2.7319
17934TIP3    H275218   2.555   5.060   4.003 -1.3712  0.7410 -0.1090
17935TIP3   OH275219   5.078   5.374  14.686  0.2363  0.3444  0.2828
17935TIP3    H175220   5.026   5.450  14.661 -1.7113 -0.8368  0.4576
17935TIP3    H275221   5.111   5.339  14.603  0.5922  0.9956  0.1444
17936TIP3   OH275222   6.631   6.055  11.615 -0.3590 -0.3389  0.4121
17936TIP3    H175223   6.669   6.122  11.672  1.4045 -0.6787 -0.2699
17936TIP3    H275224   6.633   5.975  11.667  3.6042 -1.2347 -0.7183
17937TIP3   OH275225   6.215   0.074   1.248 -0.0363 -0.3417 -0.1529
17937TIP3    H175226   6.242   0.165   1.236  0.9993 -0.6634 -0.4275
17937TIP3    H275227   6.294   0.030   1.279 -0.6246 -1.0780  0.3377
17938TIP3   OH275228   4.216   3.856   3.310 -0.1428  0.1987  0.2793
17938TIP3    H175229   4.190   3.779   3.359 -1.6160 -0.6021 -1.6475
17938TIP3    H275230   4.162   3.927   3.346 -1.5301 -0.4662 -0.4363
17939TIP3   OH275231   3.270   5.739   6.088 -0.4330  0.0844 -0.7263
17939TIP3    H175232   3.275   5.817   6.144 -0.6701 -0.0018 -0.5848
17939TIP3    H275233   3.260   5.775   6.000 -0.6590  0.2146 -0.6489
17940TIP3   OH275234   0.631   2.521   4.835 -0.4854  0.3712  0.0368
17940TIP3    H175235   0.611   2.571   4.914 -2.9250 -0.7281  0.2116
17940TIP3    H275236   0.580   2.564   4.766  0.4329  0.4041 -0.6473
17941TIP3   OH275237   3.764   1.244  15.454 -0.0598  0.2839  0.0298
17941TIP3    H175238   3.698   1.190  15.412 -0.0402 -0.9534  1.5159
17941TIP3    H275239   3.826   1.182  15.491  0.3736  1.3426  1.1457
17942TIP3   OH275240   2.093   0.997   1.801  0.0064 -0.4042 -0.1887
17942TIP3    H175241   2.097   1.049   1.720 -0.9852  1.2827  0.7720
17942TIP3    H275242   2.009   0.951   1.795 -0.4237  0.3026  0.1687
17943TIP3   OH275243   3.197   5.698  13.001 -0.0143  0.0211 -0.6346
17943TIP3    H175244   3.154   5.784  13.007  0.3100  0.1409  0.0481
17943TIP3    H275245   3.175   5.654  13.083  0.8217 -0.0793 -0.4552
17944TIP3   OH275246   4.466   1.935  16.294  0.2256 -0.2691 -0.7533
17944TIP3    H175247   4.378   1.936  16.258  0.9970 -0.1632 -2.7495
17944TIP3    H275248   4.462   1.872  16.366 -1.9828  1.3176  0.6726
17945TIP3   OH275249   4.282   4.401  15.169 -0.0995  0.3146  0.1309
17945TIP3    H175250   4.373   4.395  15.140 -0.7328 -1.8285 -1.7205
17945TIP3    H275251   4.287   4.392  15.264  1.6085 -0.2218  0.0349
17946TIP3   OH275252   1.318   1.396  16.549 -0.5074  0.1691 -0.1189
17946TIP3    H175253   1.396   1.404  16.493  0.0006 -0.6672  0.4518
17946TIP3    H275254   1.352   1.405  16.638 -1.0652 -0.1994  0.1334
17947TIP3   OH275255   2.611   0.505   3.365 -0.0095  0.1066  0.8302
17947TIP3    H175256   2.536   0.549   3.324  1.9128  1.7416 -1.2183
17947TIP3    H275257   2.606   0.415   3.334  0.0506  0.7360 -1.2071
17948TIP3   OH275258   1.551   1.767  15.195 -0.1195  0.1066 -0.7844
17948TIP3    H175259   1.615   1.739  15.261  0.2247  2.4551 -0.0371
17948TIP3    H275260   1.584   1.850  15.162 -1.9378  0.5694 -1.6044
17949TIP3   OH275261   1.750   2.892  13.039 -0.0157  0.3485 -0.5655
17949TIP3    H175262   1.837   2.857  13.019 -0.6045 -0.9750 -0.9412
17949TIP3    H275263   1.691   2.845  12.981 -1.0357  0.9428 -0.0455
17950TIP3   OH275264   2.537   1.749   2.193 -0.5765  0.3058 -0.2054
17950TIP3    H175265   2.460   1.693   2.187  0.8007 -1.6042 -1.1448
17950TIP3    H275266   2.527   1.794   2.277 -2.3672 -0.3878  0.0012
17951TIP3   OH275267   4.868   5.385  16.411  0.0702 -0.1202 -0.1201
17951TIP3    H175268   4.907   5.345  16.333  0.6982 -0.7300  0.4899
17951TIP3    H275269   4.880   5.319  16.480 -0.3990  0.4448  0.5140
17952TIP3   OH275270   0.105   6.235  13.583  0.5752  0.2162  0.3467
17952TIP3    H175271   0.099   6.323  13.547 -0.3841 -0.4007 -1.0956
17952TIP3    H275272   0.044   6.183  13.530  1.3825 -1.3851  0.9136
17953TIP3   OH275273   6.242   2.914   5.658  0.3906  0.0417 -0.3307
17953TIP3    H175274   6.178   2.966   5.706  1.0201  0.9265 -0.4138
17953TIP3    H275275   6.308   2.978   5.631  1.5806 -0.9237  0.2093
17954TIP3   OH275276   1.524   5.611  14.713  0.0784  0.5249 -0.0158
17954TIP3    H175277   1.590   5.587  14.648  0.1167  0.4783  0.0399
17954TIP3    H275278   1.574   5.629  14.792  0.1919  2.1048 -0.4056
17955TIP3   OH275279   5.315   6.174  12.614 -0.1047 -0.2548  0.1664
17955TIP3    H175280   5.317   6.174  12.518  1.4748 -0.8282  0.1686
17955TIP3    H275281   5.362   6.253  12.639  0.3351 -0.6073  0.4643
17956TIP3   OH275282   1.918   2.273  13.286 -0.3698 -0.0024  0.0270
17956TIP3    H175283   1.925   2.327  13.365 -2.2261  0.1950  0.1112
17956TIP3    H275284   1.952   2.329  13.216 -0.4186  0.5325  0.4217
17957TIP3   OH275285   5.714   4.019   5.380  0.8237  0.0763 -0.3313
17957TIP3    H175286   5.720   4.086   5.312 -0.4388  0.5526  0.0009
17957TIP3    H275287   5.804   4.008   5.411  1.0039  1.9644 -0.0585
17958TIP3   OH275288   5.533   3.668   2.138  0.0867 -0.4544 -0.1839
17958TIP3    H175289   5.502   3.691   2.050  2.7172 -1.4849 -1.4880
17958TIP3    H275290   5.515   3.574   2.145  0.8001 -0.5907 -0.0689
17959TIP3   OH275291   1.594   1.802   0.690 -0.0126 -0.3444 -0.0923
17959TIP3    H175292   1.646   1.745   0.633  1.3825  1.4111 -0.6933
17959TIP3    H275293   1.603   1.763   0.777  3.1353  0.3308 -0.0055
17960TIP3   OH275294   6.222   2.333   3.974  0.7904  0.3836 -0.3311
17960TIP3    H175295   6.239   2.274   3.901  0.6465  1.5128 -1.2948
17960TIP3    H275296   6.236   2.421   3.939 -3.2358  1.2590 -0.2104
17961TIP3   OH275297   0.027   0.984   4.682  0.3591 -0.0487 -0.5247
17961TIP3    H175298   0.036   0.890   4.666  0.8508  0.1699 -1.6330
17961TIP3    H275299   0.105   1.022   4.641  0.3727  0.8056  0.2787
17962TIP3   OH275300   4.562   5.577   2.080  0.3061  0.3184  0.1788
17962TIP3    H175301   4.640   5.543   2.036  0.9265 -0.0138  1.4707
17962TIP3    H275302   4.519   5.633   2.015  2.1079  1.2352 -0.2856
17963TIP3   OH275303   4.914   2.749   3.920 -0.2358  0.0865 -0.2607
17963TIP3    H175304   4.843   2.738   3.857 -0.4422  0.1790 -0.0442
17963TIP3    H275305   4.958   2.664   3.921 -3.3784 -1.7923  3.3284
17964TIP3   OH275306   6.106   6.051  11.861 -0.2265 -0.2875 -0.2667
17964TIP3    H175307   6.133   6.141  11.879 -0.4884  0.1328 -1.8507
17964TIP3    H275308   6.023   6.060  11.814  0.7175 -1.2386 -2.2237
17965TIP3   OH275309   5.530   2.735  16.704  0.0142 -0.2807  0.2533
17965TIP3    H175310   5.551   2.797  16.773 -0.8680  0.3443 -0.0248
17965TIP3    H275311   5.445   2.699  16.728 -0.6659  0.5034 -0.8764
17966TIP3   OH275312   6.692   6.273   3.446  0.1636  0.1073 -0.1925
17966TIP3    H175313   6.608   6.273   3.401 -0.0788  0.0082  0.2574
17966TIP3    H275314   6.673   6.236   3.533  0.2789  1.8775  0.6349
17967TIP3   OH275315   2.221   4.565   2.352  0.4204  0.0015  0.2005
17967TIP3    H175316   2.150   4.606   2.402 -0.1458  0.8294 -1.2056
17967TIP3    H275317   2.176   4.504   2.293  0.7419  1.1457 -1.2930
17968TIP3   OH275318   0.959   4.910  12.932  0.0268  0.3605 -0.1308
17968TIP3    H175319   1.009   4.829  12.937  0.0972  0.2798 -1.7255
17968TIP3    H275320   1.007   4.965  12.870 -1.3156  0.6592 -0.9496
17969TIP3   OH275321   6.455   4.417   4.829  0.0744 -0.6482 -0.1481
17969TIP3    H175322   6.529   4.450   4.778  0.3520 -0.5925  0.2939
17969TIP3    H275323   6.442   4.328   4.797  0.7252 -0.8743  0.2039
17970TIP3   OH275324   3.577   5.703   3.143  0.4198  0.0915 -0.1908
17970TIP3    H175325   3.595   5.657   3.061 -2.0871  0.5778 -1.0968
17970TIP3    H275326   3.558   5.793   3.117 -2.0255 -0.1089  0.6620
17971TIP3   OH275327   2.309   5.536   0.283  0.7142 -0.5116 -0.8243
17971TIP3    H175328   2.281   5.592   0.355  1.6333  1.0613 -1.6391
17971TIP3    H275329   2.228   5.495   0.252  0.1793 -0.5020  0.4888
17972TIP3   OH275330   5.707   5.520  14.084 -0.4269  0.0792 -0.0077
17972TIP3    H175331   5.747   5.472  14.012  0.1079  0.8727 -0.2535
17972TIP3    H275332   5.616   5.491  14.084 -0.0705 -1.0841 -0.0062
17973TIP3   OH275333   4.404   2.985  15.233 -0.3226  0.1234 -0.0583
17973TIP3    H175334   4.325   2.978  15.180  0.0999  0.2304 -0.7206
17973TIP3    H275335   4.443   2.897  15.230  0.4246  0.4663 -1.1003
17974TIP3   OH275336   1.266   5.023  16.144 -0.2908  0.7010 -0.5902
17974TIP3    H175337   1.178   4.985  16.154 -0.1772  0.2087 -1.3583
17974TIP3    H275338   1.324   4.963  16.190 -0.3984  1.2205  0.2280
17975TIP3   OH275339   2.175   5.949   2.798 -0.1841  0.3681 -0.3671
17975TIP3    H175340   2.144   5.861   2.774 -0.2867  0.4167 -0.4120
17975TIP3    H275341   2.166   6.000   2.718 -0.5568  0.5392 -0.2181
17976TIP3   OH275342   2.983   0.382  15.095 -0.1969  0.5433  0.1280
17976TIP3    H175343   3.035   0.419  15.167 -1.1075  0.8585  0.6363
17976TIP3    H275344   3.021   0.295  15.081  0.6695  0.8820  0.2678
17977TIP3   OH275345   2.244   6.524  13.904  0.2625 -0.3064 -0.2918
17977TIP3    H175346   2.185   6.474  13.847 -0.9363 -0.1888  0.8037
17977TIP3    H275347   2.191   6.598  13.934  0.1347 -1.4441  2.5879
17978TIP3   OH275348   2.574   3.461  16.866 -0.6676 -0.2575  0.2241
17978TIP3    H175349   2.553   3.496  16.952  3.4880  2.3792  0.3930
17978TIP3    H275350   2.509   3.501  16.808 -2.0079 -0.1338  1.7226
17979TIP3   OH275351   4.823   2.570  11.248  0.2040 -0.1478 -0.0896
17979TIP3    H175352   4.850   2.502  11.309 -0.2152  0.7025  1.0766
17979TIP3    H275353   4.747   2.611  11.290 -1.5442 -1.0205 -2.2320
17980TIP3   OH275354   2.547   2.318  12.807 -0.7217 -0.1584 -0.4933
17980TIP3    H175355   2.599   2.302  12.885 -0.9305  1.1610 -0.0596
17980TIP3    H275356   2.584   2.398  12.769 -2.7461  1.1755  0.1631
17981TIP3   OH275357   5.676   6.711  11.661 -0.0707 -0.6814  0.0172
17981TIP3    H175358   5.655   6.797  11.625  1.0660 -0.8880 -1.2351
17981TIP3    H275359   5.655   6.650  11.591  0.5799 -1.2648  0.3112
17982TIP3   OH275360   3.995   4.015   2.713 -0.1361  0.5713 -0.4000
17982TIP3    H175361   3.916   4.016   2.766  0.0974 -2.5017  0.1791
17982TIP3    H275362   3.967   4.046   2.627 -1.3012  2.1342  0.4852
17983TIP3   OH275363   4.533   0.495   4.266 -0.3519  0.0600 -0.1497
17983TIP3    H175364   4.584   0.494   4.185  0.2492  0.6333  0.2177
17983TIP3    H275365   4.464   0.429   4.251 -0.0799 -0.0448 -1.0104
17984TIP3   OH275366   0.257   0.931  17.137  0.1523  0.4808 -0.6198
17984TIP3    H175367   0.173   0.977  17.134 -0.6169 -0.8831 -0.5960
17984TIP3    H275368   0.309   0.971  17.068  0.3730  2.9642  0.8565
17985TIP3   OH275369   5.815   1.711   6.031  0.0150  0.8314  0.0652
17985TIP3    H175370   5.891   1.767   6.049  1.5451 -0.9233 -0.6366
17985TIP3    H275371   5.853   1.631   5.996 -1.9850 -1.3387  2.5175
17986TIP3   OH275372   0.459   2.720  13.179  0.0097 -0.2791  0.1351
17986TIP3    H175373   0.398   2.770  13.232  0.9907 -0.5727  1.6070
17986TIP3    H275374   0.419   2.633  13.173 -0.9164  0.1969 -1.0787
17987TIP3   OH275375   3.336   1.734   3.640 -0.4106  0.1544  0.1637
17987TIP3    H175376   3.255   1.689   3.616  0.9600 -1.7563 -1.1377
17987TIP3    H275377   3.348   1.714   3.733 -0.5381 -1.0577 -0.0681
17988TIP3   OH275378   0.738   0.614   3.813  0.5602 -0.8423  0.0843
17988TIP3    H175379   0.801   0.685   3.799 -0.1369 -0.1922  0.1867
17988TIP3    H275380   0.749   0.591   3.906  1.4873 -1.5637 -0.1906
17989TIP3   OH275381   4.196   2.233  17.021  0.7277 -0.4073 -0.2128
17989TIP3    H175382   4.232   2.322  17.021 -1.5163  0.5561 -0.8541
17989TIP3    H275383   4.274   2.176  17.024  2.1872  1.5304  2.1185
17990TIP3   OH275384   6.713   2.547   0.565  0.3611 -0.2138  0.2229
17990TIP3    H175385   6.796   2.563   0.609 -1.5173 -0.1106  4.2047
17990TIP3    H275386   6.657   2.620   0.594 -1.3964 -0.7783 -1.5533
17991TIP3   OH275387   2.175   3.622  12.754 -0.9349 -0.5483  0.2891
17991TIP3    H175388   2.113   3.587  12.819 -1.1229  0.4933  0.6902
17991TIP3    H275389   2.145   3.587  12.671 -1.1239 -1.3238  0.6771
17992TIP3   OH275390   0.071   0.422   3.086 -0.2849  0.5788 -0.2958
17992TIP3    H175391   0.139   0.424   3.153 -0.4278  0.6417 -0.1510
17992TIP3    H275392   0.084   0.502   3.035 -0.5913  0.8693  0.0754
17993TIP3   OH275393   6.622   0.117  17.346  0.2640  0.1819 -0.4483
17993TIP3    H175394   6.630   0.029  17.382  0.8267  0.7346  0.8503
17993TIP3    H275395   6.560   0.108  17.273 -1.1207 -0.9595  0.7963
17994TIP3   OH275396   1.080   0.664  14.365 -0.5434 -0.4272  0.2341
17994TIP3    H175397   1.013   0.638  14.301  0.1466 -1.7898  0.0110
17994TIP3    H275398   1.063   0.607  14.440 -0.4428  0.1521  0.7001
17995TIP3   OH275399   0.696   1.353   0.362  0.3240  0.4389 -0.1191
17995TIP3    H175400   0.727   1.312   0.442  1.7230  2.0583  0.2183
17995TIP3    H275401   0.738   1.303   0.291 -0.4450 -0.6146  0.1471
17996TIP3   OH275402   1.156   0.547  15.749  0.0837  0.0884 -0.4362
17996TIP3    H175403   1.187   0.623  15.798 -2.7660  1.7741 -0.9907
17996TIP3    H275404   1.119   0.489  15.815 -1.8382  1.3779 -0.2978
17997TIP3   OH275405   5.560   0.447   2.138 -0.1394  0.7046 -0.2049
17997TIP3    H175406   5.527   0.466   2.226  0.3128  0.6869 -0.0284
17997TIP3    H275407   5.653   0.468   2.142  0.2514 -0.8708 -0.1997
17998TIP3   OH275408   3.071   3.904  11.898  0.4641  0.1506 -0.5986
17998TIP3    H175409   3.138   3.836  11.912  2.0789  1.8896  0.5090
17998TIP3    H275410   3.000   3.880  11.958  2.0414  0.6866  1.6079
17999TIP3   OH275411   5.489   0.028   4.436  0.0387  0.6762 -0.0709
17999TIP3    H175412   5.399   0.051   4.414  0.3564  1.6541 -0.4040
17999TIP3    H275413   5.494   0.038   4.531 -0.1650  0.7626 -0.0694
18000TIP3   OH275414   5.209   3.020   4.596  0.1625 -0.4584 -0.0215
18000TIP3    H175415   5.136   2.962   4.616 -1.2225  0.7781 -1.2168
18000TIP3    H275416   5.259   2.974   4.529 -0.9612 -0.2936 -1.0118
18001TIP3   OH275417   1.031   1.878  13.949 -0.2649 -0.5571  0.1774
18001TIP3    H175418   1.124   1.865  13.927  0.4656  2.3714  1.1357
18001TIP3    H275419   0.995   1.923  13.872 -0.4476 -0.0962  0.5331
18002TIP3   OH275420   5.829   5.229   3.386 -0.5134  0.0790 -0.2556
18002TIP3    H175421   5.767   5.302   3.394  0.2133  0.7161 -0.2894
18002TIP3    H275422   5.891   5.258   3.318 -1.0113 -1.1620 -1.2709
18003TIP3   OH275423   5.158   3.080  12.810 -0.0655 -0.2163  0.5579
18003TIP3    H175424   5.153   3.060  12.903 -0.7575 -0.1455  0.5416
18003TIP3    H275425   5.121   3.003  12.766 -1.5232  0.5131  0.4400
18004TIP3   OH275426   3.510   5.767  11.959  0.1840  0.0475 -0.3553
18004TIP3    H175427   3.585   5.757  11.901 -1.2714 -1.2702 -2.0965
18004TIP3    H275428   3.542   5.824  12.029  2.7840 -0.4358 -1.0371
18005TIP3   OH275429   4.057   6.694   4.001  0.1968 -0.1083  0.2349
18005TIP3    H175430   4.091   6.749   3.930  1.6264  0.5746  1.3980
18005TIP3    H275431   4.057   6.606   3.965 -1.5176  0.5097 -1.4520
18006TIP3   OH275432   6.703   1.297  11.400 -0.1452  0.1235  0.4982
18006TIP3    H175433   6.771   1.348  11.355  0.3135  2.2739  3.3245
18006TIP3    H275434   6.629   1.298  11.340  1.3161  0.2209 -1.4336
18007TIP3   OH275435   0.465   3.362  13.412 -0.6256  0.1502 -0.5039
18007TIP3    H175436   0.403   3.431  13.390 -1.9461 -0.2931  1.5730
18007TIP3    H275437   0.536   3.372  13.348 -2.1097  1.6128 -2.0094
18008TIP3   OH275438   6.484   0.550   3.416  0.0865 -0.5657  0.3476
18008TIP3    H175439   6.447   0.579   3.333 -0.8793 -0.3068  0.8532
18008TIP3    H275440   6.544   0.480   3.392  0.3194 -0.0511 -0.6268
18009TIP3   OH275441   2.403   0.437  12.765  0.0767 -0.2157  0.1127
18009TIP3    H175442   2.340   0.470  12.701  2.6768  1.3693 -1.8864
18009TIP3    H275443   2.411   0.344  12.745 -1.6709 -0.4992  0.5481
18010TIP3   OH275444   5.913   0.121   1.481 -0.2183 -0.6354 -0.1866
18010TIP3    H175445   5.955   0.039   1.455 -0.2916 -1.0036  0.8128
18010TIP3    H275446   5.929   0.181   1.409  0.4144 -1.3347 -0.6300
18011TIP3   OH275447   1.174   5.210  14.930 -0.5745  0.6109 -0.0291
18011TIP3    H175448   1.112   5.241  14.863  0.1689  0.2347 -0.9148
18011TIP3    H275449   1.166   5.273  15.001 -0.7776  1.5067 -0.8288
18012TIP3   OH275450   0.399   3.307  15.331 -0.2113 -0.5196  0.5723
18012TIP3    H175451   0.312   3.291  15.295 -0.2992  0.8060  0.1651
18012TIP3    H275452   0.410   3.239  15.398 -1.2766 -1.1074  0.1751
18013TIP3   OH275453   6.092   6.112   3.287 -0.5284 -0.1604 -0.3563
18013TIP3    H175454   6.131   6.198   3.300 -0.9718 -0.0007 -0.0332
18013TIP3    H275455   6.019   6.110   3.349 -0.0510 -1.0663  0.1936
18014TIP3   OH275456   2.962   3.401  15.755  0.3933  0.3004 -0.4566
18014TIP3    H175457   2.963   3.492  15.787 -5.1560  1.0628 -1.4384
18014TIP3    H275458   2.982   3.408  15.662 -0.8308  0.7027 -0.7045
18015TIP3   OH275459   6.497   2.095   1.597 -0.4069 -0.2483 -0.4017
18015TIP3    H175460   6.488   2.165   1.662  0.9679 -1.5815  1.3139
18015TIP3    H275461   6.408   2.063   1.584 -0.9181  1.1298 -0.4603
18016TIP3   OH275462   1.567   6.342   2.738  0.0392  0.2171 -0.0100
18016TIP3    H175463   1.612   6.290   2.804 -0.6769 -0.8375 -0.3266
18016TIP3    H275464   1.552   6.281   2.665  2.5385  1.8063 -2.0314
18017TIP3   OH275465   0.916   4.690  14.825  0.1508  0.1731 -0.2576
18017TIP3    H175466   0.885   4.771  14.865 -2.2256  0.1681 -1.8787
18017TIP3    H275467   1.011   4.699  14.824  0.1694  1.4811  2.4642
18018TIP3   OH275468   0.338   0.173   7.002 -0.0136 -0.4174 -0.1799
18018TIP3    H175469   0.284   0.102   6.968  1.7340 -2.1377  0.4303
18018TIP3    H275470   0.308   0.184   7.092  0.5039 -1.2762  0.1155
18019TIP3   OH275471   6.189   0.690   4.748  0.2689 -0.1227 -0.0229
18019TIP3    H175472   6.252   0.748   4.791 -0.9639  0.8561  0.5004
18019TIP3    H275473   6.104   0.718   4.780 -0.3863 -2.3213  0.3584
18020TIP3   OH275474   0.894   0.437   6.721  0.1408 -0.0020  0.4678
18020TIP3    H175475   0.906   0.371   6.653 -2.1321 -0.2057  0.1711
18020TIP3    H275476   0.929   0.517   6.684 -0.3753 -0.2747 -0.6536
18021TIP3   OH275477   4.208   0.227  11.985  0.1613  0.2599 -0.3689
18021TIP3    H175478   4.263   0.302  11.964 -0.3512  0.6815 -0.2509
18021TIP3    H275479   4.255   0.182  12.055 -0.4192  1.5592  0.9203
18022TIP3   OH275480   5.962   4.025   4.256 -0.4777  0.6630 -0.2522
18022TIP3    H175481   5.917   4.105   4.282  1.2547  1.7836 -0.5465
18022TIP3    H275482   6.044   4.026   4.306 -0.5316 -1.0809 -0.0594
18023TIP3   OH275483   2.193   5.023  12.554 -0.0497  0.0786  0.3184
18023TIP3    H175484   2.184   5.012  12.648 -0.3319  0.3140  0.3209
18023TIP3    H275485   2.267   4.967  12.530  0.4004  0.4635  0.7650
18024TIP3   OH275486   4.344   4.061  16.290 -0.3242  0.8294 -0.0170
18024TIP3    H175487   4.310   4.150  16.282 -0.8293  0.9590  2.5595
18024TIP3    H275488   4.429   4.071  16.334 -0.3693  0.0669  0.2725
18025TIP3   OH275489   3.568   1.345   5.300  0.3776  0.1488  0.2446
18025TIP3    H175490   3.646   1.399   5.307  0.4549  0.3111 -1.4680
18025TIP3    H275491   3.496   1.402   5.329  0.8105  0.1266  1.4320
18026TIP3   OH275492   3.413   2.544   5.765 -0.5580 -0.0250  0.2554
18026TIP3    H175493   3.466   2.623   5.761 -0.9549  0.4015  2.3783
18026TIP3    H275494   3.469   2.479   5.807 -1.5902  0.4135  2.4598
18027TIP3   OH275495   2.104   3.372   3.337  0.2117 -0.4152 -0.2864
18027TIP3    H175496   2.150   3.456   3.330 -1.3959  0.4035 -1.9085
18027TIP3    H275497   2.013   3.396   3.352 -0.0360 -1.9459  0.9059
18028TIP3   OH275498   0.431   2.775  16.631 -0.1002 -0.0725 -0.6392
18028TIP3    H175499   0.451   2.699  16.576  0.8264  0.3428 -0.8984
18028TIP3    H275500   0.337   2.769  16.647  0.1612 -2.0139  0.4777
18029TIP3   OH275501   2.287   1.036   0.900 -0.4382 -0.5128 -0.1352
18029TIP3    H175502   2.311   1.050   0.808  4.2020  0.6459  1.0310
18029TIP3    H275503   2.287   1.123   0.938 -1.6524 -1.0461  1.1617
18030TIP3   OH275504   4.985   3.062   5.040 -0.6891 -0.4894  0.0651
18030TIP3    H175505   5.012   3.125   4.973  2.6965 -1.5452  0.2534
18030TIP3    H275506   4.922   3.005   4.996 -1.6949  1.2770 -0.9109
18031TIP3   OH275507   4.439   5.328  14.567  0.1850  0.1731 -0.6009
18031TIP3    H175508   4.445   5.281  14.484  0.5779  0.1172 -0.5450
18031TIP3    H275509   4.347   5.352  14.575 -0.0128 -0.5291 -0.6647
18032TIP3   OH275510   6.053   2.616   0.277 -0.2174  0.4187  0.1986
18032TIP3    H175511   6.039   2.621   0.183 -1.7149  0.2500  0.3871
18032TIP3    H275512   6.116   2.686   0.296 -3.1993  3.5078 -0.3723
18033TIP3   OH275513   5.968   3.263   4.787  0.1087  0.3135  0.0314
18033TIP3    H175514   5.892   3.245   4.842  0.0345 -1.4755 -0.5805
18033TIP3    H275515   5.935   3.319   4.716 -1.1408 -1.8950 -1.2435
18034TIP3   OH275516   3.552   3.826  14.856  0.2712 -0.7178 -0.3494
18034TIP3    H175517   3.588   3.746  14.818  0.7600 -0.9094  0.4826
18034TIP3    H275518   3.585   3.826  14.946 -1.2875 -0.5907  0.2617
18035TIP3   OH275519   0.225   4.182   3.012 -0.3219  0.2438  0.4393
18035TIP3    H175520   0.275   4.100   3.017  0.3458  0.4888 -1.3947
18035TIP3    H275521   0.235   4.210   2.921 -1.6561  1.6790  0.7036
18036TIP3   OH275522   2.929   3.693  10.552 -0.0392 -0.1641 -0.0543
18036TIP3    H175523   2.984   3.640  10.494  1.6135 -0.1999  1.4469
18036TIP3    H275524   2.865   3.632  10.587 -0.1936 -0.4382 -0.7943
18037TIP3   OH275525   4.988   0.449  13.243 -0.2581 -0.0071 -0.1632
18037TIP3    H175526   4.985   0.545  13.241  2.4622  0.1960  0.8133
18037TIP3    H275527   5.043   0.425  13.169 -1.0326 -0.8575 -0.4814
18038TIP3   OH275528   0.644   4.778  15.101  0.1798 -0.3554 -0.1369
18038TIP3    H175529   0.597   4.695  15.093 -0.7406  0.1426 -0.0070
18038TIP3    H275530   0.701   4.766  15.176  0.6477 -1.1445 -0.6003
18039TIP3   OH275531   1.011   4.231   0.139  0.1184  0.0411 -0.4659
18039TIP3    H175532   0.973   4.195   0.059 -0.1211 -0.6441 -0.0497
18039TIP3    H275533   1.078   4.168   0.166  1.4048  1.1161 -1.0504
18040TIP3   OH275534   0.555   1.353  13.432 -0.4267 -0.1693 -0.5625
18040TIP3    H175535   0.462   1.370  13.446 -0.8273 -2.0542 -0.7278
18040TIP3    H275536   0.565   1.349  13.337  0.0026  0.7818 -0.5771
18041TIP3   OH275537   0.621   0.598  14.047  0.0961  0.1486 -0.1279
18041TIP3    H175538   0.680   0.554  14.108  3.0328  0.8795 -2.2078
18041TIP3    H275539   0.625   0.690  14.072 -1.0385  0.0910  0.3303
18042TIP3   OH275540   2.919   4.482   4.117 -0.1439 -0.1818  0.1822
18042TIP3    H175541   2.997   4.535   4.100 -0.3002  0.5498  1.5804
18042TIP3    H275542   2.947   4.417   4.181 -0.3473 -0.8276 -0.3654
18043TIP3   OH275543   5.461   2.512  10.835  0.3739 -0.2257 -0.1939
18043TIP3    H175544   5.475   2.569  10.759 -0.3956 -0.7690 -0.7661
18043TIP3    H275545   5.499   2.428  10.808  0.6888 -0.2430  0.2868
18044TIP3   OH275546   4.205   0.275   1.212  0.0151  0.1479  0.1059
18044TIP3    H175547   4.193   0.199   1.269  1.3704  0.1118  0.3747
18044TIP3    H275548   4.293   0.306   1.232  0.8524 -0.3203 -2.4703
18045TIP3   OH275549   3.059   3.061  14.367 -0.3530 -0.3031 -0.0492
18045TIP3    H175550   2.965   3.043  14.377 -0.4617 -0.7831 -1.6074
18045TIP3    H275551   3.077   3.041  14.275  1.3133 -0.3437  0.2613
18046TIP3   OH275552   2.753   2.612  15.499  0.3820  0.1414  0.4258
18046TIP3    H175553   2.704   2.678  15.548  2.5720  1.6271  0.7935
18046TIP3    H275554   2.845   2.633  15.518  1.2029 -3.5891  1.2703
18047TIP3   OH275555   3.912   6.007   4.089  0.0801 -0.6342  0.4934
18047TIP3    H175556   3.848   6.036   4.153  1.2481 -1.0265  1.8861
18047TIP3    H275557   3.872   5.930   4.048 -0.3253 -0.8999  1.3755
18048TIP3   OH275558   5.970   6.658   6.487  0.7385  0.5739 -0.1017
18048TIP3    H175559   6.025   6.584   6.462 -0.2719 -0.7781  1.5146
18048TIP3    H275560   5.989   6.672   6.580  0.8641  2.3470 -0.3548
18049TIP3   OH275561   4.104   5.723   0.955 -0.3171 -0.1641 -0.3824
18049TIP3    H175562   4.142   5.767   0.879  0.1652  0.2474  0.0850
18049TIP3    H275563   4.051   5.790   0.998 -1.3434 -0.6509 -0.8538
18050TIP3   OH275564   4.731   1.105   2.695  0.3427  0.1257 -0.1023
18050TIP3    H175565   4.687   1.021   2.686 -0.4319  0.3961  0.9767
18050TIP3    H275566   4.823   1.086   2.678  0.0745 -0.7955 -0.5711
18051TIP3   OH275567   3.221   6.481  15.145  0.0162  0.9599 -0.1144
18051TIP3    H175568   3.170   6.401  15.131  0.0399  0.3342  2.6720
18051TIP3    H275569   3.156   6.552  15.142 -0.4068  0.5700 -0.1912
18052TIP3   OH275570   3.295   3.493   0.655  0.2656  0.2674 -0.3749
18052TIP3    H175571   3.342   3.445   0.723  1.3514 -0.4546 -1.6031
18052TIP3    H275572   3.223   3.434   0.629 -1.0051  1.1165  1.0713
18053TIP3   OH275573   3.081   0.740   6.373  0.7692  0.0991  0.0714
18053TIP3    H175574   3.157   0.750   6.429 -0.2284 -0.0896  1.5281
18053TIP3    H275575   3.052   0.650   6.388  0.5560 -0.0079 -0.8793
18054TIP3   OH275576   2.841   4.781  15.110 -0.3015 -0.1940  0.0003
18054TIP3    H175577   2.799   4.702  15.076 -0.5504 -0.6579  1.3293
18054TIP3    H275578   2.834   4.773  15.205  2.5869 -0.1935  0.3043
18055TIP3   OH275579   5.014   5.531   3.469 -0.6837  0.4963 -0.3231
18055TIP3    H175580   5.042   5.586   3.396  2.2817 -1.1910 -0.6013
18055TIP3    H275581   5.087   5.533   3.530 -2.7721  1.2473  2.3737
18056TIP3   OH275582   5.632   1.147  12.705  0.3087  0.2847 -0.3684
18056TIP3    H175583   5.607   1.055  12.701 -0.0359  0.3408  0.3345
18056TIP3    H275584   5.551   1.194  12.726  0.6192  0.6697  0.0031
18057TIP3   OH275585   2.340   2.845  14.571  0.3299  0.1577 -0.4107
18057TIP3    H175586   2.252   2.818  14.546  1.3326 -0.7588 -3.4697
18057TIP3    H275587   2.388   2.763  14.582  1.4140  0.6044 -1.5426
18058TIP3   OH275588   5.573   2.331  16.158 -0.6810 -0.0178  0.3432
18058TIP3    H175589   5.489   2.350  16.199 -0.9515  0.3651 -0.3561
18058TIP3    H275590   5.568   2.374  16.072  1.2747  2.4021  1.3075
18059TIP3   OH275591   5.899   4.611   2.957  0.0415 -0.5778 -0.1561
18059TIP3    H175592   5.860   4.566   2.882 -0.4239 -2.1781  0.9954
18059TIP3    H275593   5.970   4.553   2.986 -0.3370 -0.4150  1.1552
18060TIP3   OH275594   2.316   0.388   0.907  0.2569 -0.0610 -0.0827
18060TIP3    H175595   2.240   0.384   0.966 -0.5715  2.0080 -0.9353
18060TIP3    H275596   2.364   0.466   0.935  1.6180 -0.8367 -0.1498
18061TIP3   OH275597   0.989   0.568   4.176 -0.1545 -0.6935  0.1008
18061TIP3    H175598   0.974   0.496   4.115 -0.7290 -1.0734  0.6758
18061TIP3    H275599   0.912   0.624   4.166 -0.4550 -0.9758  0.7675
18062TIP3   OH275600   1.330   4.457  16.547 -0.3546 -0.1063 -0.5961
18062TIP3    H175601   1.312   4.512  16.471  1.1440  0.1651 -0.7953
18062TIP3    H275602   1.395   4.507  16.597 -1.3835 -0.2312  0.9324
18063TIP3   OH275603   6.421   5.038  14.961  0.4229  0.3977 -0.0981
18063TIP3    H175604   6.486   5.004  14.899 -0.4076 -1.8634  0.1920
18063TIP3    H275605   6.461   5.119  14.994  2.5901 -0.3090 -0.7748
18064TIP3   OH275606   2.435   6.486   4.802  0.5033  0.3949  0.7215
18064TIP3    H175607   2.464   6.518   4.888 -1.7933  0.1530  1.6450
18064TIP3    H275608   2.465   6.395   4.800 -1.3384 -0.3171  2.2974
18065TIP3   OH275609   5.091   6.519  11.235 -0.2750 -0.0542 -0.1222
18065TIP3    H175610   5.061   6.474  11.157 -2.1094  0.6247  0.1434
18065TIP3    H275611   5.143   6.454  11.282 -0.0596 -0.8041 -1.3632
18066TIP3   OH275612   5.693   1.439  12.449  0.2506 -0.2449 -0.0696
18066TIP3    H175613   5.605   1.437  12.411  0.6781 -0.5219 -1.0712
18066TIP3    H275614   5.724   1.528  12.435  0.1153 -0.1310  0.3342
18067TIP3   OH275615   6.524   3.447  16.795 -0.2238  0.3501  0.2170
18067TIP3    H175616   6.485   3.535  16.803  0.2856  0.6228 -0.2249
18067TIP3    H275617   6.531   3.433  16.701 -1.9272 -0.9122  0.2385
18068TIP3   OH275618   5.480   2.346  15.675 -0.3576  0.6863 -0.0326
18068TIP3    H175619   5.466   2.429  15.630  0.1766 -0.1486 -1.8353
18068TIP3    H275620   5.575   2.333  15.671  0.1352  1.8787  3.8712
18069TIP3   OH275621   0.707   0.654   5.226  0.8129  0.5131  0.2358
18069TIP3    H175622   0.678   0.613   5.308 -2.1700  0.8621 -0.5372
18069TIP3    H275623   0.664   0.739   5.224  1.3580  0.7932 -1.4084
18070TIP3   OH275624   5.173   4.564   2.417  0.8693 -0.1057 -0.5025
18070TIP3    H175625   5.225   4.634   2.456  0.6007  0.3390 -0.9345
18070TIP3    H275626   5.096   4.608   2.381  0.6740 -0.6278 -0.7330
18071TIP3   OH275627   1.618   3.440   4.251  0.1027 -0.1248  0.0664
18071TIP3    H175628   1.700   3.478   4.283  1.0610 -1.2913 -0.9261
18071TIP3    H275629   1.637   3.347   4.240 -0.8775 -0.1640 -1.6416
18072TIP3   OH275630   1.399   5.012  12.403 -0.3858  0.2254  0.0769
18072TIP3    H175631   1.443   4.987  12.322 -0.9163  0.9046 -0.4341
18072TIP3    H275632   1.459   4.986  12.473  0.6016  0.6992 -0.5812
18073TIP3   OH275633   3.191   4.485   3.513  0.4915  0.0752  0.4070
18073TIP3    H175634   3.272   4.436   3.498 -0.4750 -1.2259 -0.8345
18073TIP3    H275635   3.198   4.561   3.454  0.5329 -0.4006 -0.2172
18074TIP3   OH275636   5.374   2.864   1.633 -0.0360 -0.2550  0.5186
18074TIP3    H175637   5.409   2.948   1.662  0.9351 -1.1530  2.0697
18074TIP3    H275638   5.279   2.875   1.635  0.0399  1.4384 -1.3770
18075TIP3   OH275639   6.301   4.890  16.472 -0.0905  0.1271 -0.1595
18075TIP3    H175640   6.266   4.806  16.502  0.7638 -0.6846 -1.3591
18075TIP3    H275641   6.224   4.947  16.469 -0.7389 -0.6875  0.3775
18076TIP3   OH275642   4.823   6.337   0.314 -0.2005  0.2285 -0.2249
18076TIP3    H175643   4.882   6.316   0.241  0.1230  3.4790 -1.0520
18076TIP3    H275644   4.743   6.288   0.294  0.0690  0.5973 -2.4936
18077TIP3   OH275645   6.170   6.447   3.533 -1.0844  0.4326  0.0336
18077TIP3    H175646   6.099   6.488   3.582 -0.3490 -0.0958  1.6270
18077TIP3    H275647   6.199   6.374   3.589  0.9822  0.8910 -0.3388
18078TIP3   OH275648   0.536   2.043   4.986  0.2832 -0.3942  0.1609
18078TIP3    H175649   0.585   2.125   4.979  2.8407 -1.7969  0.4573
18078TIP3    H275650   0.503   2.027   4.897 -0.0175  0.7872  0.0411
18079TIP3   OH275651   3.940   1.147   5.567 -0.7400 -0.0992 -0.3437
18079TIP3    H175652   4.009   1.186   5.513  0.8162  0.4079  1.8576
18079TIP3    H275653   3.980   1.139   5.654 -2.0681 -3.6867  0.1045
18080TIP3   OH275654   5.935   2.680   3.267 -0.1629 -0.8854  0.1629
18080TIP3    H175655   6.001   2.713   3.327 -0.4016  2.5569 -1.2443
18080TIP3    H275656   5.852   2.710   3.303 -0.2301  2.5211 -2.3797
18081TIP3   OH275657   6.052   4.740  15.364  0.0712 -0.3226  0.2685
18081TIP3    H175658   6.121   4.797  15.400 -3.2161  3.4589  1.3406
18081TIP3    H275659   6.066   4.656  15.406  4.9066 -0.4034 -0.8813
18082TIP3   OH275660   1.190   6.692  13.303 -0.1044  0.1087 -0.6162
18082TIP3    H175661   1.191   6.603  13.338  0.2085 -0.4176 -1.8878
18082TIP3    H275662   1.097   6.716  13.304 -0.5092 -1.1646 -2.4061
18083TIP3   OH275663   3.802   2.379  15.041  0.0674  0.2239  0.3485
18083TIP3    H175664   3.897   2.390  15.034 -0.1589  1.0840 -3.3657
18083TIP3    H275665   3.790   2.286  15.060  1.6319 -0.0240  0.2625
18084TIP3   OH275666   2.239   6.005   2.150 -0.3269  0.6899 -0.1520
18084TIP3    H175667   2.290   6.010   2.069  0.4932 -0.0547  0.3094
18084TIP3    H275668   2.289   6.056   2.213 -1.4955  2.1621 -0.3482
18085TIP3   OH275669   3.423   6.519   2.004  0.4440 -0.1975 -0.4066
18085TIP3    H175670   3.450   6.536   2.094 -2.5703  2.2426  0.2335
18085TIP3    H275671   3.434   6.603   1.960  0.3992 -0.9439 -1.8971
18086TIP3   OH275672   3.400   3.971   4.339 -0.3180 -0.8963 -0.1210
18086TIP3    H175673   3.447   3.922   4.407  0.0938 -0.7039 -0.2650
18086TIP3    H275674   3.336   3.909   4.305 -2.3051 -0.2616  2.1974
18087TIP3   OH275675   0.321   1.149   6.501 -0.2639  0.0698 -0.5520
18087TIP3    H175676   0.339   1.225   6.556 -1.0124  0.1582 -0.4137
18087TIP3    H275677   0.240   1.173   6.454  0.0291 -0.2474 -1.2346
18088TIP3   OH275678   5.574   4.066   5.981 -0.0741 -0.0784 -0.0503
18088TIP3    H175679   5.572   4.152   6.024  1.7687  0.7117 -1.4194
18088TIP3    H275680   5.482   4.041   5.976 -0.6889  1.8772  0.2968
18089TIP3   OH275681   4.374   2.301   4.479  0.0686 -0.0505 -0.1173
18089TIP3    H175682   4.319   2.377   4.499 -0.0836 -0.1563 -0.1402
18089TIP3    H275683   4.453   2.315   4.532 -0.2369 -0.2146  0.3849
18090TIP3   OH275684   1.000   6.139  13.160 -0.2174  0.1163  0.4478
18090TIP3    H175685   0.932   6.131  13.227 -1.6079  0.9696 -0.7780
18090TIP3    H275686   0.952   6.158  13.080  1.5458  3.0432 -0.0761
18091TIP3   OH275687   1.192   0.739  16.271 -0.2667 -0.0940  0.9054
18091TIP3    H175688   1.238   0.783  16.199 -1.0489 -0.8968 -0.1254
18091TIP3    H275689   1.099   0.757  16.254 -0.4955 -0.7930  1.3724
18092TIP3   OH275690   2.005   1.904  11.850 -0.0103  0.0629  0.1100
18092TIP3    H175691   1.917   1.938  11.866 -0.7478 -0.4722 -2.4218
18092TIP3    H275692   2.033   1.871  11.935 -2.6615 -0.6983  0.7890
18093TIP3   OH275693   3.337   4.725   5.457  0.5452  0.2279 -0.1049
18093TIP3    H175694   3.280   4.801   5.442 -1.5401 -1.2630 -0.1570
18093TIP3    H275695   3.348   4.721   5.552  0.3196  0.3498 -0.0726
18094TIP3   OH275696   1.480   3.500  16.078  0.0011 -0.0870  0.1684
18094TIP3    H175697   1.440   3.422  16.039  2.5103 -0.6564 -1.4977
18094TIP3    H275698   1.452   3.571  16.021 -0.0215 -0.2036  0.0319
18095TIP3   OH275699   5.902   2.065   5.670  0.2461  0.2034 -0.0821
18095TIP3    H175700   5.915   2.135   5.734  1.3395  0.0362 -0.1099
18095TIP3    H275701   5.853   2.106   5.599  0.1790  0.7323  0.2668
18096TIP3   OH275702   6.387   0.940  11.875 -0.0301  1.0538  0.3959
18096TIP3    H175703   6.336   0.861  11.896 -0.3748  0.3662 -2.5296
18096TIP3    H275704   6.478   0.914  11.888 -0.1877  0.5253  0.4677
18097TIP3   OH275705   5.191   3.429  13.895  0.3528  0.1994 -0.1901
18097TIP3    H175706   5.217   3.512  13.935 -0.1264 -0.3265  1.3031
18097TIP3    H275707   5.272   3.380  13.885  0.4387  0.1640  0.6065
18098TIP3   OH275708   2.329   1.395   2.726 -0.2584  0.3276 -0.0987
18098TIP3    H175709   2.298   1.306   2.707  0.4746 -0.3412  1.6419
18098TIP3    H275710   2.257   1.435   2.775  0.6546 -0.4904  2.0380
18099TIP3   OH275711   4.410   5.873   3.146  0.4817 -0.1886 -0.1533
18099TIP3    H175712   4.465   5.951   3.139 -0.1522  0.3729  0.7892
18099TIP3    H275713   4.320   5.906   3.136  0.2062 -0.8054  0.2158
18100TIP3   OH275714   1.166   3.396   2.193 -0.1401  0.1282 -0.5633
18100TIP3    H175715   1.072   3.405   2.178 -0.2695 -0.0249  0.1393
18100TIP3    H275716   1.185   3.304   2.173  0.1410  0.4845 -2.1235
18101TIP3   OH275717   2.010   4.160   5.689  0.1847  0.3385  0.0333
18101TIP3    H175718   2.046   4.248   5.677  2.2015 -0.2204  1.4274
18101TIP3    H275719   2.052   4.108   5.621 -1.0041  0.4060 -0.7877
18102TIP3   OH275720   0.001   0.168  17.617 -0.2860  0.0518 -0.5831
18102TIP3    H175721  -0.026   0.183  17.707  0.5679  2.6732 -0.6804
18102TIP3    H275722  -0.081   0.163  17.567 -0.7289  0.9125  0.0452
18103TIP3   OH275723   4.088   1.224   0.112 -0.3515 -0.7544 -0.0734
18103TIP3    H175724   4.078   1.258   0.023  1.2049 -0.0483  0.0001
18103TIP3    H275725   4.041   1.140   0.111 -2.8138  0.5381 -0.7408
18104TIP3   OH275726   3.865   1.662   4.464  0.1677 -0.0040 -0.0722
18104TIP3    H175727   3.843   1.627   4.551  0.1566 -0.9116 -0.4263
18104TIP3    H275728   3.845   1.755   4.470 -1.4428 -0.3467  0.3981
18105TIP3   OH275729   6.450   4.297   4.552 -0.2218  0.9065 -0.2799
18105TIP3    H175730   6.450   4.377   4.604 -0.7523  1.8458 -1.6618
18105TIP3    H275731   6.479   4.325   4.465 -1.3567 -0.2221 -1.0484
18106TIP3   OH275732   1.729   2.772   6.792  0.3042  0.3533  0.0984
18106TIP3    H175733   1.674   2.850   6.802  0.1927  0.5001 -1.4027
18106TIP3    H275734   1.682   2.717   6.730 -0.1348 -1.4532  1.9217
18107TIP3   OH275735   5.966   5.477   5.209  0.5512  0.2208  0.0980
18107TIP3    H175736   6.028   5.492   5.136 -0.7169 -4.9347 -2.4677
18107TIP3    H275737   5.908   5.408   5.178 -3.2922  1.0556  4.3657
18108TIP3   OH275738   6.572   3.409   5.423  0.2679  0.1495 -0.1693
18108TIP3    H175739   6.582   3.352   5.499  2.1019  0.5481 -0.0727
18108TIP3    H275740   6.553   3.349   5.351  0.3406 -0.4086  0.2715
18109TIP3   OH275741   3.026   3.073   5.172  0.0319 -0.2120 -0.5933
18109TIP3    H175742   2.954   3.108   5.121 -0.3638 -0.6462 -0.3458
18109TIP3    H275743   3.104   3.092   5.120 -0.4638 -1.7018 -1.9597
18110TIP3   OH275744   6.259   1.558   4.580 -0.4782 -0.2402  0.2956
18110TIP3    H175745   6.165   1.563   4.563 -0.2781 -1.0391 -1.2376
18110TIP3    H275746   6.267   1.561   4.675 -2.0913 -0.6806  0.4626
18111TIP3   OH275747   4.735   0.714   3.606  0.1909  0.0430 -0.2505
18111TIP3    H175748   4.699   0.786   3.658  1.6761 -0.1731  1.1678
18111TIP3    H275749   4.717   0.738   3.515  0.0982  1.8997  0.2246
18112TIP3   OH275750   4.785   0.262   1.251  0.1937 -0.2001 -0.3098
18112TIP3    H175751   4.783   0.269   1.156  0.7900 -0.4087 -0.3432
18112TIP3    H275752   4.695   0.240   1.276  0.3502 -1.7114 -0.9634
18113TIP3   OH275753   4.976   1.769   2.583 -0.3319 -0.4252 -0.3023
18113TIP3    H175754   4.967   1.674   2.578  0.7750 -0.5752  0.3134
18113TIP3    H275755   5.057   1.788   2.535 -1.2681  0.3687 -1.6323
18114TIP3   OH275756   2.638   3.534   6.519  0.0919 -0.1850  0.0814
18114TIP3    H175757   2.721   3.537   6.567 -0.3279 -2.1451  1.0349
18114TIP3    H275758   2.635   3.446   6.482 -0.8675  0.3829 -1.2665
18115TIP3   OH275759   4.527   1.041  15.345 -0.0097  0.2927 -0.1223
18115TIP3    H175760   4.475   0.962  15.358 -1.8498  1.4629 -0.0921
18115TIP3    H275761   4.585   1.045  15.421  0.0979 -0.9951 -0.1228
18116TIP3   OH275762   5.256   3.150   2.510 -0.2145 -0.3080 -0.1240
18116TIP3    H175763   5.259   3.246   2.518  0.3277 -0.4411  1.7866
18116TIP3    H275764   5.164   3.128   2.523 -0.2367 -0.0876  0.1099
18117TIP3   OH275765   0.664   2.025   0.021 -0.0752 -0.1139  0.4752
18117TIP3    H175766   0.573   2.056   0.028 -0.6007 -0.9224 -1.9186
18117TIP3    H275767   0.668   1.948   0.076 -0.6567  0.3027  1.1112
18118TIP3   OH275768   0.285   4.863  12.212  0.1569 -0.2222 -0.7721
18118TIP3    H175769   0.267   4.950  12.248 -0.9136 -1.0951  0.9486
18118TIP3    H275770   0.331   4.880  12.130 -2.2930  2.0614 -1.8389
18119TIP3   OH275771   3.942   2.784   3.096 -0.1890  0.1081 -0.2254
18119TIP3    H175772   3.984   2.724   3.034  0.2533  0.2184 -0.0374
18119TIP3    H275773   3.965   2.749   3.182  0.5303  0.8416 -0.1017
18120TIP3   OH275774   6.055   0.990  16.701  0.5604 -0.1136 -0.0674
18120TIP3    H175775   6.054   1.005  16.606 -0.9674 -1.8803 -0.3919
18120TIP3    H275776   6.148   0.979  16.722  0.8087 -2.3726 -1.8965
18121TIP3   OH275777   4.756   2.185  15.732 -0.1040  0.0054  0.4732
18121TIP3    H175778   4.849   2.171  15.750 -0.2805 -1.7004  0.2629
18121TIP3    H275779   4.712   2.158  15.812 -0.3965  1.7530  0.9341
18122TIP3   OH275780   1.170   5.220   0.964 -0.3533  0.2588 -0.2081
18122TIP3    H175781   1.206   5.132   0.950  1.0816  0.8164 -0.1697
18122TIP3    H275782   1.196   5.243   1.053 -0.2532  0.9403 -0.4122
18123TIP3   OH275783   2.448   3.710   6.324 -0.1633 -0.0433  0.4285
18123TIP3    H175784   2.494   3.660   6.391  0.7207  0.2362  0.0498
18123TIP3    H275785   2.356   3.710   6.352 -0.3746 -2.6292 -0.0244
18124TIP3   OH275786   2.643   1.242   2.016 -0.2114 -0.1554 -0.0062
18124TIP3    H175787   2.680   1.318   2.061 -1.5613  0.4763  0.0666
18124TIP3    H275788   2.709   1.219   1.951  1.4649 -0.6490  1.7705
18125TIP3   OH275789   5.039   0.699   6.639  0.8513 -0.1373 -0.6463
18125TIP3    H175790   5.028   0.611   6.674  1.1475 -0.1344 -0.5516
18125TIP3    H275791   5.027   0.689   6.544  1.8831 -0.4441 -0.7533
18126TIP3   OH275792   0.447   4.876   5.427  0.2861  0.2113 -0.2693
18126TIP3    H175793   0.425   4.877   5.520  0.4109 -0.4101 -0.2276
18126TIP3    H275794   0.488   4.790   5.413  0.4658  0.3869 -0.8501
18127TIP3   OH275795   4.170   4.869  13.032 -0.0812 -0.0601  0.4175
18127TIP3    H175796   4.239   4.908  12.978 -0.9104  1.9365  0.7353
18127TIP3    H275797   4.208   4.862  13.119 -0.4677  1.6501  0.7420
18128TIP3   OH275798   4.525   5.857  13.283  0.0523  0.0894 -0.4524
18128TIP3    H175799   4.566   5.855  13.196 -0.9099 -1.5963 -0.9136
18128TIP3    H275800   4.461   5.928  13.276 -1.0529 -0.9564 -1.6758
18129TIP3   OH275801   3.523   2.567   6.471 -0.1646  0.4064 -0.3274
18129TIP3    H175802   3.619   2.562   6.465 -0.1940 -1.0643 -0.0607
18129TIP3    H275803   3.506   2.620   6.548  0.4697 -0.3616  0.3564
18130TIP3   OH275804   6.236   4.325   2.043 -0.0223 -0.1590  0.7407
18130TIP3    H175805   6.256   4.383   1.969 -0.5035 -0.0836  0.6702
18130TIP3    H275806   6.303   4.257   2.038  0.1717  0.0478  0.4533
18131TIP3   OH275807   0.065   1.296   2.729 -0.3459  0.6011 -0.4354
18131TIP3    H175808   0.023   1.285   2.644  0.3018  0.2361 -0.7229
18131TIP3    H275809   0.124   1.221   2.736 -1.2328 -0.0079  0.8594
18132TIP3   OH275810   0.374   2.018   4.743 -0.6229 -0.4068 -0.3194
18132TIP3    H175811   0.345   1.974   4.662  0.9835 -2.7365  0.2824
18132TIP3    H275812   0.344   1.961   4.813 -0.6592  0.8088  0.6864
18133TIP3   OH275813   4.608   3.870  13.132 -0.2089  0.0401  0.2760
18133TIP3    H175814   4.661   3.791  13.118 -0.6989 -0.4664  1.1581
18133TIP3    H275815   4.537   3.841  13.189  0.2914  1.3945  1.6675
18134TIP3   OH275816   0.740   1.660  17.173  0.3801 -0.1153  0.2924
18134TIP3    H175817   0.651   1.635  17.150 -0.1052  0.9310  0.9409
18134TIP3    H275818   0.789   1.655  17.091 -0.6383  0.7895 -0.3922
18135TIP3   OH275819   3.393   0.357   4.464  0.1785 -0.2149  0.1576
18135TIP3    H175820   3.434   0.396   4.387  0.3521 -0.2322  0.2384
18135TIP3    H275821   3.382   0.430   4.525 -1.2284  0.0627 -0.4054
18136TIP3   OH275822   2.843   5.378   5.298 -0.1964  0.0618  0.0379
18136TIP3    H175823   2.794   5.362   5.218  0.3074  2.0420 -0.7346
18136TIP3    H275824   2.777   5.380   5.368 -0.6642 -1.4572 -0.3313
18137TIP3   OH275825   3.104   2.999   6.487  0.1250  0.2294  0.4957
18137TIP3    H175826   3.098   2.931   6.554  1.0864 -0.3952 -0.0362
18137TIP3    H275827   3.192   3.035   6.496  0.4175 -0.1561 -0.7070
18138TIP3   OH275828   2.036   4.253   4.291  0.3144 -0.4195 -0.6731
18138TIP3    H175829   2.000   4.260   4.379  0.7490  1.8128 -0.6089
18138TIP3    H275830   2.086   4.171   4.292  0.2276 -0.4891  1.1320
18139TIP3   OH275831   6.139   0.681   5.999 -0.8460 -0.6355 -0.1067
18139TIP3    H175832   6.069   0.647   5.944 -1.4969 -0.1193  0.3869
18139TIP3    H275833   6.101   0.684   6.087 -0.5476  0.6152 -0.0075
18140TIP3   OH275834   3.023   0.129   0.726  0.0413  0.2270 -0.2043
18140TIP3    H175835   2.986   0.048   0.691 -1.2871  1.3100 -1.4304
18140TIP3    H275836   2.948   0.172   0.768  1.1327 -0.0162  2.1624
18141TIP3   OH275837   5.898   0.072  13.174  0.3227  0.4725  0.1592
18141TIP3    H175838   5.841   0.109  13.106  0.4305 -0.1474 -0.2741
18141TIP3    H275839   5.963   0.020  13.126 -0.5504 -1.2926  0.7939
18142TIP3   OH275840   1.854   2.341   4.952 -0.2911 -0.4514  0.4322
18142TIP3    H175841   1.938   2.295   4.942 -0.1201  0.1276 -0.9765
18142TIP3    H275842   1.874   2.414   5.011  0.9122  1.2451 -1.9014
18143TIP3   OH275843   5.226   5.548  15.219  0.4825  0.4154  0.0291
18143TIP3    H175844   5.267   5.615  15.164 -1.0296 -0.3021 -2.0952
18143TIP3    H275845   5.223   5.587  15.307  1.1872  2.4135 -0.7781
18144TIP3   OH275846   0.287   5.938   2.496  0.0790 -0.2285  0.2724
18144TIP3    H175847   0.219   6.006   2.496 -0.5404 -0.8272  0.4196
18144TIP3    H275848   0.369   5.986   2.492 -0.3671  0.4955 -1.0033
18145TIP3   OH275849   2.393   4.672  16.754 -0.5910 -0.0200 -0.3122
18145TIP3    H175850   2.448   4.695  16.679 -0.6131  2.3240  0.2945
18145TIP3    H275851   2.305   4.702  16.729 -1.1618 -1.6642 -0.3771
18146TIP3   OH275852   4.910   6.366  14.468  0.1697 -0.0002  0.2433
18146TIP3    H175853   4.869   6.360  14.554  1.1609  1.4511  0.8470
18146TIP3    H275854   4.924   6.460  14.454  1.4842 -0.3187 -0.7872
18147TIP3   OH275855   1.804   4.316  11.824  0.1262 -0.1758  0.1875
18147TIP3    H175856   1.794   4.247  11.759 -0.4312  0.1254 -0.0556
18147TIP3    H275857   1.893   4.304  11.859  1.1180  0.7318 -1.8724
18148TIP3   OH275858   5.044   0.475  13.792  0.3298  0.5583  0.0683
18148TIP3    H175859   5.120   0.464  13.849 -0.8232 -0.4484  1.4743
18148TIP3    H275860   5.079   0.517  13.714  2.2394  0.5734  0.8765
18149TIP3   OH275861   4.260   4.420  14.064  0.1763 -0.0071  0.2721
18149TIP3    H175862   4.284   4.394  14.153 -0.2387  0.5865  0.5619
18149TIP3    H275863   4.331   4.477  14.036 -0.6274  1.3716  0.9559
18150TIP3   OH275864   1.170   6.484   2.752 -0.4096  0.6080  0.3424
18150TIP3    H175865   1.234   6.544   2.716  0.4890  0.4553  1.6142
18150TIP3    H275866   1.102   6.478   2.685  0.0003  2.1999 -0.2553
18151TIP3   OH275867   5.942   5.782  11.379  0.6003  0.9327  0.2772
18151TIP3    H175868   5.857   5.814  11.349  0.1223 -0.7862 -0.3392
18151TIP3    H275869   6.006   5.839  11.336 -0.1995  0.8534 -1.0594
18152TIP3   OH275870   4.754   1.695   0.736 -0.7145  0.1111 -0.6099
18152TIP3    H175871   4.743   1.600   0.732 -1.5073  0.1088  0.8562
18152TIP3    H275872   4.840   1.711   0.698  0.6985 -1.4918  1.6943
18153TIP3   OH275873   4.055   4.928   3.936 -0.3190  0.1099 -0.1859
18153TIP3    H175874   4.106   4.932   3.855 -2.9902  2.5235 -1.9270
18153TIP3    H275875   4.047   4.834   3.955  1.4607 -0.4631 -1.9315
18154TIP3   OH275876   1.298   3.435  15.440  0.4076  0.2156 -0.2760
18154TIP3    H175877   1.371   3.495  15.424 -0.7068  1.6753 -0.1285
18154TIP3    H275878   1.222   3.477  15.400 -0.9461  0.2538  2.0821
18155TIP3   OH275879   5.082   6.287   2.763 -0.1505 -0.1317 -0.3488
18155TIP3    H175880   5.004   6.267   2.712  0.8038 -0.3986 -1.7585
18155TIP3    H275881   5.135   6.208   2.758 -0.3132 -0.4349  1.6766
18156TIP3   OH275882   2.859   4.871   1.821 -0.2109 -0.0026  0.3221
18156TIP3    H175883   2.830   4.935   1.757  0.0787  0.1703  0.3640
18156TIP3    H275884   2.778   4.829   1.851 -0.4313  0.5512  0.5211
18157TIP3   OH275885   3.431   1.706   5.060  0.2058  0.4029 -1.2193
18157TIP3    H175886   3.521   1.726   5.037 -0.3506  0.9934 -3.1268
18157TIP3    H275887   3.379   1.771   5.012 -1.2344  0.0741 -0.1777
18158TIP3   OH275888   4.004   3.094   5.431  0.1739  0.2546  0.6178
18158TIP3    H175889   4.030   3.174   5.476  2.0610  0.9361 -1.4943
18158TIP3    H275890   4.053   3.024   5.475  0.8719  0.7031  0.5631
18159TIP3   OH275891   5.886   0.648   3.729  0.0020 -0.1498  0.4248
18159TIP3    H175892   5.968   0.666   3.683 -0.9290  1.4980 -0.6975
18159TIP3    H275893   5.887   0.708   3.803  0.4709 -1.2096  1.3022
18160TIP3   OH275894   1.479   1.310  13.476  0.3658 -0.1531  0.3514
18160TIP3    H175895   1.516   1.240  13.423  0.2468  0.2993 -0.3497
18160TIP3    H275896   1.385   1.303  13.463  0.3149 -0.2296  0.7535
18161TIP3   OH275897   5.715   4.936  13.948  0.1359  0.1168 -0.1796
18161TIP3    H175898   5.650   5.004  13.969  0.4467  0.7243 -1.1188
18161TIP3    H275899   5.767   4.928  14.027  1.3404  2.4053 -0.6423
18162TIP3   OH275900   1.298   2.313  16.629 -0.2848  0.3967 -0.2968
18162TIP3    H175901   1.251   2.356  16.701 -1.7148 -1.5578 -0.0012
18162TIP3    H275902   1.321   2.227  16.664  0.8063  0.1768 -1.5121
18163TIP3   OH275903   1.763   0.292  11.666 -0.6820 -0.2172  0.8116
18163TIP3    H175904   1.704   0.326  11.734  2.2001  3.3468  1.8827
18163TIP3    H275905   1.804   0.370  11.629  1.6030 -2.3401 -1.5291
18164TIP3   OH275906   4.151   3.831  14.019 -0.3260 -0.4005  0.4594
18164TIP3    H175907   4.212   3.795  14.082 -0.4600 -1.7192 -0.1307
18164TIP3    H275908   4.112   3.755  13.976 -0.5612  0.4458 -0.9087
18165TIP3   OH275909   4.803   4.994   2.518 -0.9548 -0.1391  0.1187
18165TIP3    H175910   4.829   5.083   2.495 -2.0628  0.3593  0.7018
18165TIP3    H275911   4.737   5.005   2.587  0.4401 -1.4855  1.7825
18166TIP3   OH275912   2.194   6.698  13.462  0.0838  0.5639  0.2277
18166TIP3    H175913   2.288   6.707  13.478  0.3134  2.4684 -1.7790
18166TIP3    H275914   2.182   6.606  13.441  1.4058  0.2021  0.9086
18167TIP3   OH275915   6.225   1.865   1.062 -0.0881  0.1696  0.5477
18167TIP3    H175916   6.234   1.874   1.157 -4.4330  0.5187  1.1176
18167TIP3    H275917   6.286   1.794   1.039  1.2684  0.2296  3.5076
18168TIP3   OH275918   5.455   1.741  11.178  1.2221 -0.0425 -0.1894
18168TIP3    H175919   5.468   1.757  11.272  0.8889  1.3697 -0.3603
18168TIP3    H275920   5.362   1.717  11.171  1.1750  0.1450 -0.1979
18169TIP3   OH275921   1.145   5.591   0.072 -0.3723  0.1574 -0.6518
18169TIP3    H175922   1.132   5.630   0.159 -0.0467 -0.6729 -0.2166
18169TIP3    H275923   1.193   5.657   0.023  1.7759 -0.3378  0.6390
18170TIP3   OH275924   2.237   1.491  16.929  0.4727  0.3968  0.0032
18170TIP3    H175925   2.215   1.510  17.020  1.7306 -1.5207  0.7794
18170TIP3    H275926   2.312   1.549  16.910  1.7095 -0.8129  1.0025
18171TIP3   OH275927   3.497   5.278   1.604 -0.6945  0.2594  0.0367
18171TIP3    H175928   3.484   5.239   1.517 -0.4702 -0.5862  0.3758
18171TIP3    H275929   3.480   5.371   1.590 -0.2683  0.2044 -1.0125
18172TIP3   OH275930   1.975   4.072   2.412  0.3392  0.3818 -0.1069
18172TIP3    H175931   1.952   3.982   2.437 -3.3025  1.4274  0.9096
18172TIP3    H275932   2.042   4.098   2.475  0.1903 -1.0724  0.6958
18173TIP3   OH275933   5.414   5.569   0.258  0.3451 -0.0541 -0.1673
18173TIP3    H175934   5.488   5.510   0.273  0.5693 -0.0359 -1.1695
18173TIP3    H275935   5.454   5.650   0.226  0.1460  1.0818  2.2124
18174TIP3   OH275936   3.328   5.063  17.288  0.0432 -0.3595  0.0289
18174TIP3    H175937   3.256   5.126  17.287  0.1074 -0.2470 -1.8286
18174TIP3    H275938   3.288   4.979  17.309 -0.5879 -0.2521 -0.7405
18175TIP3   OH275939   6.400   0.524   0.846 -0.1301 -0.5017  0.8851
18175TIP3    H175940   6.475   0.543   0.902 -0.8176  0.6711  1.4634
18175TIP3    H275941   6.425   0.446   0.797  2.2460  0.9353 -0.3785
18176TIP3   OH275942   4.975   3.766   5.167  0.0232  0.1709 -0.7086
18176TIP3    H175943   5.006   3.856   5.174 -0.7008  0.3349  0.5296
18176TIP3    H275944   4.951   3.757   5.075  1.3469  0.8034 -1.1534
18177TIP3   OH275945   0.704   6.294   2.467 -0.1720 -0.3978  0.0422
18177TIP3    H175946   0.664   6.332   2.389  0.1777  0.1700  0.1330
18177TIP3    H275947   0.792   6.268   2.439  0.1318  0.2642  0.3735
18178TIP3   OH275948   1.863   5.911  11.878  0.5531 -0.5579 -0.1362
18178TIP3    H175949   1.892   5.901  11.969 -0.4522  1.0410  0.4125
18178TIP3    H275950   1.805   5.836  11.863 -1.8346  0.7641  1.6876
18179TIP3   OH275951   0.314   3.417  17.621 -0.8015  0.1495  0.5473
18179TIP3    H175952   0.307   3.512  17.629  0.1718  0.2215  0.6583
18179TIP3    H275953   0.323   3.402  17.527 -2.9143  0.0006  0.3247
18180TIP3   OH275954   3.659   4.722   5.071 -0.2649 -0.2335 -0.0539
18180TIP3    H175955   3.726   4.739   5.004  0.8881 -0.3834  1.0168
18180TIP3    H275956   3.704   4.668   5.136 -1.3489 -0.0573  0.8657
18181TIP3   OH275957   5.358   0.038  16.701 -0.8953 -0.0313 -0.0454
18181TIP3    H175958   5.403   0.119  16.727 -1.3941  0.8721 -1.8306
18181TIP3    H275959   5.274   0.068  16.665 -1.9173 -1.5100  1.0070
18182TIP3   OH275960   6.260   5.660  13.848 -0.2641  0.1443 -0.1368
18182TIP3    H175961   6.270   5.590  13.783 -0.1404  1.1144 -1.1935
18182TIP3    H275962   6.166   5.664  13.865 -0.5723  1.2361 -1.8433
18183TIP3   OH275963   2.030   5.172   1.024  0.3152  0.4276  0.3043
18183TIP3    H175964   1.945   5.205   1.054 -0.3471  0.0411 -1.0115
18183TIP3    H275965   2.047   5.095   1.079 -0.7037 -0.0901 -0.0719
18184TIP3   OH275966   0.029   3.522   5.113 -0.1054 -0.2246 -0.3102
18184TIP3    H175967   0.062   3.501   5.200 -1.9127 -0.0249  0.4728
18184TIP3    H275968   0.036   3.618   5.107 -0.0056 -0.2357 -0.3640
18185TIP3   OH275969   4.357   0.541  14.762 -0.2379  0.3096  0.6022
18185TIP3    H175970   4.451   0.542  14.749 -0.3306 -0.8054 -0.3101
18185TIP3    H275971   4.337   0.626  14.801  1.3286 -0.0285  2.2641
18186TIP3   OH275972   2.760   0.904  15.082  1.0851  0.6761  0.1947
18186TIP3    H175973   2.748   0.822  15.035  0.5605  0.6893  0.2983
18186TIP3    H275974   2.854   0.907  15.101  1.7500  1.6952 -2.7205
18187TIP3   OH275975   0.515   4.776  11.782  0.2400  0.1788  0.9830
18187TIP3    H175976   0.568   4.702  11.754 -0.8936 -0.6711  1.0252
18187TIP3    H275977   0.431   4.738  11.805 -0.9546  1.6603 -0.6619
18188TIP3   OH275978   1.730   0.293  15.982 -0.0098 -0.3404 -0.0248
18188TIP3    H175979   1.767   0.281  15.894  3.0510 -0.1562  1.1051
18188TIP3    H275980   1.713   0.387  15.987 -0.0840 -0.3320 -0.3761
18189TIP3   OH275981   0.178   2.976   0.751  0.2396 -0.1685  0.1611
18189TIP3    H175982   0.230   3.031   0.809 -0.4196  1.2230 -0.5127
18189TIP3    H275983   0.092   2.972   0.793  0.4556 -1.2588  0.5359
18190TIP3   OH275984   0.219   1.178   4.330  0.0973  0.6659  0.5208
18190TIP3    H175985   0.129   1.186   4.362 -0.0215 -0.2567  0.4413
18190TIP3    H275986   0.211   1.137   4.244  0.6547 -0.5789  1.0396
18191TIP3   OH275987   4.346   3.020  13.649  0.0657  0.2666  0.4621
18191TIP3    H175988   4.320   2.931  13.674 -1.3835 -0.4633 -3.0439
18191TIP3    H275989   4.441   3.022  13.666 -0.1757 -1.2275  2.4055
18192TIP3   OH275990   1.085   2.631   0.795  0.2441  0.3717  0.3630
18192TIP3    H175991   1.114   2.568   0.729 -0.1471 -1.4490  1.8463
18192TIP3    H275992   0.992   2.612   0.807  0.2099  0.9720  1.1277
18193TIP3   OH275993   1.189   2.055   0.669 -0.3288 -0.5209  0.3436
18193TIP3    H175994   1.247   2.012   0.732 -0.8118  1.3146  2.1856
18193TIP3    H275995   1.103   2.053   0.710 -0.8251  0.0373 -0.6334
18194TIP3   OH275996   0.671   2.472   4.213  0.0726  0.7495  0.0271
18194TIP3    H175997   0.648   2.561   4.242  3.7960  1.7280  0.4638
18194TIP3    H275998   0.731   2.440   4.280  1.4085 -0.7542 -1.7825
18195TIP3   OH275999   4.995   1.097   1.288 -0.0024 -0.2780 -0.2064
18195TIP3    H176000   5.032   1.176   1.328 -0.5173  0.1754 -0.6079
18195TIP3    H276001   4.910   1.125   1.254 -0.4731 -1.1735  0.2159
18196TIP3   OH276002   6.183   3.786  13.519 -0.2473 -0.3723 -0.3246
18196TIP3    H176003   6.171   3.715  13.582 -1.6046  0.6904  0.6657
18196TIP3    H276004   6.149   3.751  13.437 -0.6425 -0.9523  0.0798
18197TIP3   OH276005   3.686   4.923   0.276 -0.3342 -0.2408  0.1217
18197TIP3    H176006   3.764   4.880   0.240 -0.8898 -1.1852  0.0268
18197TIP3    H276007   3.638   4.853   0.319 -1.5374  0.1753 -0.5070
18198TIP3   OH276008   2.177   3.089   0.608 -0.0854 -0.2832 -0.2912
18198TIP3    H176009   2.210   3.132   0.687 -1.4969 -1.8883  1.2438
18198TIP3    H276010   2.254   3.080   0.552  1.3338 -0.6908  1.6426
18199TIP3   OH276011   1.710   5.173   5.165 -0.9256  0.4965 -0.6660
18199TIP3    H176012   1.698   5.186   5.071 -0.1541 -0.0756 -0.8567
18199TIP3    H276013   1.758   5.090   5.172  1.4346  1.8007  0.0631
18200TIP3   OH276014   1.087   5.892   0.114  0.1080  0.3748  0.7050
18200TIP3    H176015   1.003   5.910   0.072 -1.0881 -2.1236  1.8248
18200TIP3    H276016   1.141   5.856   0.044  0.7099  2.9581 -0.2719
18201TIP3   OH276017   4.302   1.631   2.841 -0.0769  0.0166 -0.0114
18201TIP3    H176018   4.351   1.586   2.773  0.7247  2.0915 -0.8883
18201TIP3    H276019   4.231   1.675   2.794 -1.8432 -1.5502  1.0304
18202TIP3   OH276020   2.904   2.565   0.177  0.2410 -0.1429  0.4028
18202TIP3    H176021   2.954   2.518   0.244  3.4595 -0.0668 -1.7270
18202TIP3    H276022   2.923   2.519   0.096 -1.5788  1.1986 -0.8691
18203TIP3   OH276023   3.797   3.107  12.828 -0.5489  0.1172  0.1456
18203TIP3    H176024   3.723   3.065  12.871  0.6795 -0.9112  1.3337
18203TIP3    H276025   3.757   3.162  12.760 -2.4068 -0.0193  1.0645
18204TIP3   OH276026   2.742   6.621  11.994  0.2330 -0.1083  0.1598
18204TIP3    H176027   2.787   6.699  12.026 -1.9998  0.9407  0.9974
18204TIP3    H276028   2.762   6.619  11.900  1.2183  0.8548  0.3288
18205TIP3   OH276029   6.140   1.878  13.281  0.0498  0.5452 -0.0301
18205TIP3    H176030   6.113   1.932  13.207 -0.0725  1.4216  0.6290
18205TIP3    H276031   6.183   1.802  13.242 -1.0840  0.3879 -1.0223
18206TIP3   OH276032   4.256   1.427   1.181  0.0203  0.4858  0.3249
18206TIP3    H176033   4.274   1.387   1.096 -0.5082 -0.6251  0.7063
18206TIP3    H276034   4.189   1.370   1.220 -1.0760  1.9844  0.7399
18207TIP3   OH276035   1.241   3.078   4.117 -0.2763 -0.0145 -0.3588
18207TIP3    H176036   1.258   2.990   4.150  0.3659  0.3764  0.3876
18207TIP3    H276037   1.325   3.108   4.084 -0.2337  0.7281  0.3936
18208TIP3   OH276038   1.908   6.381   1.839  0.4899 -0.3753 -0.0586
18208TIP3    H176039   1.885   6.365   1.747 -0.2873  0.4097 -0.0067
18208TIP3    H276040   1.950   6.467   1.839 -0.3374  0.0402  0.4401
18209TIP3   OH276041   4.068   6.365   4.199  0.0252 -0.0786  0.2311
18209TIP3    H176042   4.137   6.418   4.160  1.0249 -0.4208  1.4803
18209TIP3    H276043   4.030   6.421   4.267  0.3613 -0.5604  0.8255
18210TIP3   OH276044   3.482   1.507   4.447 -0.3262  0.1700  0.0695
18210TIP3    H176045   3.548   1.571   4.473  0.4201  0.0755 -1.4680
18210TIP3    H276046   3.427   1.553   4.383 -0.9091 -0.1809  0.3029
18211TIP3   OH276047   3.995   6.439   5.707  0.5456 -0.0313 -0.5824
18211TIP3    H176048   4.022   6.356   5.746  0.5737  0.3687  0.2825
18211TIP3    H276049   4.076   6.488   5.696  0.2979  1.0383  1.7107
18212TIP3   OH276050   3.646   3.660  12.184  0.0441  0.2876  0.1002
18212TIP3    H176051   3.699   3.667  12.105 -0.0780  2.1673  0.1444
18212TIP3    H276052   3.565   3.619  12.155  0.6855 -0.6596 -0.3832
18213TIP3   OH276053   1.743   6.030   4.007 -0.8952  0.5022  0.4774
18213TIP3    H176054   1.657   6.004   4.039 -0.9870  1.3156  0.9160
18213TIP3    H276055   1.782   5.949   3.975 -0.6946 -0.4508  2.8931
18214TIP3   OH276056   1.657   6.256  12.351 -0.4286 -0.1976  0.3246
18214TIP3    H176057   1.637   6.176  12.302 -0.6633 -0.8673  1.4795
18214TIP3    H276058   1.696   6.315  12.286  1.0781 -1.7649 -0.2777
18215TIP3   OH276059   3.873   4.209   5.447 -0.4304 -0.4112 -0.2844
18215TIP3    H176060   3.914   4.287   5.486  0.0141 -0.6613 -0.2426
18215TIP3    H276061   3.862   4.233   5.355 -0.8939 -0.0572 -0.1381
18216TIP3   OH276062   4.250   4.069  14.146 -0.0964  0.0166 -0.4587
18216TIP3    H176063   4.344   4.092  14.144  0.3555 -1.7372 -1.2540
18216TIP3    H276064   4.239   4.010  14.072 -1.4499 -1.2625  0.7044
18217TIP3   OH276065   4.575   5.374  15.706 -0.0240 -0.0746  0.1993
18217TIP3    H176066   4.502   5.337  15.755  0.2837 -0.3097  0.4914
18217TIP3    H276067   4.571   5.468  15.722 -0.6289 -0.0117 -0.2955
18218TIP3   OH276068   1.139   2.543   1.561  0.1745 -0.1714  0.5031
18218TIP3    H176069   1.127   2.638   1.557  0.7332 -0.1189 -0.3382
18218TIP3    H276070   1.219   2.527   1.510 -1.1042 -1.2864 -1.2733
18219TIP3   OH276071   0.263   5.306  11.632  0.0381 -0.3994 -0.2497
18219TIP3    H176072   0.292   5.371  11.568 -1.1838  0.3018 -0.1272
18219TIP3    H276073   0.319   5.230  11.616  1.5871  0.7112 -0.3111
18220TIP3   OH276074   3.334   5.886  12.361  0.3709  0.2168  0.6728
18220TIP3    H176075   3.384   5.859  12.284 -0.9165  1.7485 -0.7542
18220TIP3    H276076   3.254   5.833  12.357  0.8561 -0.6523  1.7426
18221TIP3   OH276077   0.203   5.514  16.318  0.4301  0.3469 -0.3637
18221TIP3    H176078   0.213   5.556  16.233 -2.8647  1.6761 -0.2730
18221TIP3    H276079   0.178   5.585  16.377 -1.1712 -1.0616  0.7790
18222TIP3   OH276080   3.306   3.547  15.020 -0.2988  0.1450  0.1773
18222TIP3    H176081   3.264   3.481  15.075 -1.7618  0.8648 -0.0449
18222TIP3    H276082   3.390   3.507  14.997 -0.2111 -0.7299  1.8077
18223TIP3   OH276083   2.458   6.269   2.940 -0.1222 -0.1009 -0.5023
18223TIP3    H176084   2.452   6.235   2.850 -1.2863 -0.8752 -0.1609
18223TIP3    H276085   2.552   6.281   2.955  0.4861 -3.7492 -0.4989
18224TIP3   OH276086   4.235   4.831  17.239 -0.1570 -0.2661  0.6005
18224TIP3    H176087   4.253   4.819  17.332 -1.2248 -2.0047  0.6324
18224TIP3    H276088   4.310   4.791  17.195  0.2549  0.3829  0.7073
18225TIP3   OH276089   3.423   5.905   4.807  0.4762  0.3227 -0.3391
18225TIP3    H176090   3.439   5.989   4.850  0.0638  0.5358 -0.5883
18225TIP3    H276091   3.496   5.895   4.746  0.2777  0.7373 -0.6524
18226TIP3   OH276092   6.225   1.488   3.276 -0.2287  0.4811 -0.3572
18226TIP3    H176093   6.260   1.436   3.204  0.2498  2.8373 -1.9300
18226TIP3    H276094   6.302   1.532   3.314 -0.5729 -0.1398  1.1546
18227TIP3   OH276095   2.033   2.191   5.847 -0.0403 -0.4917  0.4479
18227TIP3    H176096   2.000   2.101   5.844 -0.1523 -0.4701  0.9247
18227TIP3    H276097   1.957   2.245   5.825  0.8425 -0.6287 -3.7839
18228TIP3   OH276098   0.084   6.410   1.159  0.1720  0.2307  0.5495
18228TIP3    H176099   0.087   6.396   1.064 -0.4967  1.9908  0.2315
18228TIP3    H276100   0.040   6.333   1.193  0.2558 -0.3435 -0.5856
18229TIP3   OH276101   5.029   3.783   0.785 -0.0970 -0.1569 -0.3241
18229TIP3    H176102   5.109   3.778   0.733 -0.4026 -2.9220 -0.7000
18229TIP3    H276103   4.964   3.822   0.726  0.3127 -0.4486 -0.9733
18230TIP3   OH276104   4.477   0.640   5.355  0.0278  0.1411 -0.4299
18230TIP3    H176105   4.486   0.717   5.411  1.2262  0.5510 -1.1410
18230TIP3    H276106   4.448   0.675   5.270  2.3216  0.0792 -1.3008
18231TIP3   OH276107   1.429   4.033  11.095 -0.6785  0.3490  0.1270
18231TIP3    H176108   1.502   4.080  11.135 -0.0316  0.1776 -0.8290
18231TIP3    H276109   1.434   4.054  11.002 -0.9193 -0.8948 -0.1884
18232TIP3   OH276110   6.658   3.047   1.483 -0.5129 -0.1841  0.5945
18232TIP3    H176111   6.718   3.036   1.410 -0.8722  0.5508  0.1712
18232TIP3    H276112   6.577   3.003   1.454 -0.3843 -0.6381  0.9099
18233TIP3   OH276113   4.508   5.870  13.785  0.2748  1.1549 -0.0890
18233TIP3    H176114   4.421   5.852  13.748  0.8661 -1.6701 -0.3768
18233TIP3    H276115   4.569   5.833  13.721  1.4370 -1.4336  2.2895
18234TIP3   OH276116   3.325   0.865   3.949 -0.0159 -0.2732  0.4259
18234TIP3    H176117   3.358   0.776   3.933  0.4210 -0.1587  0.6566
18234TIP3    H276118   3.359   0.887   4.036  0.8806  0.5626 -0.1099
18235TIP3   OH276119   5.214   0.035  11.408  0.1893 -0.0570  0.0021
18235TIP3    H176120   5.228  -0.047  11.456  2.0172  0.4304  0.3866
18235TIP3    H276121   5.298   0.051  11.364 -0.3582  1.2659 -0.6101
18236TIP3   OH276122   3.428   0.840  17.302  0.8543  0.6485  0.3018
18236TIP3    H176123   3.471   0.861  17.385 -1.0115 -0.1869  1.5671
18236TIP3    H276124   3.415   0.745  17.305 -0.9218  0.8445 -0.0399
18237TIP3   OH276125   5.509   4.643  11.856  0.2793 -0.2456  0.0960
18237TIP3    H176126   5.580   4.613  11.799  1.2921  1.9366  0.0712
18237TIP3    H276127   5.437   4.662  11.797  0.0437 -1.4147 -0.0115
18238TIP3   OH276128   3.826   6.164   0.542 -0.1445 -0.0814  0.0595
18238TIP3    H176129   3.805   6.105   0.470 -0.4153  0.3631 -0.2287
18238TIP3    H276130   3.860   6.107   0.611 -1.2422 -0.6933  0.1163
18239TIP3   OH276131   0.743   1.242  16.037 -0.1983  0.6343  0.0207
18239TIP3    H176132   0.824   1.288  16.060 -1.1339  1.7946  1.0600
18239TIP3    H276133   0.679   1.311  16.021 -0.2698 -0.0981 -3.9272
18240TIP3   OH276134   2.917   3.901  10.779 -0.0788  0.0538  0.1207
18240TIP3    H176135   2.855   3.860  10.720 -0.5191 -0.0163  0.6175
18240TIP3    H276136   2.898   3.863  10.865 -1.2067  1.9949  0.8083
18241TIP3   OH276137   5.649   1.358  15.552  0.2401 -0.1069 -0.2764
18241TIP3    H176138   5.556   1.349  15.529  0.0756  0.4692  0.1317
18241TIP3    H276139   5.669   1.278  15.602 -0.0489 -0.2060 -0.3162
18242TIP3   OH276140   0.197   1.831   3.231 -0.0204  0.6214  0.0366
18242TIP3    H176141   0.191   1.889   3.306 -0.6044  1.6408 -0.7719
18242TIP3    H276142   0.199   1.889   3.155 -0.1204 -0.3937 -0.7712
18243TIP3   OH276143   0.182   6.392  11.622 -0.2320 -0.2379  0.6551
18243TIP3    H176144   0.175   6.480  11.659  0.6324  0.1126  0.0124
18243TIP3    H276145   0.094   6.373  11.588 -0.9023 -0.3399  2.3188
18244TIP3   OH276146   1.254   2.283   2.400  0.1199 -0.1666 -0.4947
18244TIP3    H176147   1.241   2.250   2.312 -0.4613 -0.1307 -0.4235
18244TIP3    H276148   1.329   2.233   2.434 -0.5150 -1.1499 -0.5191
18245TIP3   OH276149   3.231   4.644  11.518  0.3123 -0.4144 -0.2449
18245TIP3    H176150   3.221   4.554  11.487 -0.4877  0.2211 -2.0014
18245TIP3    H276151   3.314   4.673  11.478 -0.7001  0.3963 -1.8811
18246TIP3   OH276152   1.867   3.397  16.108 -0.0301 -0.2750  0.6606
18246TIP3    H176153   1.906   3.485  16.102 -0.0699 -0.2719  0.4510
18246TIP3    H276154   1.941   3.337  16.094 -0.1874 -0.2644 -0.2413
18247TIP3   OH276155   0.020   4.101  13.461 -0.1202  0.0542 -0.2245
18247TIP3    H176156  -0.044   4.074  13.395 -0.1693  0.1460 -0.2141
18247TIP3    H276157   0.095   4.044  13.447  0.4177  0.9800 -1.2491
18248TIP3   OH276158   6.353   5.555   4.405 -0.0012  0.0435 -0.7228
18248TIP3    H176159   6.264   5.559   4.439 -0.1022 -0.6620 -0.8936
18248TIP3    H276160   6.364   5.465   4.377  1.1291 -0.1534  0.2743
18249TIP3   OH276161   2.784   0.582   6.294  0.0616  0.3490  0.4543
18249TIP3    H176162   2.773   0.488   6.283  0.9918  0.2223  0.6023
18249TIP3    H276163   2.813   0.594   6.384 -1.6969  0.9326  0.9972
18250TIP3   OH276164   5.839   5.156   0.923 -0.1854  0.2887  0.4401
18250TIP3    H176165   5.845   5.067   0.890  0.4276 -0.4916  2.4649
18250TIP3    H276166   5.783   5.202   0.860  1.1222 -0.9455 -1.7573
18251TIP3   OH276167   0.562   0.038   2.944 -0.2202 -0.3143  0.1378
18251TIP3    H176168   0.478   0.001   2.971 -1.2907  2.4658  0.8746
18251TIP3    H276169   0.614   0.042   3.024  0.7772 -2.1627 -0.3372
18252TIP3   OH276170   4.017   3.056   5.901  0.2104  0.2607 -0.4364
18252TIP3    H176171   4.001   2.966   5.927  0.0169  0.2182 -0.7000
18252TIP3    H276172   4.101   3.079   5.942  0.0601  0.0975 -0.0339
18253TIP3   OH276173   3.173   4.275  11.607  0.0619  0.3460  0.1408
18253TIP3    H176174   3.078   4.286  11.607 -0.2901 -1.9872 -1.5773
18253TIP3    H276175   3.195   4.257  11.698 -1.3181 -0.2614  0.3741
18254TIP3   OH276176   0.252   2.320   1.405  0.4778 -0.3992  0.5653
18254TIP3    H176177   0.208   2.387   1.353  1.6279  1.2892  1.6531
18254TIP3    H276178   0.204   2.320   1.488  1.8673  0.7944  1.4175
18255TIP3   OH276179   1.300   3.160   1.142  0.4907  0.5055 -0.1954
18255TIP3    H176180   1.372   3.182   1.082  0.8115 -1.0151 -0.4349
18255TIP3    H276181   1.294   3.234   1.201  1.2557  1.3341 -1.1184
18256TIP3   OH276182   1.225   0.752  15.223 -0.4341 -0.0736  0.0522
18256TIP3    H176183   1.306   0.706  15.245 -0.0665  1.2618  1.6497
18256TIP3    H276184   1.250   0.814  15.155 -0.2191 -0.0396  0.1606
18257TIP3   OH276185   2.830   1.957   6.707 -0.2425 -0.5684 -0.0028
18257TIP3    H176186   2.921   1.971   6.733  0.6581 -1.8385 -2.1872
18257TIP3    H276187   2.828   1.867   6.674 -2.5519 -0.9150  0.8905
18258TIP3   OH276188   0.595   1.929   4.476  0.4558 -0.3698  0.5562
18258TIP3    H176189   0.645   1.954   4.399  1.9188 -0.6691  1.3732
18258TIP3    H276190   0.507   1.963   4.460  0.8123 -0.1594 -1.0853
18259TIP3   OH276191   6.671   1.683  11.995 -0.3756 -0.4219  0.0821
18259TIP3    H176192   6.753   1.723  11.967 -1.5251  1.1803 -1.1640
18259TIP3    H276193   6.619   1.676  11.915 -1.5018 -1.3355  0.8570
18260TIP3   OH276194   1.587   1.025   1.924 -0.7519 -0.5341  0.7892
18260TIP3    H176195   1.666   1.014   1.871  0.0277 -1.1169  2.0290
18260TIP3    H276196   1.572   1.119   1.926  0.2432 -0.3712  1.0004
18261TIP3   OH276197   6.439   2.248  17.431  0.3718 -0.2064 -0.6792
18261TIP3    H176198   6.460   2.273  17.341  1.7848  0.6654 -0.1357
18261TIP3    H276199   6.472   2.158  17.440 -0.8832 -0.7563 -1.3749
18262TIP3   OH276200   6.175   1.091   3.257  0.1701 -0.1355  0.2811
18262TIP3    H176201   6.095   1.064   3.302  0.2584 -0.3756  0.2997
18262TIP3    H276202   6.246   1.063   3.316  0.2342  1.1963  0.8561
18263TIP3   OH276203   2.029   5.471  16.792 -0.0659  0.1788 -0.3900
18263TIP3    H176204   2.013   5.379  16.813  1.2638 -0.1819 -0.8330
18263TIP3    H276205   2.121   5.485  16.816 -0.3472  1.4979  0.0062
18264TIP3   OH276206   0.535   0.336  16.191 -0.0443  0.4693  0.1834
18264TIP3    H176207   0.492   0.254  16.169 -2.6151  1.8995 -0.5235
18264TIP3    H276208   0.555   0.375  16.106  0.6292  0.8672  0.5124
18265TIP3   OH276209   1.393   0.866   3.472 -0.0780  0.5624  0.0835
18265TIP3    H176210   1.376   0.942   3.417 -1.0339  0.6006  0.4117
18265TIP3    H276211   1.452   0.811   3.421  0.6984  1.5628 -0.1164
18266TIP3   OH276212   1.198   0.344  14.640 -0.8617  0.7849  0.0767
18266TIP3    H176213   1.173   0.264  14.593 -2.2857 -0.4450  2.7304
18266TIP3    H276214   1.134   0.409  14.611 -0.3789  0.7055 -1.2610
18267TIP3   OH276215   1.898   3.385   2.656  0.4334  0.2728 -0.3352
18267TIP3    H176216   1.895   3.477   2.629  0.5599  0.2897 -0.2945
18267TIP3    H276217   1.971   3.349   2.605 -1.3462 -0.5038 -2.4970
18268TIP3   OH276218   3.456   3.591  13.191  0.3702 -0.3651 -0.1625
18268TIP3    H176219   3.400   3.543  13.130  0.1674  0.8601 -0.9822
18268TIP3    H276220   3.398   3.655  13.232  1.0079  0.4447 -0.4963
18269TIP3   OH276221   4.939   5.365   0.278 -0.7577  0.9827 -0.4990
18269TIP3    H176222   4.906   5.279   0.302 -1.0041  0.6035 -2.0829
18269TIP3    H276223   4.977   5.400   0.359 -1.1211 -0.3852  0.2888
18270TIP3   OH276224   4.980   1.020   3.415 -1.0498  0.0583  0.4143
18270TIP3    H176225   4.966   0.926   3.413  1.2109 -0.3416 -1.4607
18270TIP3    H276226   5.038   1.034   3.490 -0.8316 -0.1522  0.2867
18271TIP3   OH276227   1.834   0.472   5.140  0.1770 -0.5229 -0.2772
18271TIP3    H176228   1.756   0.520   5.112  0.1734 -0.6621 -0.5058
18271TIP3    H276229   1.877   0.447   5.059 -1.2641 -3.3200 -0.3187
18272TIP3   OH276230   4.489   1.601  13.177 -0.0874 -0.7749  0.5915
18272TIP3    H176231   4.568   1.546  13.180 -0.7882 -1.7935  1.2859
18272TIP3    H276232   4.452   1.592  13.265  0.4185  1.8382  1.1394
18273TIP3   OH276233   2.346   1.674  14.169  0.0638 -0.3520  0.5326
18273TIP3    H176234   2.333   1.760  14.130  0.0030  0.1580  1.6486
18273TIP3    H276235   2.438   1.653  14.151  0.5474  0.6967  1.6914
18274TIP3   OH276236   5.550   1.046  16.004 -0.3730  0.0503  0.2751
18274TIP3    H176237   5.640   1.013  16.007 -0.1686  0.2667 -1.9178
18274TIP3    H276238   5.511   1.016  16.086  1.3213 -1.1305  0.7066
18275TIP3   OH276239   0.775   5.044   2.634  0.9016 -0.3972 -0.3559
18275TIP3    H176240   0.856   5.022   2.587  1.6400 -2.3842  1.6398
18275TIP3    H276241   0.799   5.117   2.690  1.2224 -0.7034 -0.0864
18276TIP3   OH276242   2.403   5.602   3.388  0.5916 -0.2331  0.4498
18276TIP3    H176243   2.423   5.513   3.416 -0.1967 -0.3861  0.5403
18276TIP3    H276244   2.332   5.630   3.445  2.0737  1.1594  1.7067
18277TIP3   OH276245   0.401   6.148   4.110  0.4381  0.2510 -0.1876
18277TIP3    H176246   0.308   6.142   4.091  0.2591 -0.0685  0.7246
18277TIP3    H276247   0.405   6.181   4.200  1.2200  0.9717 -0.4659
18278TIP3   OH276248   4.478   2.375   3.177  0.5734 -0.0894  0.3565
18278TIP3    H176249   4.424   2.299   3.156 -0.3483  0.8855 -1.0549
18278TIP3    H276250   4.416   2.442   3.206  1.5075 -0.2877  3.0926
18279TIP3   OH276251   0.881   4.790   5.025  0.4114  0.1199  0.1055
18279TIP3    H176252   0.875   4.872   5.073 -2.2419 -0.8525  1.6526
18279TIP3    H276253   0.816   4.733   5.066 -0.0009 -1.7615 -2.8228
18280TIP3   OH276254   0.172   4.544  13.833 -0.4152  0.5884  0.3888
18280TIP3    H176255   0.080   4.523  13.846  0.1277 -2.5743  0.1176
18280TIP3    H276256   0.200   4.485  13.763  2.0146  0.7470  1.1146
18281TIP3   OH276257   0.740   5.085  14.681 -0.5686  1.1479  0.2348
18281TIP3    H176258   0.686   5.140  14.624  0.8211  1.0826 -1.2114
18281TIP3    H276259   0.770   5.014  14.624  2.7325  2.3005  0.3166
18282TIP3   OH276260   2.152   3.912  12.173 -0.1450 -0.3032  0.1286
18282TIP3    H176261   2.157   3.959  12.256  1.7238 -0.4286  0.1332
18282TIP3    H276262   2.191   3.971  12.109  0.9020 -1.2246 -0.1295
18283TIP3   OH276263   5.425   6.157   5.288 -0.0284 -0.3711 -0.8406
18283TIP3    H176264   5.385   6.077   5.253 -2.3792  0.6553 -0.6371
18283TIP3    H276265   5.413   6.150   5.382 -0.6733  0.4176 -0.8559
18284TIP3   OH276266   4.291   5.327   1.316  0.0524  0.4844 -0.0869
18284TIP3    H176267   4.248   5.403   1.353 -1.7643 -0.9531  0.9173
18284TIP3    H276268   4.252   5.316   1.229 -0.6521 -0.0233  0.2828
18285TIP3   OH276269   5.189   5.333  17.419  0.0517  0.2142 -0.0238
18285TIP3    H176270   5.197   5.424  17.446 -0.8899 -0.2718  2.0186
18285TIP3    H276271   5.228   5.283  17.491 -0.5970 -1.0537 -0.5274
18286TIP3   OH276272   6.691   1.291   2.479 -0.4094  0.6846  0.1493
18286TIP3    H176273   6.713   1.384   2.482  0.6295  0.5005 -0.9970
18286TIP3    H276274   6.606   1.288   2.436  1.0389  0.9858 -3.1049
18287TIP3   OH276275   0.801   3.076   1.387  0.3839 -0.9850  0.6710
18287TIP3    H176276   0.741   3.054   1.316  1.5436 -0.1558 -0.6373
18287TIP3    H276277   0.837   3.161   1.363  3.6073 -2.2978  0.2322
18288TIP3   OH276278   4.842   6.265  16.360  0.0228  0.5473 -0.7961
18288TIP3    H176279   4.907   6.318  16.404  0.0907 -1.3108  1.5324
18288TIP3    H276280   4.878   6.176  16.361 -2.0116 -0.3289 -0.4715
18289TIP3   OH276281   1.160   5.565  14.472 -0.4179 -0.5489  0.1667
18289TIP3    H176282   1.135   5.573  14.380 -0.3721  1.7179  0.2860
18289TIP3    H276283   1.252   5.541  14.470 -0.0813  0.6987 -0.4341
18290TIP3   OH276284   3.606   6.076   2.189 -0.4652 -0.2872 -0.0116
18290TIP3    H176285   3.521   6.069   2.233 -0.3921 -1.7938 -0.0641
18290TIP3    H276286   3.604   6.162   2.147 -2.2980 -0.6096 -0.6778
18291TIP3   OH276287   6.322   3.639   3.574 -0.0060  0.2418  0.5288
18291TIP3    H176288   6.292   3.553   3.544 -0.6136  0.0209  1.6909
18291TIP3    H276289   6.351   3.624   3.664  0.4917  1.1240  0.5256
18292TIP3   OH276290   3.337   1.372   0.677  0.6567 -0.1575  0.1772
18292TIP3    H176291   3.315   1.418   0.758 -0.3533  0.7392 -0.5847
18292TIP3    H276292   3.284   1.293   0.679 -1.1749  0.9913 -0.6719
18293TIP3   OH276293   2.699   4.558   0.864  0.4868 -0.4050  0.5180
18293TIP3    H176294   2.730   4.613   0.792  0.5785  2.0662  2.3000
18293TIP3    H276295   2.604   4.551   0.850  0.4556  0.3482  0.3177
18294TIP3   OH276296   4.441   6.663   1.373 -0.1020  0.3141  0.1692
18294TIP3    H176297   4.388   6.706   1.440  1.1835  1.5535  0.4141
18294TIP3    H276298   4.442   6.724   1.300  2.2793  1.0705  0.7616
18295TIP3   OH276299   5.920   4.065   4.744  0.3367 -0.5598 -0.0383
18295TIP3    H176300   6.010   4.093   4.726  0.8457 -2.1082 -0.0470
18295TIP3    H276301   5.865   4.121   4.689  1.3325  0.0401 -0.4398
18296TIP3   OH276302   2.324   1.628   1.437  0.0672 -0.7629 -0.7027
18296TIP3    H176303   2.265   1.701   1.456  0.4253 -0.6304 -0.0685
18296TIP3    H276304   2.354   1.644   1.348  0.4059  0.0491 -0.4495
18297TIP3   OH276305   1.675   2.394  11.747 -0.4442  0.2643 -0.1183
18297TIP3    H176306   1.765   2.407  11.775  0.2007 -3.1591 -0.2285
18297TIP3    H276307   1.634   2.346  11.819 -1.5230 -0.2031 -1.0192
18298TIP3   OH276308   3.851   2.175   2.005  0.6409  0.0331 -0.3073
18298TIP3    H176309   3.774   2.222   2.037 -0.2312  0.0601 -2.3247
18298TIP3    H276310   3.840   2.172   1.910  3.2142  0.1614 -0.6814
18299TIP3   OH276311   2.303   4.977  16.540 -0.3323  0.4045  0.3593
18299TIP3    H176312   2.258   4.894  16.556  0.5485 -0.6224 -2.0923
18299TIP3    H276313   2.242   5.026  16.485  0.9221 -0.5331 -2.0130
18300TIP3   OH276314   0.210   0.318  15.385 -0.3474 -0.5958 -0.5042
18300TIP3    H176315   0.143   0.346  15.448 -0.3030 -1.8863  0.1411
18300TIP3    H276316   0.223   0.225  15.403  0.8775 -0.6064 -1.3150
18301TIP3   OH276317   3.285   4.138  14.995 -0.4652 -0.0098 -0.6870
18301TIP3    H176318   3.377   4.112  14.993 -0.3201  0.3728  0.4624
18301TIP3    H276319   3.253   4.119  14.906  0.1960 -2.0100 -0.5581
18302TIP3   OH276320   4.244   5.395  14.174  0.1908 -0.0948 -0.0011
18302TIP3    H176321   4.194   5.445  14.239  1.1235 -0.0134  0.6665
18302TIP3    H276322   4.178   5.363  14.113 -0.7250 -0.3173  1.0755
18303TIP3   OH276323   3.565   2.093  13.865 -0.1885  0.4331 -0.2016
18303TIP3    H176324   3.494   2.129  13.919 -0.2090  0.5636 -0.3151
18303TIP3    H276325   3.522   2.029  13.809 -0.0746 -0.1091  0.3294
18304TIP3   OH276326   1.133   4.081   4.281  0.7144 -0.6678 -0.7544
18304TIP3    H176327   1.170   4.027   4.352  0.9103  0.3212 -0.0725
18304TIP3    H276328   1.042   4.054   4.275  0.8196 -1.1047 -0.4598
18305TIP3   OH276329   3.643   2.539  13.673 -0.3961 -0.2725 -0.0883
18305TIP3    H176330   3.660   2.631  13.692  0.6586 -0.4469 -0.1154
18305TIP3    H276331   3.696   2.491  13.736 -0.0473 -0.8506 -0.7986
18306TIP3   OH276332   0.658   3.797  13.416  0.0021  0.5601 -0.1839
18306TIP3    H176333   0.599   3.861  13.378 -1.1073  0.6555  1.5934
18306TIP3    H276334   0.746   3.831  13.398 -0.4434  0.6014 -2.5394
18307TIP3   OH276335   3.036   3.225  17.432  0.5406  0.5422 -0.0765
18307TIP3    H176336   2.960   3.172  17.455  0.7696  0.4024  0.3922
18307TIP3    H276337   3.082   3.174  17.366  1.9702 -0.9899  1.9503
18308TIP3   OH276338   0.539   2.214   5.682  0.1888 -0.4652 -0.1029
18308TIP3    H176339   0.618   2.176   5.644  0.6196  0.0231  0.3071
18308TIP3    H276340   0.555   2.215   5.776 -0.8830 -1.6828  0.1251
18309TIP3   OH276341   1.380   3.610   4.218 -0.1881  0.5185  0.1482
18309TIP3    H176342   1.378   3.677   4.150  0.9584 -0.4992 -0.9309
18309TIP3    H276343   1.467   3.572   4.212 -0.4454 -0.3614  1.4601
18310TIP3   OH276344   6.223   5.947  15.929  0.0948  0.3950  0.8632
18310TIP3    H176345   6.162   6.005  15.883  0.8799  0.1546 -0.5525
18310TIP3    H276346   6.167   5.887  15.978 -0.8809 -0.4215 -1.1234
18311TIP3   OH276347   0.882   5.562  15.610 -0.0099 -0.0466  0.5308
18311TIP3    H176348   0.909   5.577  15.519 -1.3399 -1.3743 -0.1235
18311TIP3    H276349   0.863   5.650  15.644  2.8305  0.7449  0.3548
18312TIP3   OH276350   0.105   3.727  16.168  0.4642  0.2791 -0.3887
18312TIP3    H176351   0.025   3.725  16.115 -0.0066  0.3572  0.3063
18312TIP3    H276352   0.104   3.813  16.210 -0.0702 -0.4121  1.0859
18313TIP3   OH276353   5.883   1.219  17.000  0.1221  0.7790 -0.5088
18313TIP3    H176354   5.940   1.285  16.958 -0.0859 -0.1539 -2.3912
18313TIP3    H276355   5.809   1.269  17.033  0.4466  1.6306 -1.0155
18314TIP3   OH276356   5.249   0.219   1.335  0.1106  0.3078 -0.4458
18314TIP3    H176357   5.288   0.165   1.404 -0.9318 -1.0425 -0.8759
18314TIP3    H276358   5.303   0.201   1.258 -0.7558 -0.8411 -0.8086
18315TIP3   OH276359   4.247   0.370  16.508  0.1390 -0.6710  0.1488
18315TIP3    H176360   4.203   0.392  16.426  1.0749 -1.0406 -0.4670
18315TIP3    H276361   4.319   0.432  16.515 -1.7319  1.4778  2.3229
18316TIP3   OH276362   3.514   5.686   2.224 -0.4547 -0.0838 -0.6210
18316TIP3    H176363   3.550   5.641   2.300 -0.9113  1.1402  0.3656
18316TIP3    H276364   3.573   5.665   2.153  0.4425 -0.6170  0.2596
18317TIP3   OH276365   0.411   3.762  16.655 -0.3889 -0.2896  0.2617
18317TIP3    H176366   0.346   3.693  16.671  0.3710 -0.5768  2.3089
18317TIP3    H276367   0.387   3.831  16.716 -0.3888  0.7879 -0.9121
18318TIP3   OH276368   4.400   4.239  10.562 -0.0569 -0.6587 -0.0664
18318TIP3    H176369   4.325   4.194  10.601 -1.6136  0.9771 -1.0396
18318TIP3    H276370   4.377   4.249  10.470  1.8168 -0.9710 -0.6069
18319TIP3   OH276371   4.904   2.094  12.175  0.4774 -0.4035  0.1559
18319TIP3    H176372   4.824   2.048  12.153  1.0485 -0.8949 -0.9439
18319TIP3    H276373   4.891   2.183  12.144  0.3413 -0.4728  0.0185
18320TIP3   OH276374   4.253   2.770   6.234  0.2422 -0.2996  0.3005
18320TIP3    H176375   4.249   2.725   6.318  0.1973  0.2396  0.5929
18320TIP3    H276376   4.330   2.733   6.190  1.1267  0.4394  1.1857
18321TIP3   OH276377   4.050   1.263   2.357 -0.4130 -0.3839  0.1486
18321TIP3    H176378   4.040   1.358   2.364  0.0090 -0.0594 -2.5725
18321TIP3    H276379   3.969   1.233   2.316  0.7668 -0.6590 -2.1502
18322TIP3   OH276380   0.414   4.168   0.982  0.3272  0.6434  0.1531
18322TIP3    H176381   0.457   4.134   1.060 -0.5295 -0.2201  0.2716
18322TIP3    H276382   0.446   4.113   0.910  1.3674  1.6474 -0.1746
18323TIP3   OH276383   0.235   6.595  14.417  0.4183 -0.0013 -0.1874
18323TIP3    H176384   0.308   6.656  14.427 -0.5300  1.3409 -1.1130
18323TIP3    H276385   0.174   6.619  14.487  1.2569 -1.7919  1.2368
18324TIP3   OH276386   4.603   1.524   3.248  0.2144  0.5044  0.0803
18324TIP3    H176387   4.663   1.553   3.179  0.2473 -0.1089 -0.1587
18324TIP3    H276388   4.541   1.466   3.202  1.8613 -2.1561  1.0130
18325TIP3   OH276389   5.059   4.693  15.498 -0.0841 -0.2731 -0.1478
18325TIP3    H176390   4.978   4.732  15.531 -1.4317 -1.6179 -1.6538
18325TIP3    H276391   5.035   4.602  15.479  0.8427  0.0449 -3.5233
18326TIP3   OH276392   3.099   2.298  13.414 -0.3965  0.4275  0.0808
18326TIP3    H176393   3.126   2.233  13.479 -1.1561  0.7183  0.6957
18326TIP3    H276394   3.170   2.363  13.414  0.0865 -0.0872 -0.1201
18327TIP3   OH276395   5.321   5.364  12.101 -0.4760  0.4086  0.4464
18327TIP3    H176396   5.233   5.327  12.109 -0.3494  0.3365  1.8627
18327TIP3    H276397   5.361   5.349  12.188  1.8033 -1.7334 -0.8220
18328TIP3   OH276398   4.085   0.106  14.852  0.0230 -0.1956  0.4907
18328TIP3    H176399   4.105   0.155  14.931  3.0906  0.3980 -0.5495
18328TIP3    H276400   4.106   0.165  14.780  0.4695 -1.8104 -0.7760
18329TIP3   OH276401   6.402   2.654   5.023  0.2619 -0.6049  0.1213
18329TIP3    H176402   6.335   2.586   5.012  0.1498 -0.9865  2.4624
18329TIP3    H276403   6.376   2.724   4.964 -1.5712 -1.2269  0.1231
18330TIP3   OH276404   2.140   5.758  12.145 -0.7365  0.7008  0.1254
18330TIP3    H176405   2.188   5.819  12.088 -0.0936 -1.9095 -2.3219
18330TIP3    H276406   2.061   5.737  12.096  0.5099 -2.7349 -0.6990
18331TIP3   OH276407   2.995   5.717  10.930 -0.4042  0.8300 -0.1389
18331TIP3    H176408   2.990   5.781  10.859 -1.1505 -0.4667 -1.3165
18331TIP3    H276409   3.059   5.652  10.899 -0.6775  0.2844  0.4114
18332TIP3   OH276410   4.958   6.060   2.315 -0.0323 -0.1623  0.1229
18332TIP3    H176411   4.863   6.055   2.324 -0.1435 -0.1493 -0.8917
18332TIP3    H276412   4.973   6.052   2.221  1.0870 -1.8720  0.4112
18333TIP3   OH276413   1.300   4.829  13.137  0.0981  0.1979  0.0527
18333TIP3    H176414   1.238   4.816  13.209 -0.3329 -1.4002 -0.5708
18333TIP3    H276415   1.280   4.759  13.075  3.5035 -1.3704  0.5057
18334TIP3   OH276416   4.966   4.225   5.636  0.2046 -0.0516 -0.1827
18334TIP3    H176417   5.008   4.301   5.595 -1.3561  0.9533 -0.0081
18334TIP3    H276418   4.913   4.262   5.706  0.1864 -1.4247  0.5606
18335TIP3   OH276419   5.780   6.447   6.385 -0.7684  0.2239 -0.1397
18335TIP3    H176420   5.846   6.480   6.325  0.0076  0.4337  0.8115
18335TIP3    H276421   5.786   6.504   6.461  1.0641 -2.3800  1.8357
18336TIP3   OH276422   6.194   4.925  11.875 -0.3793  0.3361 -0.0670
18336TIP3    H176423   6.111   4.898  11.916 -1.8475  0.1208 -2.9471
18336TIP3    H276424   6.195   4.881  11.790  2.4505  0.8139 -0.3864
18337TIP3   OH276425   6.289   3.529   1.640 -0.6747 -0.0637 -0.4171
18337TIP3    H176426   6.356   3.596   1.654 -1.6575  0.6319  1.3240
18337TIP3    H276427   6.333   3.447   1.661 -0.1883  0.3131  0.0880
18338TIP3   OH276428   3.020   6.237  11.876 -0.7544 -0.0309  0.5142
18338TIP3    H176429   2.966   6.316  11.878  0.7667  1.0827 -0.5076
18338TIP3    H276430   3.107   6.267  11.851  0.7307 -1.5917  3.2816
18339TIP3   OH276431   2.673   1.339   2.720 -0.1654  0.1847 -0.5533
18339TIP3    H176432   2.621   1.402   2.671 -1.1475  2.6732  3.1751
18339TIP3    H276433   2.754   1.387   2.741 -0.1835 -0.3681  0.9199
18340TIP3   OH276434   3.271   4.933  12.832 -0.1040  0.3246 -0.3772
18340TIP3    H176435   3.176   4.923  12.836 -0.3289  2.2793  0.6655
18340TIP3    H276436   3.285   5.028  12.824  1.7770  0.2474  1.1415
18341TIP3   OH276437   0.638   0.141  14.580 -0.1637  0.5817  0.2350
18341TIP3    H176438   0.706   0.134  14.513 -0.3740  1.6199 -0.1163
18341TIP3    H276439   0.560   0.167  14.531 -0.9594 -1.1122  0.5577
18342TIP3   OH276440   3.820   2.638  12.327 -0.2536  0.2898  0.3382
18342TIP3    H176441   3.837   2.560  12.379  2.2774  0.4730 -0.1026
18342TIP3    H276442   3.891   2.699  12.350  0.3701  0.7770 -2.4928
18343TIP3   OH276443   1.343   0.798   5.680  0.4671  0.2454  0.4919
18343TIP3    H176444   1.323   0.707   5.701 -0.5947  0.2649 -0.3878
18343TIP3    H276445   1.368   0.797   5.588  2.5091  0.5524  0.9899
18344TIP3   OH276446   3.590   6.232  14.831  0.5390 -0.4717 -0.1487
18344TIP3    H176447   3.532   6.228  14.907 -0.5653 -0.4562 -0.9610
18344TIP3    H276448   3.673   6.265  14.866  0.4895 -1.7165  1.2802
18345TIP3   OH276449   1.243   4.093  15.771  0.4253 -0.7401 -0.0825
18345TIP3    H176450   1.176   4.092  15.839 -0.2526 -0.6320 -0.7405
18345TIP3    H276451   1.324   4.073  15.818 -0.3787 -3.4409  0.3750
18346TIP3   OH276452   4.224   1.823   1.220 -0.0445  0.3074  0.2640
18346TIP3    H176453   4.171   1.744   1.228 -0.9635  0.9172  0.4844
18346TIP3    H276454   4.282   1.807   1.146 -0.1091 -0.6275  0.4103
18347TIP3   OH276455   0.699   0.780  11.473 -0.3750  0.1022  0.3695
18347TIP3    H176456   0.655   0.812  11.394 -0.4167  0.0846  0.3846
18347TIP3    H276457   0.629   0.775  11.539  0.0580  2.2596  1.0668
18348TIP3   OH276458   3.886   2.366  11.313  0.4611  0.1048 -0.5595
18348TIP3    H176459   3.859   2.458  11.312  0.9933  0.2880  0.8666
18348TIP3    H276460   3.816   2.321  11.361 -0.9126 -0.6446 -3.0701
18349TIP3   OH276461   3.776   1.046   1.023  0.7988 -0.0475  0.2224
18349TIP3    H176462   3.693   1.036   0.976 -0.6898  0.5235  2.5809
18349TIP3    H276463   3.806   0.956   1.035  0.8169 -0.2409 -1.0716
18350TIP3   OH276464   0.267   3.443   2.684 -0.0139 -0.0483 -0.0582
18350TIP3    H176465   0.184   3.461   2.639  1.0448  1.1544 -1.6226
18350TIP3    H276466   0.296   3.528   2.716  0.6261 -0.4700  0.4952
18351TIP3   OH276467   6.079   4.790  13.322 -0.2047 -0.8590 -0.8320
18351TIP3    H176468   6.033   4.706  13.314 -1.9134 -0.3410  2.0943
18351TIP3    H276469   6.168   4.767  13.347 -0.4155 -1.8002 -0.9153
18352TIP3   OH276470   1.395   4.992  14.469 -0.0263  0.1012 -0.2178
18352TIP3    H176471   1.445   5.014  14.390 -2.0402  2.8176 -0.8943
18352TIP3    H276472   1.425   5.055  14.534 -2.4896  1.8562 -0.6718
18353TIP3   OH276473   2.270   4.429   5.722 -0.4647  0.0267  1.0355
18353TIP3    H176474   2.258   4.499   5.658 -0.7717 -0.6915  0.2807
18353TIP3    H276475   2.313   4.359   5.672  0.8053  0.0709  2.0417
18354TIP3   OH276476   1.780   3.031   1.387  0.1638  0.1855 -0.5050
18354TIP3    H176477   1.691   3.004   1.364  0.5598 -1.2858 -0.3767
18354TIP3    H276478   1.771   3.065   1.477 -0.5874  1.8588 -1.1730
18355TIP3   OH276479   4.578   0.671   3.965 -0.4017 -0.5508  0.3124
18355TIP3    H176480   4.671   0.649   3.967 -0.5646 -1.3269 -0.0350
18355TIP3    H276481   4.541   0.612   3.899 -0.9751  0.4234 -0.2728
18356TIP3   OH276482   5.108   0.436   1.384  0.0818  0.5567  0.4060
18356TIP3    H176483   5.150   0.470   1.463  0.7163 -0.8997  0.7260
18356TIP3    H276484   5.173   0.377   1.346 -0.6093  0.4646 -0.6622
18357TIP3   OH276485   3.458   3.682   2.945 -0.0958  0.0259 -0.1457
18357TIP3    H176486   3.390   3.750   2.942 -1.3203 -1.1723 -0.5550
18357TIP3    H276487   3.448   3.635   2.862  0.7925 -0.6051  0.0939
18358TIP3   OH276488   5.224   0.581   6.194 -0.0368 -0.0542  0.0752
18358TIP3    H176489   5.161   0.583   6.122  0.0723 -1.3377 -0.0775
18358TIP3    H276490   5.310   0.576   6.151  0.0062 -1.3057  0.2740
18359TIP3   OH276491   4.308   6.692  13.428 -0.3838  0.2271  0.3086
18359TIP3    H176492   4.220   6.730  13.438 -1.8024 -3.1532  2.0719
18359TIP3    H276493   4.361   6.737  13.493 -1.4711  0.5594  0.9974
18360TIP3   OH276494   3.423   0.861  13.439  0.2424  0.8622  0.1812
18360TIP3    H176495   3.414   0.768  13.462 -0.5753  0.4029 -1.7309
18360TIP3    H276496   3.514   0.871  13.413  0.7110  0.9762  1.7544
18361TIP3   OH276497   6.150   2.263   5.565  0.1805 -0.1041  0.2919
18361TIP3    H176498   6.239   2.230   5.578 -0.1680 -0.5539  1.7955
18361TIP3    H276499   6.146   2.285   5.472  2.2231  1.0727  0.4240
18362TIP3   OH276500   6.088   2.192  17.605 -0.3385  0.1056  0.2307
18362TIP3    H176501   6.099   2.180  17.699  0.7420  0.0752  0.1146
18362TIP3    H276502   6.124   2.112  17.566 -1.4083 -0.1915 -0.1943
18363TIP3   OH276503   0.802   4.366  13.920 -0.1326 -0.2434  0.0272
18363TIP3    H176504   0.711   4.361  13.891  0.0621 -0.3389 -0.5999
18363TIP3    H276505   0.806   4.443  13.977 -0.6872 -0.4695  0.3720
18364TIP3   OH276506   2.857   2.235  13.285  0.6248  0.1587  0.2581
18364TIP3    H176507   2.940   2.235  13.331 -0.1190  0.3938  1.6617
18364TIP3    H276508   2.872   2.288  13.207  1.3773  1.5639  1.3138
18365TIP3   OH276509   2.360   2.514  14.953  0.0588  0.5199  0.0500
18365TIP3    H176510   2.365   2.461  15.033  1.6661  1.1885  0.4470
18365TIP3    H276511   2.445   2.502  14.911 -0.3362  1.1114 -0.9490
18366TIP3   OH276512   1.373   2.768  14.891  0.8619 -0.0313  0.2969
18366TIP3    H176513   1.447   2.709  14.880  0.2866 -0.3590 -2.8692
18366TIP3    H276514   1.411   2.847  14.930  1.6546 -2.2312  4.5586
18367TIP3   OH276515   2.302   4.272   4.991  0.0934 -0.3754  0.0515
18367TIP3    H176516   2.213   4.291   5.023  0.3346 -0.5824  0.8567
18367TIP3    H276517   2.350   4.353   5.007 -0.2000  0.0874 -1.3255
18368TIP3   OH276518   3.798   1.659  14.295  0.6251  0.3407 -0.2921
18368TIP3    H176519   3.749   1.709  14.359  1.7009  2.6003 -1.1480
18368TIP3    H276520   3.889   1.681  14.311  1.0056 -0.0009 -1.7900
18369TIP3   OH276521   4.438   0.416  15.049  0.4910 -0.0921  0.0682
18369TIP3    H176522   4.457   0.507  15.070  0.9643  0.3735 -2.1355
18369TIP3    H276523   4.522   0.380  15.021 -0.1157 -0.5549 -1.2200
18370TIP3   OH276524   3.150   4.485  12.127  0.4184 -0.7762  0.7358
18370TIP3    H176525   3.235   4.504  12.087  0.3898  1.9132  1.7370
18370TIP3    H276526   3.104   4.434  12.061  1.7966  0.1086 -1.0126
18371TIP3   OH276527   3.072   0.355   2.604 -0.3129  0.9487  0.5487
18371TIP3    H176528   2.998   0.295   2.591  2.0285 -1.5943 -2.9568
18371TIP3    H276529   3.129   0.310   2.666 -0.6746  1.8968  1.5972
18372TIP3   OH276530   2.106   1.402  15.082 -0.0824 -0.7811  0.3692
18372TIP3    H176531   2.191   1.435  15.053  0.9526 -3.3536  0.2349
18372TIP3    H276532   2.059   1.383  15.001 -0.5330 -0.0552  0.4472
18373TIP3   OH276533   6.063   5.433  13.572  0.1273 -0.6450  0.3387
18373TIP3    H176534   6.043   5.404  13.483  0.2994 -0.3224  0.1919
18373TIP3    H276535   5.995   5.497  13.592  1.2902  0.8594 -0.3669
18374TIP3   OH276536   3.404   2.856  11.998  0.0901  0.3044 -0.0218
18374TIP3    H176537   3.342   2.858  12.071 -0.4843  0.4107 -0.5110
18374TIP3    H276538   3.384   2.934  11.948  1.6998  1.2275  0.6915
18375TIP3   OH276539   5.262   1.976   5.928  0.4114  0.2810  0.3397
18375TIP3    H176540   5.184   1.977   5.983  1.2332  1.9833  1.5807
18375TIP3    H276541   5.331   2.013   5.984  1.7165  0.3496 -1.2376
18376TIP3   OH276542   2.753   2.746  17.533  0.2610 -0.0406 -0.4524
18376TIP3    H176543   2.842   2.751  17.499  1.2477  1.5319  2.1110
18376TIP3    H276544   2.701   2.798  17.471  1.9713  2.7885  0.2934
18377TIP3   OH276545   1.937   1.775  15.809  0.1020  0.0661  0.8623
18377TIP3    H176546   2.024   1.748  15.781  0.4977  0.6062  1.5507
18377TIP3    H276547   1.881   1.757  15.733  0.8169 -0.2173  0.3910
18378TIP3   OH276548   6.477   3.266   4.197 -0.0097 -0.0563 -0.4657
18378TIP3    H176549   6.487   3.336   4.262 -0.6146  0.8647 -1.3234
18378TIP3    H276550   6.384   3.270   4.174 -0.6783 -2.8545  1.2970
18379TIP3   OH276551   1.437   2.218   0.499  0.6995 -0.4276  0.2583
18379TIP3    H176552   1.464   2.255   0.583  1.5400  0.5554 -0.4262
18379TIP3    H276553   1.342   2.226   0.498  0.7584  0.3804  0.7319
18380TIP3   OH276554   5.862   4.483   5.648 -0.0818  0.3173  1.3288
18380TIP3    H176555   5.877   4.389   5.657 -1.0909  0.1537  1.4597
18380TIP3    H276556   5.767   4.492   5.651 -0.0611  1.2087 -0.0685
18381TIP3   OH276557   1.521   5.715   0.178 -0.1021  0.2633  0.0837
18381TIP3    H176558   1.478   5.772   0.242 -1.1487  0.6308 -0.9163
18381TIP3    H276559   1.515   5.627   0.215 -0.8374  0.4487  0.4124
18382TIP3   OH276560   1.483   3.095   2.584  0.1187 -0.3655  0.8469
18382TIP3    H176561   1.468   3.183   2.618  0.4502  0.2303 -0.4608
18382TIP3    H276562   1.567   3.069   2.620  2.3787  1.8001 -2.2948
18383TIP3   OH276563   1.132   5.294  15.414  0.5788  0.3326  0.3969
18383TIP3    H176564   1.101   5.296  15.504 -1.2078 -0.5141 -0.1536
18383TIP3    H276565   1.101   5.210  15.380  0.1330  1.1595 -1.3481
18384TIP3   OH276566   6.021   2.600   5.771  0.5512 -1.1666  0.0864
18384TIP3    H176567   5.929   2.623   5.783  0.2505 -2.2397 -0.0429
18384TIP3    H276568   6.046   2.644   5.689  0.2918 -0.4872  0.3694
18385TIP3   OH276569   2.738   0.418   4.599  0.5113  0.0759 -0.1741
18385TIP3    H176570   2.716   0.472   4.523  0.3218 -0.8697 -0.8033
18385TIP3    H276571   2.749   0.330   4.564 -0.0694 -0.4689  0.9630
18386TIP3   OH276572   6.092   3.581  13.690 -0.0074  0.2477 -0.2741
18386TIP3    H176573   5.998   3.594  13.697  0.2353  2.2445  0.1287
18386TIP3    H276574   6.125   3.597  13.779  0.5957 -2.1347  0.0025
18387TIP3   OH276575   5.384   2.589   4.177  0.0859 -0.1676 -0.4260
18387TIP3    H176576   5.437   2.589   4.257 -1.1813 -0.8867  0.4566
18387TIP3    H276577   5.393   2.500   4.143 -3.4256 -1.6038  1.8222
18388TIP3   OH276578   6.637   2.269   2.607  0.0933 -0.1643  0.1853
18388TIP3    H176579   6.597   2.193   2.650  1.1187 -0.6323  0.3216
18388TIP3    H276580   6.721   2.280   2.651 -0.7922  2.2102  1.4713
18389TIP3   OH276581   4.957   2.402  16.150  0.2504  0.3072  0.1833
18389TIP3    H176582   4.948   2.320  16.199 -0.8061 -0.5226 -1.3363
18389TIP3    H276583   4.889   2.459  16.186 -0.3147 -0.1901 -0.0784
18390TIP3   OH276584   2.287   0.998  16.744  0.2418 -0.1521  0.0658
18390TIP3    H176585   2.233   0.928  16.782  0.5992 -1.9494 -2.4591
18390TIP3    H276586   2.377   0.968  16.754  0.4568  0.3448 -0.3075
18391TIP3   OH276587   4.340   1.661   5.202  0.1186  0.6043  0.8335
18391TIP3    H176588   4.255   1.625   5.227  0.3677 -1.0168 -0.5007
18391TIP3    H276589   4.404   1.599   5.237  0.7262  1.3667  1.1054
18392TIP3   OH276590   2.017   6.329   2.218 -0.3715 -0.8107 -0.2969
18392TIP3    H176591   2.068   6.387   2.162 -0.1232  0.0214  0.7543
18392TIP3    H276592   1.940   6.380   2.243 -0.7474 -1.3567 -0.3002
18393TIP3   OH276593   5.426   0.302   1.944 -0.8064  0.5546 -0.0057
18393TIP3    H176594   5.493   0.346   1.997  0.1965 -0.2349 -0.5714
18393TIP3    H276595   5.353   0.288   2.004 -0.3938  1.2806  0.6765
18394TIP3   OH276596   1.043   0.089   0.667  0.0877 -0.1862 -0.2433
18394TIP3    H176597   1.098   0.013   0.647 -0.3057 -0.9866  1.5346
18394TIP3    H276598   1.106   0.161   0.678  0.5919 -0.5807 -0.5051
18395TIP3   OH276599   3.339   1.582  17.091 -0.2256  0.5750  0.8974
18395TIP3    H176600   3.420   1.601  17.138  0.1630 -1.5871  1.2012
18395TIP3    H276601   3.300   1.508  17.138 -1.4489  0.3939 -0.3147
18396TIP3   OH276602   0.237   5.272   1.006  0.2801  0.0767 -0.4527
18396TIP3    H176603   0.306   5.302   1.065 -1.3934 -0.7895  2.1371
18396TIP3    H276604   0.280   5.207   0.950  1.5080 -0.8774  1.4763
18397TIP3   OH276605   1.548   4.432   4.560  0.0348 -0.6343 -0.1627
18397TIP3    H176606   1.597   4.376   4.499  0.2255 -0.2320 -0.3802
18397TIP3    H276607   1.583   4.519   4.546 -0.3644 -0.4328  0.0763
18398TIP3   OH276608   5.383   5.269   1.046  0.4095  0.4462  0.4883
18398TIP3    H176609   5.455   5.243   0.990  1.4717  0.0991  1.9670
18398TIP3    H276610   5.412   5.351   1.086  0.1581  0.1090  1.3894
18399TIP3   OH276611   0.238   1.985  13.367  0.0614 -0.2587  0.4159
18399TIP3    H176612   0.249   1.897  13.402  0.3707 -0.3928 -0.0172
18399TIP3    H276613   0.284   1.984  13.283  0.7111  0.5367  0.7519
18400TIP3   OH276614   4.240   0.977  16.891  0.1196 -0.0531  0.2563
18400TIP3    H176615   4.243   0.917  16.966 -0.7724 -0.1561  0.2258
18400TIP3    H276616   4.177   1.045  16.917  0.1958  0.1953 -0.1939
18401TIP3   OH276617   4.318   5.947   6.214  0.2068  0.2504  0.0340
18401TIP3    H176618   4.258   5.877   6.242  1.4961 -0.2881  1.6195
18401TIP3    H276619   4.330   6.000   6.293  3.1428 -0.6870  0.3338
18402TIP3   OH276620   4.706   3.520   2.970  0.3142  0.0932  0.4781
18402TIP3    H176621   4.656   3.600   2.982  1.5558  1.1489 -1.0336
18402TIP3    H276622   4.656   3.453   3.018 -3.3533  0.7048 -2.0759
18403TIP3   OH276623   2.092   1.442   1.501  0.3763  0.0036 -0.2802
18403TIP3    H176624   2.173   1.492   1.496 -0.6030  1.7199 -0.0651
18403TIP3    H276625   2.060   1.456   1.590 -0.6208  0.1506 -0.6419
18404TIP3   OH276626   4.181   2.064  16.735 -0.0984  0.2306  0.2757
18404TIP3    H176627   4.223   2.132  16.682  0.7471 -1.3121 -1.1020
18404TIP3    H276628   4.132   2.113  16.801  1.3713  2.1618  0.0278
18405TIP3   OH276629   4.377   1.967   2.231  0.0829  0.0638  0.0527
18405TIP3    H176630   4.348   1.892   2.179 -0.3343 -0.3436  0.8419
18405TIP3    H276631   4.423   1.928   2.305 -0.3662  0.5699  0.6128
18406TIP3   OH276632   2.838   6.661   2.532 -0.7228  0.1692  0.1010
18406TIP3    H176633   2.757   6.636   2.576 -0.0078 -0.6832  0.9732
18406TIP3    H276634   2.889   6.580   2.528  0.1085  0.7023 -0.3994
18407TIP3   OH276635   3.652   3.566  14.515 -0.5812  0.4529 -0.6950
18407TIP3    H176636   3.630   3.554  14.423  1.9572 -0.4901 -1.2383
18407TIP3    H276637   3.629   3.482  14.556  1.4120 -0.3770 -1.1801
18408TIP3   OH276638   2.472   2.484   1.232 -0.0235 -1.0621 -0.3914
18408TIP3    H176639   2.502   2.573   1.250 -0.7790 -0.8090 -0.3566
18408TIP3    H276640   2.487   2.472   1.138  1.0337 -1.2742 -0.2057
18409TIP3   OH276641   3.131   0.905   0.501 -0.1478 -0.2832 -0.0261
18409TIP3    H176642   3.109   0.827   0.552  0.4003 -1.6833 -1.8485
18409TIP3    H276643   3.197   0.875   0.439 -0.1422  1.5784 -0.9674
18410TIP3   OH276644   3.328   4.833   0.108 -0.5527 -0.8058  0.0264
18410TIP3    H176645   3.345   4.884   0.188 -0.0876 -0.8807 -0.0205
18410TIP3    H276646   3.300   4.747   0.140  3.0854 -2.0908  0.2317
18411TIP3   OH276647   1.946   5.797   4.641 -0.6097  0.0513  0.1390
18411TIP3    H176648   2.000   5.796   4.721  1.5589 -0.6542 -1.2336
18411TIP3    H276649   1.889   5.872   4.652  0.4226  0.6658  1.8544
18412TIP3   OH276650   4.463   5.742   4.956  0.2568 -0.3070  0.4983
18412TIP3    H176651   4.533   5.771   4.898  0.5101 -0.6163  0.6423
18412TIP3    H276652   4.495   5.659   4.992 -0.7387 -1.1311 -0.4446
18413TIP3   OH276653   3.991   2.606  16.832  0.1835  0.3716  0.0331
18413TIP3    H176654   4.002   2.674  16.766 -0.3441 -0.1863 -0.6499
18413TIP3    H276655   3.965   2.653  16.911 -0.4951  0.9466 -0.5165
18414TIP3   OH276656   4.733   2.863   4.147 -0.1319 -0.5206  0.1058
18414TIP3    H176657   4.722   2.958   4.137  0.8964 -0.3196  0.6947
18414TIP3    H276658   4.794   2.839   4.077 -2.7731 -1.3305 -2.0849
18415TIP3   OH276659   0.307   1.611   0.643 -0.2300  0.8108 -0.3955
18415TIP3    H176660   0.360   1.534   0.664 -1.8462  0.0006  1.0020
18415TIP3    H276661   0.217   1.577   0.636 -0.9036  2.4795 -0.3473
18416TIP3   OH276662   4.765   0.935  16.568  0.1784 -0.1798  0.4225
18416TIP3    H176663   4.793   0.953  16.478 -0.4154 -1.8981 -0.1384
18416TIP3    H276664   4.702   0.863  16.560 -0.2955 -0.0125  2.1718
18417TIP3   OH276665   0.526   6.277   6.220  0.4332  0.2107  0.5471
18417TIP3    H176666   0.482   6.217   6.281 -1.6128  2.3680  1.3448
18417TIP3    H276667   0.514   6.237   6.134 -1.8307 -0.0779  0.9323
18418TIP3   OH276668   1.982   3.004   3.167  0.0666  0.2756 -0.3101
18418TIP3    H176669   1.926   3.059   3.222 -0.1179 -0.0004 -0.2164
18418TIP3    H276670   2.002   3.057   3.091  0.0762  0.5547 -0.1142
18419TIP3   OH276671   4.262   4.754   4.502 -0.5223 -0.0625 -0.4144
18419TIP3    H176672   4.341   4.777   4.454 -0.2980  0.8795  0.3845
18419TIP3    H276673   4.215   4.836   4.512 -0.5356 -0.2306  1.0148
18420TIP3   OH276674   0.730   5.460  12.287  0.2224 -0.1013  0.4463
18420TIP3    H176675   0.638   5.442  12.306 -0.5120  0.7696 -1.8641
18420TIP3    H276676   0.741   5.430  12.196  2.2961 -0.3748  0.7389
18421TIP3   OH276677   4.224   4.828  11.476 -0.0389 -0.2883  0.3523
18421TIP3    H176678   4.271   4.754  11.515 -0.7650  0.9521  3.9872
18421TIP3    H276679   4.136   4.823  11.513 -0.7268  1.2526 -0.9414
18422TIP3   OH276680   0.357   2.331   3.407 -0.0950 -0.2492 -0.3307
18422TIP3    H176681   0.374   2.347   3.500  1.0404 -0.3356 -0.5209
18422TIP3    H276682   0.276   2.279   3.406  0.5522 -1.3091  0.6660
18423TIP3   OH276683   5.816   0.728  16.381  0.4922 -0.1199  0.6436
18423TIP3    H176684   5.788   0.820  16.375 -0.4848 -0.4981 -1.1842
18423TIP3    H276685   5.867   0.713  16.302 -0.6611 -1.5480  0.1377
18424TIP3   OH276686   2.658   2.098  15.000  0.0863  0.0640  0.2746
18424TIP3    H176687   2.664   2.095  14.904  0.4271  0.2334  0.2911
18424TIP3    H276688   2.565   2.083  15.018  0.3479 -2.3171  0.0049
18425TIP3   OH276689   6.045   4.541  17.399 -0.6454 -0.2334  0.0564
18425TIP3    H176690   6.072   4.591  17.322 -3.9274  2.4548  0.4170
18425TIP3    H276691   6.046   4.605  17.471 -2.8611 -1.2112  1.0413
18426TIP3   OH276692   1.997   1.521  16.328  0.1909  0.0923 -0.0716
18426TIP3    H176693   2.018   1.433  16.360  0.1114  0.9450  2.5512
18426TIP3    H276694   1.989   1.510  16.233 -0.4604 -2.8492  0.2035
18427TIP3   OH276695   5.509   6.586  14.144 -0.3350  0.0296 -0.3575
18427TIP3    H176696   5.599   6.602  14.172  0.2261 -1.3247 -1.3184
18427TIP3    H276697   5.490   6.497  14.173 -1.3035  0.2250 -0.3458
18428TIP3   OH276698   3.777   5.400   4.997  0.4796  0.1072  0.3296
18428TIP3    H176699   3.692   5.400   4.953  1.1211  1.3899 -0.9963
18428TIP3    H276700   3.834   5.350   4.939  0.9204  0.3054  0.5889
18429TIP3   OH276701   4.380   0.659  11.740  0.0195 -0.0060 -0.1004
18429TIP3    H176702   4.311   0.629  11.799 -1.2066  0.1818 -1.4030
18429TIP3    H276703   4.410   0.579  11.696 -0.0029  0.0402 -0.1999
18430TIP3   OH276704   3.033   0.333   2.001  0.0134 -0.0911 -0.2970
18430TIP3    H176705   3.116   0.316   1.955 -0.3678 -0.5112 -0.8510
18430TIP3    H276706   2.972   0.358   1.931 -0.2249  0.6262  0.1545
18431TIP3   OH276707   0.908   1.794   1.238 -0.2723  0.0681 -0.4598
18431TIP3    H176708   0.910   1.755   1.151  1.6634  0.0610 -0.4657
18431TIP3    H276709   0.917   1.888   1.223  0.0761  0.0670 -0.2781
18432TIP3   OH276710   5.538   1.124  15.403 -0.1391  0.0788 -0.4172
18432TIP3    H176711   5.503   1.169  15.326 -1.1976  0.5154  0.2932
18432TIP3    H276712   5.461   1.105  15.457  0.6786  0.8709  1.1047
18433TIP3   OH276713   6.620   3.936   0.173 -0.9522 -0.0047 -0.1705
18433TIP3    H176714   6.578   3.986   0.242  0.5396 -0.7677  1.3809
18433TIP3    H276715   6.571   3.854   0.168 -1.3508  0.2430 -0.3692
18434TIP3   OH276716   0.355   2.209  14.696  0.1055  0.6865 -0.8872
18434TIP3    H176717   0.264   2.219  14.669  0.2812 -1.5602 -2.6348
18434TIP3    H276718   0.406   2.234  14.619  0.7886 -1.3137 -1.1592
18435TIP3   OH276719   0.969   4.066   1.289  0.5019 -0.2999 -0.5550
18435TIP3    H176720   0.957   4.024   1.204 -0.9244 -0.1517 -0.4615
18435TIP3    H276721   0.978   3.993   1.350 -0.9742 -0.4949 -0.5274
18436TIP3   OH276722   1.057   0.684  12.322  0.2427 -0.6930 -0.1853
18436TIP3    H176723   1.144   0.646  12.310  0.5476  0.1191 -0.5763
18436TIP3    H276724   0.998   0.609  12.316  0.8045 -1.0695 -1.3849
18437TIP3   OH276725   4.077   2.146   4.395 -0.3867  0.9315 -0.7364
18437TIP3    H176726   4.120   2.198   4.327  1.4176  0.2205 -0.2121
18437TIP3    H276727   4.125   2.169   4.475 -0.9540  0.0418 -0.1337
18438TIP3   OH276728   6.311   5.894  11.658 -0.4584  0.9873 -0.0878
18438TIP3    H176729   6.238   5.944  11.620  1.2064  2.3213 -1.7085
18438TIP3    H276730   6.371   5.960  11.692  0.7824  0.0111 -0.2967
18439TIP3   OH276731   5.640   1.898   4.326  0.1167 -0.5771 -0.2302
18439TIP3    H176732   5.715   1.957   4.317  0.6267 -1.0666  0.6698
18439TIP3    H276733   5.607   1.887   4.237  1.7182 -1.1177 -0.7947
18440TIP3   OH276734   6.303   0.718  13.194  0.0143 -0.3981  0.1470
18440TIP3    H176735   6.361   0.642  13.187 -0.1620 -0.7250  1.9236
18440TIP3    H276736   6.362   0.792  13.207  0.0953 -0.6697  1.4950
18441TIP3   OH276737   2.901   2.567  15.948 -0.0235 -0.0403 -0.1773
18441TIP3    H176738   2.937   2.479  15.948  0.7380  0.2193  1.8784
18441TIP3    H276739   2.954   2.615  15.884 -0.9322 -1.1931 -1.8862
18442TIP3   OH276740   0.022   3.654   1.291 -0.2722 -0.3161 -0.2954
18442TIP3    H176741   0.003   3.683   1.202  0.5453  1.4933  0.0670
18442TIP3    H276742  -0.047   3.591   1.311 -1.0398 -0.0254 -1.8606
18443TIP3   OH276743   0.192   4.283   2.156 -0.1372  0.4557 -0.8271
18443TIP3    H176744   0.148   4.368   2.145  0.7282  1.2071  1.0626
18443TIP3    H276745   0.277   4.305   2.194  0.2312 -1.2661 -0.5817
18444TIP3   OH276746   2.694   0.297   4.265 -0.0978 -0.6943 -0.0884
18444TIP3    H176747   2.789   0.295   4.259 -0.1037 -0.8862 -0.1339
18444TIP3    H276748   2.666   0.345   4.187 -0.1439 -2.6941 -1.3766
18445TIP3   OH276749   2.313   1.995  13.286  0.0621  0.5079 -0.1407
18445TIP3    H176750   2.322   2.018  13.193 -1.1948 -1.5733 -0.8472
18445TIP3    H276751   2.220   2.008  13.304  0.1426  0.0925  0.5832
18446TIP3   OH276752   3.333   0.106  12.162  0.5712 -0.1624  0.3991
18446TIP3    H176753   3.320   0.196  12.131 -0.2986 -0.1614  0.7314
18446TIP3    H276754   3.318   0.051  12.085  0.5512 -0.0488  0.3222
18447TIP3   OH276755   0.836   3.511   1.326 -0.1400 -0.4469  0.0245
18447TIP3    H176756   0.754   3.532   1.371  0.1241  1.1020 -0.1439
18447TIP3    H276757   0.815   3.519   1.233  0.2568  0.2983 -0.0142
18448TIP3   OH276758   0.075   3.904  15.130  0.1174  0.2201 -0.0324
18448TIP3    H176759   0.031   3.848  15.194  1.7144 -0.1970  0.7622
18448TIP3    H276760   0.094   3.845  15.057  0.7385  0.0086  0.2951
18449TIP3   OH276761   3.596   0.150   5.756 -0.0534  0.0452 -0.1267
18449TIP3    H176762   3.614   0.138   5.663  0.9242  1.3206 -0.1300
18449TIP3    H276763   3.567   0.241   5.763 -0.7278 -0.2213  0.7430
18450TIP3   OH276764   1.150   0.832   0.709  0.0548 -0.0883 -0.6551
18450TIP3    H176765   1.181   0.770   0.644 -0.7492  0.4698 -1.6045
18450TIP3    H276766   1.169   0.918   0.671 -1.7408  0.2632 -0.8655
18451TIP3   OH276767   0.947   2.449  15.515  0.0556 -0.2560 -0.0093
18451TIP3    H176768   0.925   2.364  15.554 -1.2572  0.4312  0.8275
18451TIP3    H276769   0.888   2.456  15.440  0.4207 -0.2282 -0.2976
18452TIP3   OH276770   1.295   2.092  13.384 -0.2589  0.0482  0.4608
18452TIP3    H176771   1.390   2.088  13.395 -0.0845 -0.7186 -1.0935
18452TIP3    H276772   1.265   2.005  13.409 -0.2329 -0.5545 -1.4317
18453TIP3   OH276773   2.024   1.804  16.895 -0.5508 -0.3686  0.5869
18453TIP3    H176774   1.970   1.818  16.818 -0.9638 -3.3277  0.2235
18453TIP3    H276775   1.974   1.844  16.967 -1.9081 -0.6887 -0.1441
18454TIP3   OH276776   4.323   3.585   2.274 -0.5477 -0.3194 -0.1916
18454TIP3    H176777   4.386   3.513   2.271  0.6614  0.6865  0.2868
18454TIP3    H276778   4.257   3.562   2.209  0.2252 -1.4816 -0.5889
18455TIP3   OH276779   1.188   1.643  13.803 -0.0107  0.0521 -0.4269
18455TIP3    H176780   1.227   1.660  13.888  0.3382 -0.2105 -0.5347
18455TIP3    H276781   1.094   1.637  13.820 -0.2410  2.5059 -0.4245
18456TIP3   OH276782   0.124   0.118  15.800 -0.0235 -0.2249  0.3146
18456TIP3    H176783   0.126   0.024  15.782  0.8927 -0.4032  1.2775
18456TIP3    H276784   0.064   0.127  15.873 -3.1807  0.4230 -2.1621
18457TIP3   OH276785   3.540   4.873  11.704  0.7196  0.2196 -0.0225
18457TIP3    H176786   3.513   4.905  11.790  0.2663 -1.0589  0.3370
18457TIP3    H276787   3.534   4.777  11.711  0.0824  0.1118 -1.6686
18458TIP3   OH276788   2.906   5.491  16.683  0.6043 -0.4973 -0.2032
18458TIP3    H176789   2.846   5.479  16.756 -0.6530 -1.2403 -1.3214
18458TIP3    H276790   2.957   5.410  16.680  2.2381  0.4028  1.1797
18459TIP3   OH276791   5.987   3.810  16.983  0.0245  0.3062 -0.0943
18459TIP3    H176792   5.972   3.716  16.993 -3.0967  0.2201 -3.2159
18459TIP3    H276793   5.959   3.848  17.066  1.3678 -1.4494  1.2419
18460TIP3   OH276794   3.513   3.921   5.972 -0.1960  0.2508 -0.1148
18460TIP3    H176795   3.537   3.829   5.982  2.0352  0.9559  1.8333
18460TIP3    H276796   3.561   3.950   5.895 -2.1030 -0.5050 -1.6712
18461TIP3   OH276797   3.049   1.686   2.564 -0.0651 -0.3394  0.5886
18461TIP3    H176798   2.961   1.700   2.599 -0.1788 -1.0341  0.6000
18461TIP3    H276799   3.035   1.631   2.487  0.4268 -1.1407  1.0608
18462TIP3   OH276800   5.180   3.756   5.537  0.0674  0.0958 -0.5115
18462TIP3    H176801   5.122   3.822   5.575 -0.7950 -0.0623 -1.4973
18462TIP3    H276802   5.262   3.804   5.519  0.0350  0.4758  0.3080
18463TIP3   OH276803   0.524   3.939  12.808  0.7427  0.0750  0.0418
18463TIP3    H176804   0.437   3.944  12.770  1.1419  0.6125 -0.8247
18463TIP3    H276805   0.579   3.899  12.740  1.0342 -0.9407  0.8424
18464TIP3   OH276806   4.519   1.294   1.448  0.0006  0.2216  0.0010
18464TIP3    H176807   4.430   1.288   1.482  0.8989 -1.8815  2.2890
18464TIP3    H276808   4.571   1.326   1.522  0.9907  3.1661 -1.7870
18465TIP3   OH276809   0.244   4.433  14.237 -0.0834  0.1868 -0.0732
18465TIP3    H176810   0.194   4.366  14.283 -1.1017  0.1972 -1.1274
18465TIP3    H276811   0.254   4.503  14.301  2.2763 -1.4940  1.5674
18466TIP3   OH276812   6.516   5.888  15.666 -0.2531 -0.3016 -0.6129
18466TIP3    H176813   6.611   5.900  15.667  0.0911 -2.3415  1.7402
18466TIP3    H276814   6.480   5.976  15.660  1.8022  0.6352  0.0029
18467TIP3   OH276815   1.021   2.358   2.950 -0.1499 -0.4587  0.0641
18467TIP3    H176816   1.070   2.411   2.887 -0.2103 -0.9020 -0.3559
18467TIP3    H276817   0.994   2.281   2.901 -0.5833 -0.5957  0.5124
18468TIP3   OH276818   5.618   6.326   5.508  0.3004 -0.5944  0.5102
18468TIP3    H176819   5.674   6.296   5.436 -1.1502  0.0791 -0.9522
18468TIP3    H276820   5.660   6.291   5.587  2.0053 -1.2617 -0.6292
18469TIP3   OH276821   4.933   3.286  13.100 -0.5627 -0.7077 -0.7038
18469TIP3    H176822   4.856   3.291  13.156  0.0559 -0.1330  0.1078
18469TIP3    H276823   4.902   3.316  13.014 -0.7278  1.7175  0.1441
18470TIP3   OH276824   5.590   0.272  11.583  0.6219 -0.5316 -0.6857
18470TIP3    H176825   5.629   0.348  11.541 -0.2438  0.1690 -0.2778
18470TIP3    H276826   5.509   0.256  11.534  0.6419 -0.9989 -0.5761
18471TIP3   OH276827   2.744   5.452   0.917  0.0872  0.1863 -0.2541
18471TIP3    H176828   2.761   5.473   0.825  1.1685  0.1102 -0.0857
18471TIP3    H276829   2.767   5.533   0.964 -0.3099  0.1729 -0.0342
18472TIP3   OH276830   5.046   3.640   1.909 -0.5307 -0.0992 -0.0300
18472TIP3    H176831   5.003   3.609   1.988  0.2680 -0.1027  0.4192
18472TIP3    H276832   5.081   3.726   1.933 -0.1852 -0.1485 -0.3385
18473TIP3   OH276833   3.231   4.822   1.770 -1.0031 -0.4654  0.2135
18473TIP3    H176834   3.237   4.852   1.679 -0.7057  1.2327  0.7641
18473TIP3    H276835   3.296   4.752   1.776  0.3324  0.6800 -0.4056
18474TIP3   OH276836   4.031   1.531   2.264  0.1358  0.0203 -0.0148
18474TIP3    H176837   3.943   1.547   2.229  0.0914 -1.2431 -0.5238
18474TIP3    H276838   4.045   1.602   2.327 -1.7376 -0.4359  0.9879
18475TIP3   OH276839   1.160   6.277   6.074  0.0086  0.2093 -0.0192
18475TIP3    H176840   1.197   6.191   6.093  1.8199  1.0533  0.5397
18475TIP3    H276841   1.105   6.296   6.150  0.8109  0.1599  0.5919
18476TIP3   OH276842   0.431   3.602   3.559  0.6317 -0.0270 -0.4076
18476TIP3    H176843   0.499   3.669   3.551  0.4245  0.1740 -0.4955
18476TIP3    H276844   0.375   3.614   3.482  0.8705 -0.6174 -0.6805
18477TIP3   OH276845   0.828   3.215  14.084 -0.2671  0.3683  0.0371
18477TIP3    H176846   0.786   3.132  14.107  2.2810 -0.8912  0.4986
18477TIP3    H276847   0.808   3.227  13.991 -0.4360 -0.9477 -0.1154
18478TIP3   OH276848   0.720   3.047  11.768 -0.5907 -0.5155 -0.3656
18478TIP3    H176849   0.752   2.961  11.794 -0.0115  0.1232  1.1732
18478TIP3    H276850   0.626   3.034  11.755 -0.6846 -1.1980  0.8019
18479TIP3   OH276851   5.202   6.350   1.435  0.0850 -0.7385  0.0617
18479TIP3    H176852   5.187   6.256   1.447 -0.9241 -0.4409  1.2204
18479TIP3    H276853   5.230   6.381   1.521  0.0397  0.0942 -0.2191
18480TIP3   OH276854   0.975   1.359   3.305  0.3646 -0.8307 -0.3114
18480TIP3    H176855   0.913   1.350   3.232 -0.7944  1.6994  0.2755
18480TIP3    H276856   1.037   1.287   3.292  0.6101 -0.1491 -4.2054
18481TIP3   OH276857   5.319   2.880  13.468  0.0439 -0.0224  0.1639
18481TIP3    H176858   5.336   2.969  13.438 -0.2252 -0.0545 -0.0875
18481TIP3    H276859   5.329   2.826  13.390 -0.4735 -0.1297  0.1687
18482TIP3   OH276860   3.656   4.333   6.663  0.5297 -0.3902 -0.1887
18482TIP3    H176861   3.620   4.387   6.593  0.6028 -0.8663 -0.6003
18482TIP3    H276862   3.584   4.323   6.725  0.4787  0.0707 -0.1725
18483TIP3   OH276863   0.197   2.092  13.762 -0.0519 -0.0589 -0.0918
18483TIP3    H176864   0.145   2.151  13.816  1.9004  1.5425  0.1534
18483TIP3    H276865   0.153   2.094  13.677 -0.9026  0.5188  0.3359
18484TIP3   OH276866   2.713   4.159   4.394 -0.1174 -0.9926 -0.1305
18484TIP3    H176867   2.677   4.226   4.452 -1.7927 -0.7366 -1.3868
18484TIP3    H276868   2.800   4.193   4.370 -0.8988  0.7364 -0.6812
18485TIP3   OH276869   4.105   5.446  14.447  0.4078 -0.0337 -0.1422
18485TIP3    H176870   4.093   5.536  14.420  0.9302  0.3707  0.9021
18485TIP3    H276871   4.123   5.451  14.541 -0.2258 -1.2759  0.0708
18486TIP3   OH276872   1.977   5.141  13.856 -0.7000 -0.3872 -0.1609
18486TIP3    H176873   2.003   5.124  13.947 -2.2975 -1.0273  0.2102
18486TIP3    H276874   1.896   5.093  13.845 -0.9621  0.3471 -1.6981
18487TIP3   OH276875   0.910   4.963   4.276  0.4582  0.2963  0.0581
18487TIP3    H176876   0.995   4.932   4.243 -0.9257 -1.4341 -2.1925
18487TIP3    H276877   0.873   4.887   4.321 -0.5028  0.5177 -0.3357
18488TIP3   OH276878   0.580   2.866   4.826  0.2450 -0.1878  0.8203
18488TIP3    H176879   0.537   2.797   4.877 -2.9096  0.5884 -0.5835
18488TIP3    H276880   0.599   2.824   4.742  1.0332 -0.1314  0.9647
18489TIP3   OH276881   1.948   5.733   6.044  0.5175  0.1578 -0.1724
18489TIP3    H176882   2.037   5.733   6.009  0.5699  0.4971 -0.0461
18489TIP3    H276883   1.960   5.731   6.139  0.4093  0.9611 -0.1343
18490TIP3   OH276884   4.181   4.880   5.244 -0.1624 -0.0707 -0.2471
18490TIP3    H176885   4.116   4.870   5.174 -2.1791  0.4017  1.4443
18490TIP3    H276886   4.165   4.805   5.302  0.4152  0.3821  0.5113
18491TIP3   OH276887   3.795   1.729   5.633  0.0441 -0.0895  0.7653
18491TIP3    H176888   3.778   1.696   5.722  0.6850 -0.1765  0.8563
18491TIP3    H276889   3.873   1.783   5.641  0.1622 -0.1742  0.2354
18492TIP3   OH276890   3.203   0.291   1.789 -0.6042 -0.1877 -0.2809
18492TIP3    H176891   3.142   0.230   1.748 -2.4103  1.8413 -0.7693
18492TIP3    H276892   3.219   0.358   1.722  0.3102  0.5723  0.6618
18493TIP3   OH276893   2.359   3.446  15.390 -0.5178 -0.2868  0.0552
18493TIP3    H176894   2.416   3.458  15.466 -1.7234  0.5848  0.8679
18493TIP3    H276895   2.312   3.365  15.408 -0.6340 -0.2044  0.1202
18494TIP3   OH276896   3.443   3.825  16.626  0.0742 -0.7777 -0.2334
18494TIP3    H176897   3.494   3.788  16.555  1.2311 -1.8426  1.0809
18494TIP3    H276898   3.388   3.752  16.656  0.9600 -0.9196  1.1305
18495TIP3   OH276899   2.055   1.638  12.884 -0.2475  0.0162 -0.2162
18495TIP3    H176900   2.063   1.734  12.887 -0.1147 -0.0080  0.2673
18495TIP3    H276901   2.040   1.612  12.975  0.5771 -0.4887 -0.2076
18496TIP3   OH276902   1.559   4.873  16.849 -0.5815  0.0967 -0.6437
18496TIP3    H176903   1.602   4.788  16.838  1.6239  0.9145  0.9747
18496TIP3    H276904   1.537   4.877  16.942 -1.1527  1.0988 -0.8108
18497TIP3   OH276905   2.342   2.022  14.886 -0.0422 -0.2387 -0.9262
18497TIP3    H176906   2.409   2.013  14.818 -0.3777  1.1894 -1.4674
18497TIP3    H276907   2.281   2.086  14.851 -1.0505 -0.6205  0.0882
18498TIP3   OH276908   2.092   6.512  12.206  0.1854 -0.0989 -0.3396
18498TIP3    H176909   2.185   6.523  12.186  0.5335 -3.0711 -0.7786
18498TIP3    H276910   2.080   6.559  12.288  1.8752  0.9945 -0.6523
18499TIP3   OH276911   2.899   1.726   5.835  0.1790  0.4428 -0.5120
18499TIP3    H176912   2.992   1.729   5.812  0.9863 -1.9739  1.9465
18499TIP3    H276913   2.865   1.654   5.783 -0.3531  1.2750 -1.3483
18500TIP3   OH276914   5.608   6.663  14.424  0.3807  0.4083 -0.5715
18500TIP3    H176915   5.612   6.669  14.520  2.1215  1.0226 -0.6595
18500TIP3    H276916   5.560   6.581  14.408 -1.1006  0.9358  0.7913
18501TIP3   OH276917   4.640   2.406   0.160  0.6795  0.0263 -0.2166
18501TIP3    H176918   4.653   2.442   0.072  1.2763  3.4743  1.1269
18501TIP3    H276919   4.599   2.477   0.209 -0.6794 -2.1684  2.0742
18502TIP3   OH276920   3.801   5.018   4.309 -0.2782  0.1967 -0.0159
18502TIP3    H176921   3.865   5.032   4.238  1.3006 -0.0488  1.2950
18502TIP3    H276922   3.717   5.012   4.264  0.5456  0.9565 -1.7921
18503TIP3   OH276923   1.018   1.070   4.351 -0.0048 -0.0106 -0.0735
18503TIP3    H176924   1.098   1.018   4.360 -0.4417 -0.8322 -0.7871
18503TIP3    H276925   0.976   1.036   4.272 -0.8841  0.6550  0.0881
18504TIP3   OH276926   1.706   4.383  13.981  0.6573  0.2765  0.3568
18504TIP3    H176927   1.617   4.369  14.011  0.3897  0.6678 -0.2293
18504TIP3    H276928   1.749   4.428  14.053 -0.6383  3.4132 -0.6430
18505TIP3   OH276929   0.590   4.033  15.662 -0.2846 -0.2417  0.6644
18505TIP3    H176930   0.615   4.107  15.717  1.9927  0.5618 -1.2926
18505TIP3    H276931   0.595   4.067  15.573  0.1774 -2.5811 -0.2695
18506TIP3   OH276932   6.426   6.280   6.933  0.1582  0.7098 -0.5440
18506TIP3    H176933   6.340   6.240   6.916  0.8248 -0.4400 -1.3281
18506TIP3    H276934   6.405   6.365   6.971 -1.3170 -0.3792  1.2454
18507TIP3   OH276935   4.243   4.371   0.254  0.6511 -0.1507 -0.6445
18507TIP3    H176936   4.304   4.431   0.211  2.1111 -2.6125 -2.3010
18507TIP3    H276937   4.190   4.336   0.182 -1.1336  0.1491  0.4586
18508TIP3   OH276938   2.421   5.279   5.290 -0.0456  0.3739  0.0835
18508TIP3    H176939   2.496   5.220   5.286 -1.5079 -1.5470 -1.0657
18508TIP3    H276940   2.376   5.255   5.371  1.0316  2.1667  1.2542
18509TIP3   OH276941   3.906   2.026   3.329 -0.3438 -0.2166  0.5501
18509TIP3    H176942   3.829   1.976   3.355 -1.0626 -0.5825 -2.0036
18509TIP3    H276943   3.919   2.089   3.399 -1.8758 -1.3340  1.9002
18510TIP3   OH276944   3.223   4.995  11.632 -0.3492  0.0176 -0.4875
18510TIP3    H176945   3.291   5.061  11.620  0.4872 -0.7311 -0.0021
18510TIP3    H276946   3.142   5.037  11.602 -0.0841  1.7447  1.0306
18511TIP3   OH276947   4.223   5.812   0.687  0.0331 -0.6369 -0.0315
18511TIP3    H176948   4.197   5.730   0.646  2.1552 -1.2499 -0.2602
18511TIP3    H276949   4.289   5.849   0.627  0.3671  0.3721  0.9245
18512TIP3   OH276950   1.974   2.150   2.986 -0.2527  0.5064  0.2725
18512TIP3    H176951   2.007   2.227   2.939 -0.3690  1.0955  1.1265
18512TIP3    H276952   2.011   2.158   3.074  1.1861 -1.3588 -0.0865
18513TIP3   OH276953   1.603   5.979  12.254  0.3867 -0.0282  0.0114
18513TIP3    H176954   1.509   5.979  12.236 -0.0889  2.7982  1.8607
18513TIP3    H276955   1.642   6.019  12.176 -0.3883  1.9770  0.5997
18514TIP3   OH276956   6.134   2.678  14.184 -0.2373  0.2345  0.2624
18514TIP3    H176957   6.227   2.682  14.160 -0.6613  0.7809 -1.4072
18514TIP3    H276958   6.131   2.716  14.271  1.0170  0.9478  0.0279
18515TIP3   OH276959   2.223   5.867  14.245 -0.0145  0.1732  0.5442
18515TIP3    H176960   2.228   5.870  14.340  3.0646 -0.1541  0.4996
18515TIP3    H276961   2.281   5.794  14.221 -1.7914 -0.6657 -1.5643
18516TIP3   OH276962   5.619   3.496  17.048 -0.3508 -0.7180 -0.8976
18516TIP3    H176963   5.632   3.529  17.137 -0.0986 -1.1013 -0.7875
18516TIP3    H276964   5.624   3.573  16.992  0.4614 -0.6052 -0.6747
18517TIP3   OH276965   4.571   2.626   3.069  0.9398 -0.0613 -0.8930
18517TIP3    H176966   4.546   2.673   3.148  1.3233  1.5759 -1.7036
18517TIP3    H276967   4.545   2.535   3.086 -0.3274  0.5155  0.5141
18518TIP3   OH276968   6.580   5.890  10.948 -0.0894  0.0788  0.5910
18518TIP3    H176969   6.546   5.862  10.863 -0.9934  0.3191  0.8567
18518TIP3    H276970   6.503   5.922  10.995  0.4980  0.5442  1.2656
18519TIP3   OH276971   2.464   2.180   6.181 -0.4236 -0.1010 -0.0076
18519TIP3    H176972   2.385   2.176   6.127 -0.0124  1.6764 -0.8458
18519TIP3    H276973   2.536   2.181   6.118  0.0387  3.0864  0.3600
18520TIP3   OH276974   1.374   1.587   2.420 -0.3261  0.6725  0.3700
18520TIP3    H176975   1.303   1.542   2.465 -1.2347 -0.8903 -2.4219
18520TIP3    H276976   1.452   1.535   2.441 -0.9844 -0.9031 -0.9682
18521TIP3   OH276977   5.527   3.302   3.877 -0.4248 -0.0254 -0.3903
18521TIP3    H176978   5.503   3.252   3.955 -0.2832 -0.2663 -0.5022
18521TIP3    H276979   5.444   3.316   3.831 -0.3691 -0.7916 -0.7392
18522TIP3   OH276980   6.713   4.198   4.139 -0.0742 -0.4405 -0.4238
18522TIP3    H176981   6.665   4.125   4.100  2.7925 -2.4140 -0.5245
18522TIP3    H276982   6.803   4.168   4.146  1.0431  2.6801  0.6951
18523TIP3   OH276983   2.770   4.352  12.370 -0.1557  0.2922  0.3563
18523TIP3    H176984   2.677   4.332  12.371  0.1954 -1.8550 -1.3483
18523TIP3    H276985   2.808   4.294  12.436  0.1675 -0.3820 -0.3937
18524TIP3   OH276986   3.115   1.476  13.237 -0.1002  0.0689 -0.4718
18524TIP3    H176987   3.127   1.386  13.208  1.2715  0.3973 -1.0187
18524TIP3    H276988   3.185   1.490  13.301  0.0599  0.9045 -0.8134
18525TIP3   OH276989   5.821   0.781  12.556  0.2939  0.6015  0.4608
18525TIP3    H176990   5.848   0.865  12.517  2.0150  0.6005  1.5418
18525TIP3    H276991   5.766   0.806  12.630  0.7155  0.7736  0.7185
18526TIP3   OH276992   2.192   4.728  12.769  0.3123  0.5519  0.1836
18526TIP3    H176993   2.143   4.654  12.806  2.0301  0.0587  1.5811
18526TIP3    H276994   2.193   4.711  12.675  0.4215 -1.0613  0.4414
18527TIP3   OH276995   6.021   0.883   3.444 -0.2340  0.1985  0.0318
18527TIP3    H176996   6.116   0.888   3.458 -0.1873  2.6541 -0.7134
18527TIP3    H276997   6.009   0.806   3.389  1.2807 -0.3523  0.4250
18528TIP3   OH276998   1.722   4.867   5.202 -0.1318 -0.1154  0.1478
18528TIP3    H176999   1.802   4.856   5.151  0.0008 -0.4527  0.4206
18528TIP3    H277000   1.750   4.852   5.293 -0.6607 -1.0347  0.1687
18529TIP3   OH277001   2.765   4.575  16.712 -0.3625 -0.4204 -0.8229
18529TIP3    H177002   2.815   4.533  16.641  2.8022  2.4098 -0.5133
18529TIP3    H277003   2.702   4.631  16.667 -0.1442 -0.5956 -1.3572
18530TIP3   OH277004   5.545   3.790  13.413 -0.2890  0.1938 -0.0548
18530TIP3    H177005   5.556   3.821  13.324 -0.7502 -2.0990 -0.9819
18530TIP3    H277006   5.578   3.700  13.412 -0.4104  0.0728  2.0558
18531TIP3   OH277007   0.835   3.718   4.417 -0.3222 -0.3740  0.3711
18531TIP3    H177008   0.893   3.785   4.454 -0.6815  1.7102 -2.5166
18531TIP3    H277009   0.895   3.656   4.374 -0.0828  0.4816 -0.5788
18532TIP3   OH277010   6.560   0.080  16.799  0.0199 -0.2922  0.9685
18532TIP3    H177011   6.499   0.057  16.729 -0.7855 -1.0183  1.8967
18532TIP3    H277012   6.645   0.052  16.766  0.1223  1.9248 -0.9143
18533TIP3   OH277013   1.528   0.529  15.973  0.1060  0.1991  0.0564
18533TIP3    H177014   1.445   0.547  16.016 -0.2263 -0.2614 -0.3819
18533TIP3    H277015   1.504   0.504  15.884  0.6931 -0.2267  0.0097
18534TIP3   OH277016   3.367   5.277  12.381 -0.2399  0.2762 -0.1117
18534TIP3    H177017   3.388   5.196  12.335  1.3335  0.2939  0.5148
18534TIP3    H277018   3.452   5.316  12.401 -0.9422  1.4371  0.7402
18535TIP3   OH277019   2.849   3.514   2.006 -0.3308  0.2940  0.3431
18535TIP3    H177020   2.846   3.466   1.923  1.1204 -0.9713  0.9668
18535TIP3    H277021   2.757   3.529   2.028 -0.7484  1.1128 -1.7129
18536TIP3   OH277022   3.199   0.443   4.011 -0.1390  0.0664 -0.4029
18536TIP3    H177023   3.136   0.392   4.061 -1.0943  0.5823 -1.0428
18536TIP3    H277024   3.225   0.514   4.070  0.0265 -0.2877 -0.0488
18537TIP3   OH277025   1.061   1.035   1.626 -0.7441  0.5065  0.2310
18537TIP3    H177026   0.991   0.981   1.664 -1.8449  0.9993 -1.0117
18537TIP3    H277027   1.018   1.082   1.554  1.1235  0.0185 -1.2790
18538TIP3   OH277028   3.486   5.078   3.169  0.0733  0.4089 -0.0624
18538TIP3    H177029   3.532   5.128   3.237  0.4217 -0.1622  0.1300
18538TIP3    H277030   3.492   4.987   3.199 -1.4625  0.3470  0.1362
18539TIP3   OH277031   3.120   3.179   6.280 -0.2587 -0.1390 -0.2126
18539TIP3    H177032   3.048   3.116   6.275 -0.9671  0.6409 -0.0219
18539TIP3    H277033   3.121   3.207   6.372 -1.1225  1.4501 -0.6533
18540TIP3   OH277034   0.957   4.560   3.388  0.6147  0.0834 -0.5632
18540TIP3    H177035   0.948   4.654   3.373  3.5877  0.3023 -1.6252
18540TIP3    H277036   0.872   4.524   3.364 -0.2958  2.3857 -1.0579
18541TIP3   OH277037   6.107   3.604  13.989 -0.0026  0.3440 -0.1625
18541TIP3    H177038   6.057   3.523  13.995  0.8933 -0.2800 -0.7634
18541TIP3    H277039   6.042   3.674  13.995 -0.8160 -0.4249  0.0962
18542TIP3   OH277040   0.694   2.771  17.483 -0.2380 -0.0947  0.2519
18542TIP3    H177041   0.644   2.825  17.422 -1.0041  0.8167  1.6270
18542TIP3    H277042   0.777   2.755  17.438  0.0070  2.2087 -0.2769
18543TIP3   OH277043   2.980   0.982  13.229 -0.0835 -0.2194  0.2844
18543TIP3    H177044   3.021   0.929  13.298  0.9781 -0.6058 -0.6168
18543TIP3    H277045   3.044   1.051  13.212 -0.7080  0.3627  0.2469
18544TIP3   OH277046   0.454   6.293  14.810 -0.2173  0.2859  0.1432
18544TIP3    H177047   0.397   6.288  14.733 -0.3263  2.1769  0.0570
18544TIP3    H277048   0.466   6.202  14.837 -2.2691 -0.2429 -0.5619
18545TIP3   OH277049   3.319   3.160  14.933 -0.0597 -0.6109 -0.3639
18545TIP3    H177050   3.288   3.237  14.886 -0.7075 -1.7801 -1.9131
18545TIP3    H277051   3.306   3.182  15.025 -0.7411  0.9059 -0.7828
18546TIP3   OH277052   1.931   4.739  15.416 -0.5964 -0.0598 -0.3717
18546TIP3    H177053   1.872   4.697  15.353 -1.0035 -2.5326  1.4998
18546TIP3    H277054   1.998   4.673  15.434  1.1447  1.6571 -0.3097
18547TIP3   OH277055   5.454   3.111  16.404 -0.4790 -0.1471 -0.1631
18547TIP3    H177056   5.532   3.119  16.459 -1.2560  0.0372  0.9565
18547TIP3    H277057   5.480   3.146  16.319  0.3915  0.7440  0.4562
18548TIP3   OH277058   4.613   2.185  13.949  0.0888  0.5682  0.2159
18548TIP3    H177059   4.555   2.256  13.921  1.9280  1.0178 -2.8917
18548TIP3    H277060   4.645   2.213  14.035  0.0880  3.1492 -0.5330
18549TIP3   OH277061   3.814   2.748   5.573  0.2547 -0.0467 -0.0664
18549TIP3    H177062   3.862   2.715   5.497  0.1708  0.2102 -0.2299
18549TIP3    H277063   3.866   2.719   5.649 -0.7920 -2.2651 -0.0950
18550TIP3   OH277064   5.237   2.686   3.696  0.8544 -0.5613  0.1402
18550TIP3    H177065   5.207   2.776   3.683 -0.4657 -1.0260 -0.2576
18550TIP3    H277066   5.161   2.641   3.734  1.3836 -1.5768  0.0271
18551TIP3   OH277067   1.150   6.446   0.989 -0.3337  0.3325  0.0644
18551TIP3    H177068   1.084   6.478   0.928 -0.8917  0.5425  0.7672
18551TIP3    H277069   1.217   6.407   0.933  0.1875  2.3500 -0.8321
18552TIP3   OH277070   3.231   3.589  17.304 -0.2158 -0.2203 -0.1907
18552TIP3    H177071   3.260   3.675  17.334 -3.1560  1.1557 -0.8771
18552TIP3    H277072   3.267   3.581  17.216  1.5652 -0.5505  0.5313
18553TIP3   OH277073   5.282   4.702   2.905 -0.1391  0.1897  0.2489
18553TIP3    H177074   5.189   4.726   2.909 -0.2783 -0.4630  1.5861
18553TIP3    H277075   5.284   4.611   2.935  0.8268 -0.1581 -0.7841
18554TIP3   OH277076   3.505   2.289  17.441 -0.5217 -0.1300 -0.1061
18554TIP3    H177077   3.552   2.307  17.522 -1.4206  0.4728  0.2852
18554TIP3    H277078   3.552   2.339  17.375 -1.0915  1.1243  0.4229
18555TIP3   OH277079   6.638   5.938   5.814 -0.3866  0.4208  0.1156
18555TIP3    H177080   6.721   5.966   5.776  0.0134 -1.7858 -0.8087
18555TIP3    H277081   6.573   5.955   5.746 -0.1166 -0.8847 -0.5146
18556TIP3   OH277082   3.655   2.554   2.832  0.0039  0.5006  0.1431
18556TIP3    H177083   3.572   2.582   2.871 -0.8971 -1.6252 -0.1309
18556TIP3    H277084   3.650   2.582   2.741 -0.8068 -0.3381 -0.0866
18557TIP3   OH277085   2.048   5.736  14.755  0.0011 -0.1939 -0.3106
18557TIP3    H177086   2.106   5.722  14.831 -0.9584  2.2649  0.9844
18557TIP3    H277087   1.970   5.686  14.775  0.5375 -1.2256 -0.7118
18558TIP3   OH277088   4.392   0.821   5.095  0.1314 -0.1837  0.0938
18558TIP3    H177089   4.313   0.788   5.137 -0.3344 -0.5012 -1.0029
18558TIP3    H277090   4.367   0.835   5.003  0.6672  2.0310  0.2342
18559TIP3   OH277091   4.754   2.674   2.134 -0.1514  1.2012  0.1897
18559TIP3    H177092   4.793   2.761   2.133 -0.2646  1.2517 -0.3705
18559TIP3    H277093   4.815   2.620   2.185  0.2085  1.4767  0.0533
18560TIP3   OH277094   4.266   6.235   4.850  0.0843 -0.3381 -0.1544
18560TIP3    H177095   4.201   6.189   4.796  1.6735 -0.2594 -2.2965
18560TIP3    H277096   4.272   6.322   4.811 -0.1954  0.4704  1.5185
18561TIP3   OH277097   0.783   0.145   0.768 -0.1640 -0.0519  0.1423
18561TIP3    H177098   0.877   0.149   0.747 -0.3280  0.7517 -0.4985
18561TIP3    H277099   0.769   0.055   0.796  0.9144 -0.0385  0.7949
18562TIP3   OH277100   6.676   3.621   4.087 -0.4259 -0.4548 -0.1173
18562TIP3    H177101   6.704   3.564   4.017  0.5118  0.7712 -0.7711
18562TIP3    H277102   6.613   3.569   4.137  0.1628 -1.9195 -0.8658
18563TIP3   OH277103   2.446   1.392  15.528 -0.4318  0.1901  0.0618
18563TIP3    H177104   2.402   1.330  15.469 -0.3048 -0.0083  0.1736
18563TIP3    H277105   2.534   1.355  15.540  0.6420  1.8588 -2.1108
18564TIP3   OH277106   3.363   5.529   1.475  0.1273 -0.5979  0.6215
18564TIP3    H177107   3.393   5.618   1.455 -1.7754  0.0073  0.2264
18564TIP3    H277108   3.350   5.489   1.390 -0.7633 -0.6119  0.7552
18565TIP3   OH277109   1.410   0.412  15.712 -0.1291  0.2358  0.2990
18565TIP3    H177110   1.461   0.463  15.650 -0.3168 -0.0702 -0.1186
18565TIP3    H277111   1.329   0.461  15.723  0.5186  1.0652  1.4817
18566TIP3   OH277112   5.199   0.295   3.297 -0.8772 -0.2649 -0.0788
18566TIP3    H177113   5.273   0.248   3.334 -1.8655 -1.8060  0.0376
18566TIP3    H277114   5.228   0.386   3.291  0.5560 -0.6145  1.1405
18567TIP3   OH277115   4.065   2.234  11.095 -0.1417 -0.0356  0.7378
18567TIP3    H177116   4.101   2.310  11.048  2.1121 -1.1155  0.5593
18567TIP3    H277117   4.021   2.271  11.171 -0.1829  1.5024  0.0073
18568TIP3   OH277118   4.726   6.326   3.928 -0.0117 -0.0746 -0.1109
18568TIP3    H177119   4.702   6.283   4.010 -3.1330  1.1220 -0.2765
18568TIP3    H277120   4.679   6.277   3.860 -0.4167  1.1493 -0.7461
18569TIP3   OH277121   1.893   2.364   4.171  0.1494 -0.2961 -0.3321
18569TIP3    H177122   1.896   2.459   4.176  1.9660 -0.3790  1.0933
18569TIP3    H277123   1.800   2.342   4.176 -0.4550  1.4376 -2.5611
18570TIP3   OH277124   4.039   5.333   1.860  0.0247 -0.1454  0.8112
18570TIP3    H177125   4.089   5.262   1.819 -0.1278  0.5423 -0.6186
18570TIP3    H277126   3.966   5.349   1.801 -0.7703  0.2306  1.8598
18571TIP3   OH277127   4.290   4.442   1.630  0.3912 -0.0129 -0.0635
18571TIP3    H177128   4.305   4.358   1.586 -2.2109 -0.5591 -0.0426
18571TIP3    H277129   4.290   4.420   1.723  0.1786  0.0928 -0.0387
18572TIP3   OH277130   3.335   2.150   2.300 -0.1004 -0.4264 -0.3269
18572TIP3    H177131   3.241   2.171   2.298  0.2106  1.2602  0.6433
18572TIP3    H277132   3.343   2.084   2.368 -0.6412 -0.9993 -0.8054
18573TIP3   OH277133   3.277   4.723   5.178  0.1185 -0.0408 -0.4208
18573TIP3    H177134   3.330   4.751   5.253 -1.2205  1.0025  0.1784
18573TIP3    H277135   3.214   4.793   5.166 -1.4966 -1.4845 -0.7323
18574TIP3   OH277136   1.030   3.608   3.840 -0.0091  0.2724 -0.2512
18574TIP3    H177137   1.105   3.553   3.863  0.9488  1.8383  0.5579
18574TIP3    H277138   0.965   3.591   3.908 -0.2387 -0.7973 -0.7291
18575TIP3   OH277139   4.343   3.456   3.911  0.1234 -0.9127  0.2860
18575TIP3    H177140   4.302   3.507   3.981  0.2869  1.4911 -1.2777
18575TIP3    H277141   4.437   3.471   3.922  0.1309 -0.1838 -0.6551
18576TIP3   OH277142   5.459   2.621   3.849 -0.3753  0.4805  0.2230
18576TIP3    H177143   5.376   2.657   3.817 -0.7829 -0.2808  0.3945
18576TIP3    H277144   5.440   2.529   3.864 -0.1028  0.7207  2.2949
18577TIP3   OH277145   2.614   0.666  17.180  0.1404 -0.5321 -0.3457
18577TIP3    H177146   2.666   0.634  17.253 -1.4472 -1.2694  0.5101
18577TIP3    H277147   2.576   0.749  17.211  1.3163  0.3801 -1.2253
18578TIP3   OH277148   0.607   4.875  13.181  0.4519 -0.0336  0.0556
18578TIP3    H177149   0.537   4.874  13.246 -0.6159 -1.2572 -1.0703
18578TIP3    H277150   0.665   4.803  13.208  0.9268  0.5381  0.5920
18579TIP3   OH277151   5.387   1.706   4.030 -0.0661 -0.4527  0.5586
18579TIP3    H177152   5.478   1.696   4.002  0.4122  0.8024  1.5402
18579TIP3    H277153   5.378   1.646   4.104  0.9183  1.5448  2.4105
18580TIP3   OH277154   4.148   5.104   1.775  0.7930  0.0018 -0.1461
18580TIP3    H177155   4.218   5.100   1.710  0.8710  1.1798 -0.1443
18580TIP3    H277156   4.102   5.021   1.765  1.4902 -0.3051 -0.9303
18581TIP3   OH277157   5.746   2.229  17.171  0.3809  0.0220 -0.3276
18581TIP3    H177158   5.824   2.283  17.186 -0.6617  1.1232  1.5462
18581TIP3    H277159   5.712   2.259  17.087 -0.5955  2.9954  0.9693
18582TIP3   OH277160   1.181   0.955  14.028 -0.1296  0.4535  0.6490
18582TIP3    H177161   1.275   0.967  14.015 -0.1067 -0.2154  0.1597
18582TIP3    H277162   1.172   0.929  14.120  0.1994  0.1720  0.6022
18583TIP3   OH277163   4.311   3.094   5.029  0.1957 -0.8326 -0.2067
18583TIP3    H177164   4.370   3.022   5.005  0.3167 -0.2309 -1.8363
18583TIP3    H277165   4.223   3.059   5.014  0.2686 -0.3301 -2.1765
18584TIP3   OH277166   6.687   6.479  14.286 -0.5793  0.4465  0.6252
18584TIP3    H177167   6.720   6.390  14.294 -0.3483  0.5773  1.1314
18584TIP3    H277168   6.594   6.468  14.267 -0.9318  0.1064  2.4035
18585TIP3   OH277169   2.320   3.377  16.316  0.0489 -0.5338  0.7302
18585TIP3    H177170   2.291   3.289  16.341 -0.4710 -0.3640  0.7218
18585TIP3    H277171   2.369   3.363  16.234 -0.7012 -0.7203  0.3015
18586TIP3   OH277172   4.286   0.583   2.463  0.5564  0.5611 -1.0887
18586TIP3    H177173   4.263   0.544   2.379  1.6771  0.0064 -1.1570
18586TIP3    H277174   4.344   0.520   2.504 -0.3434  0.6074  0.3340
18587TIP3   OH277175   1.360   6.240   3.145  0.2970  0.6137 -0.0033
18587TIP3    H177176   1.310   6.289   3.210  1.2331  2.3154 -0.5127
18587TIP3    H277177   1.319   6.262   3.061  0.5872  0.3656 -0.2143
18588TIP3   OH277178   0.114   4.772  15.423  0.2271  0.0862  0.4520
18588TIP3    H177179   0.112   4.776  15.519  0.5058 -0.8262  0.5083
18588TIP3    H277180   0.022   4.765  15.397  0.2066 -0.7833  0.7248
18589TIP3   OH277181   2.824   5.327  16.012 -0.3968  0.2155  0.4430
18589TIP3    H177182   2.916   5.325  15.986  0.0877  2.7048  1.5936
18589TIP3    H277183   2.825   5.307  16.106 -1.5272 -3.3871 -0.1571
18590TIP3   OH277184   0.873   6.498   3.911  0.5205 -0.4047  0.3927
18590TIP3    H177185   0.811   6.505   3.983  1.9012  0.0262  1.5984
18590TIP3    H277186   0.919   6.582   3.910  1.1763 -0.7517 -0.3657
18591TIP3   OH277187   1.853   4.602   3.578 -0.2798 -0.4690  0.1675
18591TIP3    H177188   1.775   4.591   3.524 -2.1538  2.4164  2.0528
18591TIP3    H277189   1.854   4.526   3.636 -0.4616 -1.5522 -1.1774
18592TIP3   OH277190   0.854   6.165   1.087  0.0352  0.6274  0.0217
18592TIP3    H177191   0.936   6.210   1.106 -0.1308  0.4019  1.3924
18592TIP3    H277192   0.794   6.234   1.057  0.2640  1.0488  0.5291
18593TIP3   OH277193   6.113   1.676  14.081  0.7366  0.2276 -0.2059
18593TIP3    H177194   6.101   1.620  14.158 -0.6487 -0.0069 -0.5680
18593TIP3    H277195   6.073   1.759  14.106  0.4269  0.2040 -0.6250
18594TIP3   OH277196   2.412   2.099   1.209 -0.0671 -0.0830 -0.4532
18594TIP3    H177197   2.370   2.029   1.160  0.4326 -1.6208  1.2069
18594TIP3    H277198   2.506   2.083   1.199  0.0459 -0.0810  0.4642
18595TIP3   OH277199   0.082   0.874   5.521  0.4055 -0.1318  0.4329
18595TIP3    H177200   0.124   0.956   5.547  2.2990 -0.6534 -0.7248
18595TIP3    H277201   0.120   0.853   5.435 -1.3898 -1.3069 -0.1451
18596TIP3   OH277202   1.745   3.233   1.084 -0.0306 -0.5206  0.2566
18596TIP3    H177203   1.782   3.191   1.162  0.4992 -0.8403 -0.1625
18596TIP3    H277204   1.674   3.288   1.118  0.9347  0.2431  1.0998
18597TIP3   OH277205   1.577   0.280   0.450 -0.1229  0.1304  0.0261
18597TIP3    H177206   1.622   0.200   0.421 -0.0867  0.3246 -0.4670
18597TIP3    H277207   1.526   0.307   0.373  0.2923  0.8866  0.0167
18598TIP3   OH277208   4.506   0.081  11.272  0.6419  0.0182  0.3376
18598TIP3    H177209   4.556   0.075  11.353 -1.7555 -1.1752  1.8582
18598TIP3    H277210   4.538   0.010  11.218  2.1936  0.7521  0.2468
18599TIP3   OH277211   2.226   0.724  14.626 -0.0834 -0.8195  0.6767
18599TIP3    H177212   2.281   0.647  14.645  2.3802  0.8377  0.7895
18599TIP3    H277213   2.145   0.709  14.675  0.1216 -3.5227  0.3191
18600TIP3   OH277214   4.917   4.311   5.125  0.2403  0.2358 -0.5557
18600TIP3    H177215   4.992   4.360   5.158 -0.1832 -0.0642  0.9263
18600TIP3    H277216   4.924   4.317   5.030  3.0413 -1.1248 -0.5358
18601TIP3   OH277217   1.839   2.873   1.939 -0.1568 -0.3829 -0.3601
18601TIP3    H177218   1.790   2.871   1.857  1.2524 -0.9900 -1.2125
18601TIP3    H277219   1.884   2.789   1.943  1.0154  0.2446  0.2633
18602TIP3   OH277220   5.240   2.925   4.046 -0.3373  0.2328 -0.2254
18602TIP3    H177221   5.209   2.835   4.057  0.7943  0.0149  1.6849
18602TIP3    H277222   5.161   2.977   4.038 -1.1480 -0.6259  1.6354
18603TIP3   OH277223   1.560   5.851   5.529 -0.7144  0.4526  0.1879
18603TIP3    H177224   1.470   5.838   5.500 -0.3453 -1.6309 -0.2013
18603TIP3    H277225   1.555   5.846   5.625 -0.8761 -0.9467  0.1273
18604TIP3   OH277226   0.349   3.480   5.160  0.6991  0.3189  0.1367
18604TIP3    H177227   0.388   3.396   5.137  1.9691  1.1822 -1.0458
18604TIP3    H277228   0.290   3.461   5.233  0.5956 -1.6645 -0.4222
18605TIP3   OH277229   5.684   2.556   2.510 -0.2210 -0.1674 -0.3354
18605TIP3    H177230   5.639   2.554   2.426  0.9152 -0.9987 -0.9413
18605TIP3    H277231   5.635   2.621   2.562 -0.0559  1.4684 -2.1126
18606TIP3   OH277232   6.505   5.260   3.205  0.1659 -0.8738  0.8524
18606TIP3    H177233   6.466   5.269   3.118  1.1298  1.9081  0.5882
18606TIP3    H277234   6.436   5.224   3.260 -1.3813 -0.0455 -0.4790
18607TIP3   OH277235   0.206   3.554   0.318 -0.0694  0.0082  0.2098
18607TIP3    H177236   0.114   3.526   0.324 -0.4274  1.1550  0.2960
18607TIP3    H277237   0.222   3.600   0.400  0.6959 -0.4748  0.3395
18608TIP3   OH277238   0.019   0.143   5.887  0.5700 -0.4612  0.1524
18608TIP3    H177239   0.036   0.232   5.919  3.1947 -0.2343 -1.5497
18608TIP3    H277240   0.013   0.152   5.792  0.9720 -2.0847 -0.0630
18609TIP3   OH277241   4.887   6.673   1.269 -0.1596  0.7750  0.3449
18609TIP3    H177242   4.884   6.710   1.181  0.6070 -0.5719 -0.2853
18609TIP3    H277243   4.796   6.656   1.292 -0.5322  2.9498  0.6541
18610TIP3   OH277244   5.841   1.144   1.902 -0.2758  0.1264  0.0668
18610TIP3    H177245   5.863   1.176   1.989 -0.8555  0.1481  0.2114
18610TIP3    H277246   5.902   1.072   1.887 -0.3232 -0.0275  0.5879
18611TIP3   OH277247   0.966   5.589  10.769  0.4185  0.6085  0.0987
18611TIP3    H177248   0.970   5.525  10.698 -1.8057  2.0559 -1.4475
18611TIP3    H277249   1.035   5.652  10.750 -0.5185  1.2993 -1.1911
18612TIP3   OH277250   4.561   5.206   3.633 -0.7704  0.1735  0.1219
18612TIP3    H177251   4.566   5.291   3.676 -0.7816  0.2683 -0.0606
18612TIP3    H277252   4.614   5.216   3.554 -0.0321 -0.2674  0.5427
18613TIP3   OH277253   3.968   4.506  14.892  0.4247 -0.2750 -0.5365
18613TIP3    H177254   3.919   4.571  14.942  2.9441 -0.5879  2.6751
18613TIP3    H277255   4.046   4.553  14.862  0.1980 -0.7883 -1.9938
18614TIP3   OH277256   1.614   3.603   2.970  0.6523  0.5526 -0.0628
18614TIP3    H177257   1.523   3.586   2.946  0.2310  1.4262  0.8313
18614TIP3    H277258   1.660   3.524   2.946 -0.3072  0.1767 -0.7396
18615TIP3   OH277259   1.869   5.992  15.753  0.1581 -0.1371  0.0511
18615TIP3    H177260   1.895   5.902  15.774 -3.7735 -2.1256 -2.5329
18615TIP3    H277261   1.888   6.002  15.660 -2.6015  0.3233 -0.5450
18616TIP3   OH277262   4.109   2.921   5.613  0.4393 -0.6215 -0.4921
18616TIP3    H177263   4.123   2.830   5.640 -2.2169 -0.9097  0.2075
18616TIP3    H277264   4.093   2.968   5.694  1.0343  0.3408 -0.9126
18617TIP3   OH277265   6.174   3.302  15.599 -0.2199 -0.1701 -0.2321
18617TIP3    H177266   6.094   3.249  15.598 -0.1010 -0.3616  0.1208
18617TIP3    H277267   6.147   3.387  15.631 -1.0849  1.1188 -3.8560
18618TIP3   OH277268   6.289   0.242   4.751 -0.6388 -0.4358 -0.0636
18618TIP3    H177269   6.336   0.283   4.678 -0.6285  0.4340  0.4258
18618TIP3    H277270   6.216   0.302   4.769 -1.0827 -1.0323  0.1465
18619TIP3   OH277271   5.949   3.266   1.682  0.8014 -0.4008 -0.2905
18619TIP3    H177272   5.982   3.315   1.757  0.7875 -0.0965 -0.4837
18619TIP3    H277273   5.855   3.283   1.682  0.5862 -1.4926  0.4266
18620TIP3   OH277274   2.369   5.289   5.893 -0.3387 -0.3358  1.0241
18620TIP3    H177275   2.446   5.345   5.904 -0.7701  1.4597 -3.2776
18620TIP3    H277276   2.298   5.336   5.937  0.1741  0.1897  1.3080
18621TIP3   OH277277   1.179   4.947   0.950 -0.0677  0.0161 -0.5390
18621TIP3    H177278   1.238   4.876   0.973 -0.9935 -1.3924 -2.2490
18621TIP3    H277279   1.125   4.960   1.028 -4.4269 -5.8839 -1.8758
18622TIP3   OH277280   5.854   6.221  14.363  0.0914 -0.2724  0.1800
18622TIP3    H177281   5.880   6.289  14.426  0.5498  1.1483 -1.4924
18622TIP3    H277282   5.933   6.205  14.312 -0.5510 -0.6981 -0.6902
18623TIP3   OH277283   0.434   1.828  16.450 -0.0768  0.0453  0.5676
18623TIP3    H177284   0.434   1.750  16.395 -0.3020 -0.4681  1.2710
18623TIP3    H277285   0.357   1.818  16.506 -0.2667  0.9122  0.4805
18624TIP3   OH277286   5.338   3.160   6.381  0.3274 -0.3258  0.1835
18624TIP3    H177287   5.374   3.163   6.470  1.2479 -0.7057 -0.1627
18624TIP3    H277288   5.390   3.093   6.336 -0.2738 -0.2981 -0.5828
18625TIP3   OH277289   1.784   3.479  12.732  0.1996 -0.4933  0.0040
18625TIP3    H177290   1.705   3.474  12.677  3.2114  1.0290 -5.1999
18625TIP3    H277291   1.801   3.389  12.759 -1.9182 -1.2440 -0.9659
18626TIP3   OH277292   2.607   5.191   4.116 -0.0026  0.4026  0.3265
18626TIP3    H177293   2.583   5.241   4.193  0.9682  1.2626  0.0907
18626TIP3    H277294   2.688   5.146   4.140  1.1819  1.9044 -0.6586
18627TIP3   OH277295   1.848   2.510   5.989  0.8561 -0.0213  0.1747
18627TIP3    H177296   1.826   2.601   6.005  1.7352  0.3223 -0.4899
18627TIP3    H277297   1.872   2.475   6.075  1.3292  0.6031  0.3009
18628TIP3   OH277298   2.511   0.587  15.370  0.0753  0.3745  0.0585
18628TIP3    H177299   2.460   0.548  15.441  0.6779  1.4820  1.1219
18628TIP3    H277300   2.494   0.529  15.295 -4.2574  1.6337 -0.2306
18629TIP3   OH277301   1.454   1.421  14.072  0.1096  0.1202  0.3629
18629TIP3    H177302   1.517   1.448  14.139  1.2948  0.8122 -0.9670
18629TIP3    H277303   1.398   1.497  14.059 -0.0277  0.0356  0.4498
18630TIP3   OH277304   5.872   5.344   4.525 -0.1039 -0.1237  0.2730
18630TIP3    H177305   5.804   5.322   4.461  0.5771  0.5623 -0.7125
18630TIP3    H277306   5.831   5.408   4.583 -1.0043 -1.3859  1.0826
18631TIP3   OH277307   0.273   4.833   4.412  1.1408  0.9149 -0.2623
18631TIP3    H177308   0.328   4.760   4.441  0.6065  0.9777  0.9895
18631TIP3    H277309   0.272   4.893   4.486 -1.5160  0.3875  0.2661
18632TIP3   OH277310   6.631   6.061   4.742  0.5301  0.2316  0.2161
18632TIP3    H177311   6.673   6.077   4.827  0.0792 -0.3659  0.5553
18632TIP3    H277312   6.607   5.969   4.744  5.3299 -1.4720 -2.6660
18633TIP3   OH277313   2.716   6.087  15.792  0.2617  0.2469  0.5850
18633TIP3    H177314   2.653   6.036  15.741 -0.1415 -0.5384  1.8313
18633TIP3    H277315   2.793   6.031  15.799  0.0627  0.0644  1.4028
18634TIP3   OH277316   4.686   4.078   0.082 -0.7119  0.6919  0.2802
18634TIP3    H177317   4.650   4.123   0.006 -1.8423  2.5480  1.8123
18634TIP3    H277318   4.761   4.133   0.109 -0.0878 -0.1536  0.3009
18635TIP3   OH277319   4.123   4.140   3.459 -0.3668  0.0458 -0.1063
18635TIP3    H177320   4.120   4.130   3.554 -1.3687  0.6794 -0.0573
18635TIP3    H277321   4.037   4.175   3.436 -0.4532 -0.9163 -1.3448
18636TIP3   OH277322   3.712   4.057   3.280 -0.5775  0.2632  0.2182
18636TIP3    H177323   3.758   3.977   3.257 -0.1952  0.1309  1.3481
18636TIP3    H277324   3.732   4.118   3.209 -0.9244 -0.6549 -0.6777
18637TIP3   OH277325   0.909   0.277   3.707  0.0648  0.3598  0.2043
18637TIP3    H177326   0.984   0.243   3.658 -0.6096  1.4674 -1.7428
18637TIP3    H277327   0.880   0.353   3.656 -1.0618  1.2741  2.0786
18638TIP3   OH277328   3.310   3.985  13.777 -0.0941 -0.0736  0.0103
18638TIP3    H177329   3.395   4.012  13.812  0.6732 -0.0241 -1.7833
18638TIP3    H277330   3.258   4.065  13.774 -0.4515 -0.2127  1.6934
18639TIP3   OH277331   5.113   4.653  16.855 -0.7370 -0.1160  0.5109
18639TIP3    H177332   5.148   4.732  16.815  0.2642 -1.1490 -0.7696
18639TIP3    H277333   5.082   4.681  16.941  0.2158  1.5168  0.3659
18640TIP3   OH277334   3.931   3.083  14.797  0.0777 -0.1733  0.4442
18640TIP3    H177335   4.015   3.063  14.837  0.6370 -1.0709 -1.0908
18640TIP3    H277336   3.943   3.062  14.704 -1.3633  1.1564 -0.0889
18641TIP3   OH277337   5.151   5.551   5.883  0.5283  0.7940  0.0519
18641TIP3    H177338   5.131   5.467   5.925 -0.4632  0.6268 -0.7321
18641TIP3    H277339   5.243   5.543   5.857  1.2429  0.9590  2.2750
18642TIP3   OH277340   3.949   0.078  14.488  0.0961 -0.0956 -0.6857
18642TIP3    H177341   4.010   0.004  14.501  1.3542  0.6944 -1.8131
18642TIP3    H277342   3.989   0.130  14.419 -0.6994  1.7368  0.1651
18643TIP3   OH277343   3.023   5.128   2.894 -0.3269  0.0481  0.6130
18643TIP3    H177344   3.084   5.135   2.967  0.2994 -1.6497  0.3027
18643TIP3    H277345   3.044   5.043   2.853 -1.3117  0.5087 -0.9386
18644TIP3   OH277346   4.465   0.415  17.630  0.0844  0.0504  0.9572
18644TIP3    H177347   4.418   0.331  17.622  0.5996 -0.0701 -2.7893
18644TIP3    H277348   4.558   0.390  17.636  0.1863  0.3407  0.6184
18645TIP3   OH277349   4.739   2.999  14.129  0.4221 -0.3896  0.0553
18645TIP3    H177350   4.698   3.083  14.107 -2.6628 -2.2671 -2.1477
18645TIP3    H277351   4.771   3.011  14.218 -1.6775  2.4910  0.5753
18646TIP3   OH277352   3.310   1.144   4.041 -0.4183  0.9570 -0.9762
18646TIP3    H177353   3.345   1.229   4.012  0.3349  0.3603 -1.8819
18646TIP3    H277354   3.319   1.088   3.965 -0.2576 -0.1348 -0.1734
18647TIP3   OH277355   2.698   5.371  12.788 -0.1175 -0.0294  0.6706
18647TIP3    H177356   2.617   5.337  12.825 -1.6425 -0.2352 -2.4763
18647TIP3    H277357   2.672   5.407  12.703  2.9695  0.6741 -0.1073
18648TIP3   OH277358   0.781   2.749  13.217 -0.2152  0.2438 -0.4553
18648TIP3    H177359   0.708   2.687  13.207 -2.4544  2.9789 -3.0570
18648TIP3    H277360   0.819   2.756  13.130  2.2147  0.1143  0.5148
18649TIP3   OH277361   6.360   2.374   2.002 -0.0141  0.7141  0.3984
18649TIP3    H177362   6.406   2.458   2.004  0.4032  0.5165 -0.5100
18649TIP3    H277363   6.313   2.371   2.085  3.0262  0.1110  2.2492
18650TIP3   OH277364   6.543   5.450  17.276 -0.0625 -0.4032  0.2454
18650TIP3    H177365   6.585   5.438  17.361  0.9942 -1.2121 -0.3788
18650TIP3    H277366   6.463   5.397  17.282 -0.7943  0.7624  1.2641
18651TIP3   OH277367   3.221   5.628  12.152  0.1162  0.1033  0.7034
18651TIP3    H177368   3.141   5.577  12.142 -0.3489  1.2748 -3.6158
18651TIP3    H277369   3.291   5.565  12.134 -0.1365 -0.0836  0.3549
18652TIP3   OH277370   3.690   0.553   0.601  0.4599 -0.6665  0.3841
18652TIP3    H177371   3.777   0.530   0.570  1.3698 -0.2949  2.4679
18652TIP3    H277372   3.654   0.471   0.635  0.5546 -0.5704  0.7266
18653TIP3   OH277373   1.581   2.852   2.127  0.4292  0.4583 -0.4720
18653TIP3    H177374   1.619   2.856   2.215  0.6832  1.0911 -0.6049
18653TIP3    H277375   1.648   2.892   2.070  0.8984 -1.1983 -1.1776
18654TIP3   OH277376   1.836   4.117   5.321 -0.2457  0.3033  0.5225
18654TIP3    H177377   1.914   4.167   5.294 -0.7893  0.1280 -1.5838
18654TIP3    H277378   1.860   4.026   5.305 -0.2113  0.0889  1.7577
18655TIP3   OH277379   6.387   5.450  15.619  0.3097 -0.8495 -0.6154
18655TIP3    H177380   6.329   5.402  15.678 -1.1712  1.0560 -0.4178
18655TIP3    H277381   6.382   5.402  15.536 -1.2433 -0.9954 -0.4672
18656TIP3   OH277382   6.246   3.477   6.551 -0.7383 -1.0473 -0.2377
18656TIP3    H177383   6.290   3.419   6.489  0.3518  0.2283 -0.7044
18656TIP3    H277384   6.316   3.510   6.608 -1.5727 -1.3902  1.0198
18657TIP3   OH277385   0.511   0.813  15.920  0.1282  0.7322 -0.1499
18657TIP3    H177386   0.556   0.885  15.964 -0.7947  0.3956  1.4309
18657TIP3    H277387   0.440   0.789  15.979 -1.4806  0.5225 -2.0298
18658TIP3   OH277388   3.524   5.676  13.109  0.6344 -0.1394 -0.2581
18658TIP3    H177389   3.583   5.714  13.044  1.8760 -0.8374  0.4316
18658TIP3    H277390   3.437   5.680  13.068  1.1187  1.0331 -1.2357
18659TIP3   OH277391   0.987   1.807   5.052 -0.4380  0.6517 -0.6974
18659TIP3    H177392   1.048   1.804   4.978  1.4513  0.6741  0.7910
18659TIP3    H277393   0.988   1.898   5.080  1.0222  0.1753  1.0047
18660TIP3   OH277394   4.770   3.857  11.640 -0.5401 -0.1510  0.2515
18660TIP3    H177395   4.735   3.774  11.672 -0.4082 -0.6453 -0.8545
18660TIP3    H277396   4.704   3.922  11.667 -0.9644 -0.6966  0.5608
18661TIP3   OH277397   3.177   2.120  15.670 -0.2024 -0.0506  0.0963
18661TIP3    H177398   3.249   2.063  15.643 -0.8752 -0.9860  0.2509
18661TIP3    H277399   3.217   2.207  15.676  0.5824 -0.2891 -1.2368
18662TIP3   OH277400   6.205   1.041  13.568  0.2278 -0.4631 -0.1637
18662TIP3    H177401   6.230   0.965  13.620 -0.2127  1.2218  2.7599
18662TIP3    H277402   6.111   1.050  13.581  0.6190  2.0203  1.9043
18663TIP3   OH277403   2.662   6.500  10.952  0.3082  0.5378 -0.0815
18663TIP3    H177404   2.574   6.487  10.987  0.0478  0.9728 -0.5722
18663TIP3    H277405   2.678   6.422  10.899 -0.4917  1.2711 -1.4397
18664TIP3   OH277406   0.490   0.379   3.412  0.3874 -0.7900  0.4592
18664TIP3    H177407   0.526   0.324   3.482 -0.8895 -1.4247  0.6357
18664TIP3    H277408   0.509   0.468   3.440  1.0571 -1.0749  0.9547
18665TIP3   OH277409   1.673   4.864   6.649  0.4100 -0.2067  0.3493
18665TIP3    H177410   1.689   4.869   6.555  0.9243  0.9265  0.4683
18665TIP3    H277411   1.642   4.775   6.664 -0.3429 -0.2016 -0.9876
18666TIP3   OH277412   6.518   1.462  14.133  0.3270 -0.1330 -0.4447
18666TIP3    H177413   6.442   1.405  14.122  0.8368 -0.6021 -1.6849
18666TIP3    H277414   6.483   1.551  14.123 -0.1451 -0.3141 -0.4160
18667TIP3   OH277415   5.870   4.608   0.825  0.4994  0.6978  0.1945
18667TIP3    H177416   5.810   4.535   0.841  1.9694 -0.5462  0.4054
18667TIP3    H277417   5.933   4.573   0.761  0.5802  2.1973 -0.5927
18668TIP3   OH277418   0.435   6.179  17.624 -0.2425 -0.2314 -0.3457
18668TIP3    H177419   0.529   6.191  17.618 -0.3224  0.9613  0.4234
18668TIP3    H277420   0.404   6.180  17.533  0.5251 -1.2089 -0.6341
18669TIP3   OH277421   3.515   1.894  15.152 -0.0842  0.2968  1.1716
18669TIP3    H177422   3.424   1.921  15.164 -0.1470  2.1068 -2.1745
18669TIP3    H277423   3.521   1.870  15.060  2.4341 -1.7236  1.7357
18670TIP3   OH277424   5.121   1.497  15.771  0.5936  0.2298 -0.1794
18670TIP3    H177425   5.129   1.404  15.748  0.5340 -0.3463  1.9002
18670TIP3    H277426   5.034   1.522  15.740  1.0991 -0.0365 -1.8741
18671TIP3   OH277427   2.953   5.054  15.110 -0.0467  0.1405  0.0648
18671TIP3    H177428   2.898   4.976  15.121  1.0628 -0.5676  0.7545
18671TIP3    H277429   2.996   5.040  15.026  0.7026 -0.3556  0.5233
18672TIP3   OH277430   3.252   2.368  12.434  0.7702  0.2688  0.5446
18672TIP3    H177431   3.253   2.455  12.396 -0.9813 -0.1360 -0.5488
18672TIP3    H277432   3.276   2.310  12.362  0.0310 -0.2887  0.7275
18673TIP3   OH277433   5.176   3.401  13.024 -0.5637  0.2725  0.4733
18673TIP3    H177434   5.130   3.353  13.093  0.1667 -3.0419 -1.1761
18673TIP3    H277435   5.268   3.397  13.048 -0.5691  2.2881  1.0518
18674TIP3   OH277436   2.931   6.333   4.423 -0.5059 -1.0929  0.4001
18674TIP3    H177437   3.000   6.297   4.478 -0.0206  2.2460  2.2958
18674TIP3    H277438   2.850   6.309   4.468 -0.1678  0.4883  1.9731
18675TIP3   OH277439   2.515   6.333   0.904  0.1924 -0.4811 -0.0217
18675TIP3    H177440   2.457   6.305   0.976  0.9073 -0.8444  0.4249
18675TIP3    H277441   2.555   6.413   0.936  1.4989 -1.3285  0.5481
18676TIP3   OH277442   4.945   1.101  12.599  0.1276 -0.4415 -0.0364
18676TIP3    H177443   4.882   1.041  12.559  0.3649  0.5274 -1.9844
18676TIP3    H277444   4.952   1.071  12.690 -0.4985 -2.7113 -0.6633
18677TIP3   OH277445   1.112   3.840  13.735  0.4610  0.1055  0.0340
18677TIP3    H177446   1.186   3.869  13.788  0.9388 -0.5763 -0.2426
18677TIP3    H277447   1.124   3.884  13.651  0.9433 -0.5275 -0.2393
18678TIP3   OH277448   1.439   4.813   6.023 -0.1978 -0.6255 -0.2511
18678TIP3    H177449   1.430   4.734   6.076  1.0346 -1.0336 -0.6244
18678TIP3    H277450   1.403   4.789   5.937 -1.1704 -0.3072  0.0516
18679TIP3   OH277451   2.117   5.120   0.733 -0.3879  0.7411 -0.3408
18679TIP3    H177452   2.026   5.105   0.758 -0.8087  1.2481 -1.5015
18679TIP3    H277453   2.168   5.089   0.808 -1.4722 -0.4162 -0.0449
18680TIP3   OH277454   5.672   3.606   4.916 -0.3213  0.1745 -0.7484
18680TIP3    H177455   5.624   3.653   4.985 -0.2174  0.7952 -1.0934
18680TIP3    H277456   5.744   3.665   4.893 -0.6846  0.2308 -1.7860
18681TIP3   OH277457   1.496   0.338  17.422 -0.3005 -0.0583 -0.0313
18681TIP3    H177458   1.526   0.337  17.513  1.8072  3.6849 -0.4835
18681TIP3    H277459   1.569   0.301  17.372  0.9915  2.8543 -0.5250
18682TIP3   OH277460   4.887   1.747   5.910 -0.1363  0.5724  0.2522
18682TIP3    H177461   4.872   1.660   5.873  1.6135  0.2450  0.2412
18682TIP3    H277462   4.904   1.803   5.835  2.8742  0.0213  0.4364
18683TIP3   OH277463   0.597   4.755  11.399 -0.4824  0.0814  0.3676
18683TIP3    H177464   0.558   4.839  11.374  0.1123  0.0659 -0.6868
18683TIP3    H277465   0.691   4.773  11.401 -0.2414 -0.8480 -1.1305
18684TIP3   OH277466   0.862   4.142  14.379 -0.3545 -0.7925  0.3908
18684TIP3    H177467   0.783   4.177  14.421 -0.6345 -1.3035  0.3060
18684TIP3    H277468   0.838   4.136  14.286  0.2193  0.2276  0.1623
18685TIP3   OH277469   1.134   4.045  12.278  0.3726 -0.3913  0.1222
18685TIP3    H177470   1.201   4.009  12.336  1.3101  0.2370 -0.5441
18685TIP3    H277471   1.071   3.974  12.267 -0.3890 -0.2204  2.7029
18686TIP3   OH277472   6.520   4.953   6.559  0.6435  0.1018  0.2229
18686TIP3    H177473   6.601   4.930   6.604  0.2018 -0.0456  0.9667
18686TIP3    H277474   6.538   5.036   6.516  0.9264  0.5052  1.1079
18687TIP3   OH277475   2.001   1.530   5.900  0.6667 -0.1873 -0.5314
18687TIP3    H177476   2.011   1.564   5.811 -0.8655 -0.4490 -0.8415
18687TIP3    H277477   1.989   1.608   5.954  0.5962 -0.0687 -0.7169
18688TIP3   OH277478   4.935   5.678  16.728  0.2714  0.9873 -0.5556
18688TIP3    H177479   4.915   5.609  16.791  0.9164  1.3973  0.1153
18688TIP3    H277480   4.945   5.757  16.781 -0.0740  1.5304 -1.2727
18689TIP3   OH277481   5.668   5.565   4.565 -0.1131 -0.0515  0.1833
18689TIP3    H177482   5.607   5.574   4.638  1.0466  0.7391  1.1080
18689TIP3    H277483   5.613   5.561   4.487 -1.3528  2.6478  0.7883
18690TIP3   OH277484   3.236   2.258   1.716  0.5430 -0.2123 -0.1249
18690TIP3    H177485   3.319   2.250   1.763 -0.0292 -2.8061  0.6212
18690TIP3    H277486   3.250   2.213   1.634 -0.1208 -0.6833  0.0118
18691TIP3   OH277487   0.101   4.684   2.704  0.2171  0.2118 -0.1802
18691TIP3    H177488   0.150   4.711   2.782  0.5331  0.3276 -0.4169
18691TIP3    H277489   0.131   4.595   2.687 -2.0697 -1.0109  1.6062
18692TIP3   OH277490   2.745   3.406   3.510  0.4549  0.2261 -0.3335
18692TIP3    H177491   2.699   3.448   3.583  1.4574  0.5534  0.1297
18692TIP3    H277492   2.830   3.381   3.547  1.4411  1.4455 -1.6820
18693TIP3   OH277493   2.200   2.718   2.435 -0.1842 -0.4118  0.1251
18693TIP3    H177494   2.115   2.735   2.394  0.9166  1.3866 -1.6082
18693TIP3    H277495   2.193   2.629   2.469 -2.3920 -0.7000 -0.8996
18694TIP3   OH277496   4.659   2.219  12.766  0.4956  0.1570  0.2442
18694TIP3    H177497   4.664   2.189  12.856  0.9341  3.2779  1.3767
18694TIP3    H277498   4.750   2.224  12.736  0.4760  0.8754  0.2873
18695TIP3   OH277499   1.197   6.692  13.884  0.5873  0.4750 -0.0619
18695TIP3    H177500   1.208   6.600  13.908  0.5637  0.3825 -0.3965
18695TIP3    H277501   1.246   6.740  13.950 -0.1481  0.2786  0.6529
18696TIP3   OH277502   0.656   3.878   0.149 -0.2252  0.0144  0.3435
18696TIP3    H177503   0.602   3.935   0.094  2.4124 -0.0592 -2.5650
18696TIP3    H277504   0.645   3.791   0.113  2.0074  0.0573 -0.6567
18697TIP3   OH277505   3.817   4.309  10.933 -0.8747  0.4863  0.9866
18697TIP3    H177506   3.722   4.311  10.949 -0.6588 -0.2098  2.5717
18697TIP3    H277507   3.829   4.236  10.872 -1.5200  1.7374 -0.6814
18698TIP3   OH277508   5.474   2.243  16.734  0.1519 -0.9020  0.3227
18698TIP3    H177509   5.435   2.276  16.815 -0.9940  1.0999 -0.9417
18698TIP3    H277510   5.547   2.303  16.717 -0.6460 -0.2606 -0.9446
18699TIP3   OH277511   4.262   6.322   1.600 -0.0810 -0.1407 -0.0021
18699TIP3    H177512   4.261   6.340   1.694  0.0939 -0.0687 -0.0128
18699TIP3    H277513   4.285   6.406   1.560 -0.6691 -0.0459 -0.1410
18700TIP3   OH277514   6.349   2.604  12.218  0.4032  0.5325  0.3097
18700TIP3    H177515   6.298   2.585  12.139  0.7498  0.3450  0.1306
18700TIP3    H277516   6.329   2.695  12.239  2.7142  1.6295 -1.7762
18701TIP3   OH277517   5.751   3.035  14.360 -0.3809  0.5664 -0.0260
18701TIP3    H177518   5.702   2.989  14.428  0.3355 -1.6823 -0.9428
18701TIP3    H277519   5.687   3.050  14.290 -0.9827  2.3966  0.8518
18702TIP3   OH277520   2.789   0.324  13.476  0.1606  0.1628 -0.2920
18702TIP3    H177521   2.734   0.335  13.399 -0.3320  4.3234  0.4134
18702TIP3    H277522   2.742   0.263  13.532 -0.4893 -1.3016 -2.3334
18703TIP3   OH277523   4.392   0.283   0.334 -0.7495  0.4176  0.2224
18703TIP3    H177524   4.477   0.325   0.344 -0.8833  1.0358 -1.0540
18703TIP3    H277525   4.404   0.218   0.265 -1.1200 -0.0314  0.5730
18704TIP3   OH277526   2.652   0.102  13.640 -0.3348  0.3629  0.2080
18704TIP3    H177527   2.672   0.035  13.575  0.0848 -1.0263  1.6802
18704TIP3    H277528   2.565   0.133  13.617 -0.3825 -0.4300 -0.7393
18705TIP3   OH277529   5.193   3.405   5.330  0.2867 -0.4674  0.1735
18705TIP3    H177530   5.187   3.339   5.399  3.8508 -1.9245 -0.7030
18705TIP3    H277531   5.147   3.481   5.366 -1.4284 -2.4192  2.4392
18706TIP3   OH277532   5.174   6.277   1.920 -0.2664 -0.0465 -0.3370
18706TIP3    H177533   5.109   6.331   1.875  0.2731 -0.0992 -1.1958
18706TIP3    H277534   5.219   6.338   1.978 -0.4414  0.1860 -0.4406
18707TIP3   OH277535   5.386   3.034  14.455 -0.4656 -0.3358  0.4347
18707TIP3    H177536   5.364   2.945  14.481  0.7754 -1.2651 -1.4166
18707TIP3    H277537   5.303   3.071  14.423 -0.9944 -0.8076  1.2458
18708TIP3   OH277538   4.143   3.377   0.556  0.6112 -0.2355 -0.3093
18708TIP3    H177539   4.077   3.436   0.592  0.0018 -0.2002 -1.4517
18708TIP3    H277540   4.100   3.292   0.551  0.5454 -0.1498 -1.3304
18709TIP3   OH277541   1.833   5.466  16.584  0.4861  1.0459 -0.8417
18709TIP3    H177542   1.787   5.550  16.579 -0.0036  0.7410 -1.6166
18709TIP3    H277543   1.888   5.474  16.662 -0.5886  1.5730 -0.0949
18710TIP3   OH277544   3.673   1.346  13.883 -0.1247  0.0444 -0.5308
18710TIP3    H177545   3.586   1.336  13.846 -0.1606  0.3683 -0.5335
18710TIP3    H277546   3.663   1.409  13.954  0.1125  0.1058 -0.5489
18711TIP3   OH277547   3.395   3.079  17.395  0.2368  0.1925 -0.2423
18711TIP3    H177548   3.471   3.079  17.338 -0.6963 -0.0241 -1.5303
18711TIP3    H277549   3.384   3.170  17.421  0.8680  0.2359 -0.0967
18712TIP3   OH277550   0.047   5.702  12.634  0.9942 -0.0089 -0.0469
18712TIP3    H177551   0.119   5.641  12.616  1.4774  0.3213  0.7090
18712TIP3    H277552   0.084   5.789  12.617  1.0752  0.2265  1.2172
18713TIP3   OH277553   0.588   2.719  16.176 -0.3087 -0.0144  0.0252
18713TIP3    H177554   0.521   2.775  16.138 -1.0382 -1.2178 -0.5112
18713TIP3    H277555   0.652   2.780  16.213 -1.4603  1.1549  0.1504
18714TIP3   OH277556   0.013   3.703   2.229  0.2586 -0.4956 -0.0271
18714TIP3    H177557  -0.065   3.658   2.199 -0.9352  2.1319 -1.1904
18714TIP3    H277558  -0.018   3.764   2.296  1.1605  1.0362 -0.9516
18715TIP3   OH277559   6.305   1.326   3.503  0.0495 -0.0425 -0.2644
18715TIP3    H177560   6.250   1.274   3.562 -1.0345 -0.0167 -1.2221
18715TIP3    H277561   6.243   1.374   3.448  0.8941 -1.9996 -3.1951
18716TIP3   OH277562   4.831   5.906   2.684  0.1209 -0.2491 -0.2552
18716TIP3    H177563   4.790   5.900   2.598 -1.3904  0.5158  0.3677
18716TIP3    H277564   4.757   5.908   2.745  1.1383 -0.0615  1.0102
18717TIP3   OH277565   6.356   2.666  17.541 -0.6412  0.3388 -0.0302
18717TIP3    H177566   6.404   2.584  17.552 -0.1565  0.2542 -2.2879
18717TIP3    H277567   6.283   2.660  17.602  0.2570 -1.0749  0.9556
18718TIP3   OH277568   1.776   4.760   1.800  0.5003  0.2386  0.2530
18718TIP3    H177569   1.697   4.711   1.775 -0.0654  1.4216 -0.3331
18718TIP3    H277570   1.845   4.723   1.745 -0.1465  0.8091 -0.9891
18719TIP3   OH277571   3.777   4.952   1.201 -0.4215 -0.1619  0.7397
18719TIP3    H177572   3.842   5.022   1.190 -0.8938  0.6971  2.8448
18719TIP3    H277573   3.819   4.889   1.260 -1.1319 -0.0430  1.3969
18720TIP3   OH277574   4.689   3.221  11.632 -0.1798  0.2112  0.4915
18720TIP3    H177575   4.668   3.148  11.573  0.5064 -0.0679  0.5891
18720TIP3    H277576   4.764   3.191  11.682 -0.7715  0.4340  1.5470
18721TIP3   OH277577   3.865   5.010   3.160  0.5346  0.1476 -0.1435
18721TIP3    H177578   3.833   5.100   3.167 -0.4053 -0.1595 -0.3127
18721TIP3    H277579   3.833   4.967   3.239  0.2622 -0.2517 -0.4707
18722TIP3   OH277580   0.231   6.365   0.063 -0.9935 -0.1560 -0.3986
18722TIP3    H177581   0.292   6.292   0.068  1.1181  1.6161  1.6308
18722TIP3    H277582   0.156   6.338   0.116 -0.5681 -1.1158 -0.2692
18723TIP3   OH277583   1.773   1.682  16.355 -0.3308 -0.0674  0.2696
18723TIP3    H177584   1.775   1.737  16.434  0.1583  0.1849  0.0876
18723TIP3    H277585   1.865   1.659  16.340 -0.3474  0.3329 -0.5303
18724TIP3   OH277586   0.547   4.486  10.839  0.1965 -0.0141 -0.1513
18724TIP3    H177587   0.626   4.507  10.789 -0.1456 -0.1842 -0.7753
18724TIP3    H277588   0.543   4.391  10.839 -0.8170  0.0033 -1.4410
18725TIP3   OH277589   0.342   5.630  12.668  0.0185 -0.5693  0.0524
18725TIP3    H177590   0.361   5.568  12.738 -1.8997 -0.5890  0.6353
18725TIP3    H277591   0.416   5.690  12.668  0.6644 -1.3243  1.2507
18726TIP3   OH277592   3.584   1.706   1.776  0.3735 -0.0130 -0.0916
18726TIP3    H177593   3.507   1.724   1.831  0.9935 -0.6929  1.0190
18726TIP3    H277594   3.547   1.686   1.690 -0.7328 -0.8397  0.5519
18727TIP3   OH277595   1.854   5.834  14.377 -0.2819  1.0573 -0.4801
18727TIP3    H177596   1.940   5.799  14.400  0.1202  0.8487 -2.1654
18727TIP3    H277597   1.864   5.929  14.385 -0.0475  1.0127 -0.1978
18728TIP3   OH277598   4.251   3.423  15.050 -0.3407  0.1425  0.2843
18728TIP3    H177599   4.237   3.329  15.043  1.0974 -0.0641 -0.2828
18728TIP3    H277600   4.344   3.435  15.031 -0.2829  1.5887  1.2493
18729TIP3   OH277601   2.904   4.038   3.258  0.6271  0.1696  0.0375
18729TIP3    H177602   2.871   4.019   3.170 -0.1484  0.5905  0.2197
18729TIP3    H277603   2.827   4.073   3.305  0.6075 -1.4906  1.3489
18730TIP3   OH277604   1.921   3.212  13.954  0.3253 -0.1370 -0.0005
18730TIP3    H177605   1.901   3.223  14.047  0.5382  2.3670 -0.1918
18730TIP3    H277606   1.949   3.299  13.925  2.4094 -1.3504 -1.9190
18731TIP3   OH277607   4.675   0.520   2.560 -0.1133 -0.0351  0.2027
18731TIP3    H177608   4.764   0.493   2.535  0.2927  1.7914 -0.4549
18731TIP3    H277609   4.619   0.451   2.525  1.0341 -1.4275  0.9574
18732TIP3   OH277610   0.015   6.632   0.378 -0.0669  0.7078 -0.3037
18732TIP3    H177611   0.077   6.566   0.410  0.1299  0.8110 -0.4686
18732TIP3    H277612   0.019   6.702   0.443  0.3011  0.8991 -0.5284
18733TIP3   OH277613   3.499   5.661   0.861  0.0602  0.6442  0.2899
18733TIP3    H177614   3.479   5.568   0.861  1.4827  0.2572  2.6258
18733TIP3    H277615   3.593   5.666   0.849 -0.2535  2.0022 -2.5315
18734TIP3   OH277616   4.780   3.099   6.203 -0.3451 -0.6059 -0.1603
18734TIP3    H177617   4.751   3.034   6.267  1.6404 -2.0586 -0.6370
18734TIP3    H277618   4.866   3.068   6.175 -0.4537  0.8660 -2.3370
18735TIP3   OH277619   1.924   2.847   5.418  0.0760  0.4299  0.4404
18735TIP3    H177620   1.920   2.942   5.424 -0.4582  0.3965  0.7214
18735TIP3    H277621   1.849   2.823   5.364 -1.4050  0.0150  2.5567
18736TIP3   OH277622   2.713   6.358   0.371  0.4859 -0.5395 -0.5015
18736TIP3    H177623   2.655   6.417   0.323 -0.2690 -1.0557 -0.2447
18736TIP3    H277624   2.797   6.364   0.324 -0.4458 -1.6889 -2.4599
18737TIP3   OH277625   3.434   4.805  12.641 -0.3918  0.1768 -0.5039
18737TIP3    H177626   3.391   4.883  12.675 -0.7744 -0.3133  0.1738
18737TIP3    H277627   3.528   4.822  12.652 -0.4977  0.1725  0.4958
18738TIP3   OH277628   3.917   1.254  13.946  0.2485 -0.0649  0.3553
18738TIP3    H177629   3.880   1.205  14.020 -1.1538 -1.0313 -0.9260
18738TIP3    H277630   3.842   1.286  13.898  1.0697 -0.9302 -1.6000
18739TIP3   OH277631   6.581   1.449   5.605  0.6992  0.1615 -0.0623
18739TIP3    H177632   6.542   1.469   5.520  0.1919  0.5465  0.2588
18739TIP3    H277633   6.514   1.472   5.669  1.0494 -0.1990  0.4415
18740TIP3   OH277634   3.583   2.570   2.561  0.4925 -0.7059  0.4702
18740TIP3    H177635   3.665   2.531   2.531  0.0402 -0.6839 -0.8210
18740TIP3    H277636   3.520   2.551   2.493 -0.7740 -1.3059  1.7664
18741TIP3   OH277637   2.719   6.029  14.280 -0.1445  0.5554  0.6049
18741TIP3    H177638   2.639   5.977  14.281 -0.0352  0.3408 -0.6596
18741TIP3    H277639   2.703   6.098  14.216  1.5767 -1.0603 -1.7784
18742TIP3   OH277640   6.340   2.884   4.884  0.2791  0.2659 -0.3913
18742TIP3    H177641   6.316   2.945   4.814 -0.8221  0.7063  0.3357
18742TIP3    H277642   6.403   2.933   4.938  0.8916  0.0388 -0.8959
18743TIP3   OH277643   1.047   2.596   2.155 -0.0770  0.4560 -0.3892
18743TIP3    H177644   0.979   2.536   2.124  0.2810 -0.4440  0.5180
18743TIP3    H277645   1.073   2.561   2.240  3.0152 -0.4805 -1.5929
18744TIP3   OH277646   1.091   3.179   2.496 -0.0985  0.2696  0.1048
18744TIP3    H177647   1.049   3.166   2.411 -0.4588  1.7059  0.0486
18744TIP3    H277648   1.118   3.270   2.497  1.4126 -0.1465  0.8841
18745TIP3   OH277649   4.293   3.956  16.554  0.0967  0.3084  0.2941
18745TIP3    H177650   4.297   3.948  16.458 -0.0362 -0.2869  0.3307
18745TIP3    H277651   4.277   4.049  16.570 -2.1165  0.0807 -0.3264
18746TIP3   OH277652   3.365   5.420   1.167  0.2127 -0.8542 -0.3969
18746TIP3    H177653   3.393   5.384   1.082 -1.7799 -1.0746 -1.0281
18746TIP3    H277654   3.270   5.408   1.167  0.0242  0.3256  1.3440
18747TIP3   OH277655   3.650   3.862   5.170  0.3067  0.2487  0.1571
18747TIP3    H177656   3.575   3.921   5.160 -0.4898 -1.0040 -1.9427
18747TIP3    H277657   3.612   3.780   5.202  0.9748 -0.0013  0.3221
18748TIP3   OH277658   5.221   1.311  11.300 -0.5127 -0.0911 -0.0932
18748TIP3    H177659   5.226   1.367  11.223 -0.8319  0.3206  0.1801
18748TIP3    H277660   5.200   1.370  11.372  2.4553 -0.0243  0.8359
18749TIP3   OH277661   4.594   1.191   1.001 -0.0693  0.6469 -0.5101
18749TIP3    H177662   4.653   1.205   1.075  0.8772  1.0882 -1.3250
18749TIP3    H277663   4.510   1.228   1.029  0.0514  0.0938  0.6243
18750TIP3   OH277664   5.534   5.161   1.414  0.1849 -0.9959  0.4260
18750TIP3    H177665   5.478   5.123   1.346  0.4261 -0.2361 -0.2139
18750TIP3    H277666   5.512   5.254   1.414  1.0068 -0.7920  0.5866
18751TIP3   OH277667   0.974   1.801   5.772  0.3808 -0.3588  0.5781
18751TIP3    H177668   0.984   1.843   5.857 -1.8860 -0.5594  1.0052
18751TIP3    H277669   0.929   1.719   5.791  1.2038 -1.1244 -0.6670
18752TIP3   OH277670   0.744   3.504  15.239 -0.5609  0.0788  0.2496
18752TIP3    H177671   0.680   3.534  15.303 -1.7613  0.4947 -1.0992
18752TIP3    H277672   0.736   3.409  15.240  1.3796 -0.1897  2.6111
18753TIP3   OH277673   0.326   3.061   5.862 -0.0190  0.0328  0.4198
18753TIP3    H177674   0.419   3.077   5.880  0.4287 -1.9018  0.1592
18753TIP3    H277675   0.323   3.038   5.769 -0.5063 -1.2912  0.7322
18754TIP3   OH277676   2.952   2.604   1.427  0.1737  0.4586 -0.3171
18754TIP3    H177677   2.883   2.539   1.414  1.0046 -0.2895 -1.1157
18754TIP3    H277678   2.990   2.581   1.512  0.3668 -0.0077 -0.5275
18755TIP3   OH277679   5.903   5.660  12.185 -0.4314 -0.2293 -0.6577
18755TIP3    H177680   5.904   5.641  12.279  0.4414 -1.5875 -0.9015
18755TIP3    H277681   5.936   5.579  12.145 -0.0346  0.6136 -2.0805
18756TIP3   OH277682   3.223   0.997   5.609  0.0394  0.3685 -0.0430
18756TIP3    H177683   3.260   1.083   5.629 -0.8724  1.1110 -1.4365
18756TIP3    H277684   3.131   1.013   5.589 -0.0122 -0.8240 -0.9344
18757TIP3   OH277685   4.563   4.017   6.061 -0.2301  0.5447 -0.0758
18757TIP3    H177686   4.564   3.969   6.144 -0.2327  0.5453 -0.0754
18757TIP3    H277687   4.625   4.089   6.075 -0.8556  1.0323  0.2112
18758TIP3   OH277688   2.877   4.259   3.903 -0.1729 -0.6297  0.3995
18758TIP3    H177689   2.847   4.283   3.991 -1.1169 -2.4697  0.6137
18758TIP3    H277690   2.913   4.341   3.867 -0.3648  0.3067  2.2360
18759TIP3   OH277691   1.758   4.222   5.744  0.6374 -0.0781 -0.2976
18759TIP3    H177692   1.844   4.189   5.717  1.4689  1.5336  0.2412
18759TIP3    H277693   1.743   4.183   5.830  1.4745  0.6532  0.2025
18760TIP3   OH277694   4.083   2.997  16.434  0.2806 -0.1230  0.3121
18760TIP3    H177695   4.132   2.935  16.380  1.0941  1.0656 -0.3587
18760TIP3    H277696   3.991   2.977  16.418  0.5233 -0.4224 -0.7720
18761TIP3   OH277697   6.435   1.756  13.345  0.5094 -0.4609  0.6807
18761TIP3    H177698   6.493   1.831  13.336  0.6295 -0.6497 -0.2285
18761TIP3    H277699   6.412   1.754  13.438  3.0740 -1.2013  1.3765
18762TIP3   OH277700   5.824   6.488   1.563  0.5487  0.3430 -0.2534
18762TIP3    H177701   5.905   6.504   1.514  1.7344 -0.5556  1.3176
18762TIP3    H277702   5.829   6.396   1.587 -1.0876  0.2142 -0.3416
18763TIP3   OH277703   6.577   0.795  17.564 -0.4495 -0.2134  1.1472
18763TIP3    H177704   6.604   0.704  17.581  1.8851  0.1051 -0.5036
18763TIP3    H277705   6.531   0.821  17.644 -0.7128 -2.6535  1.8746
18764TIP3   OH277706   4.657   5.653   1.477 -0.0085  0.0899  0.1267
18764TIP3    H177707   4.611   5.635   1.559 -0.0143 -0.7279 -0.0503
18764TIP3    H277708   4.672   5.747   1.479  0.6427 -0.0087  1.4257
18765TIP3   OH277709   3.915   5.724  15.941 -0.2418 -0.4321  0.0578
18765TIP3    H177710   3.931   5.637  15.903 -0.8852  0.1551 -1.6361
18765TIP3    H277711   3.991   5.740  15.996  0.0846 -1.8958  0.0778
18766TIP3   OH277712   2.766   3.642   6.197 -0.2972  0.2063 -0.5583
18766TIP3    H177713   2.765   3.711   6.264 -2.1827 -0.5904  0.3171
18766TIP3    H277714   2.776   3.561   6.247  3.3759 -0.1861 -1.6593
18767TIP3   OH277715   0.451   1.792   4.192  0.2054 -0.4940 -0.6623
18767TIP3    H177716   0.541   1.759   4.196  0.1969 -0.4988 -0.5114
18767TIP3    H277717   0.402   1.721   4.150  0.0021 -1.0830  0.5337
18768TIP3   OH277718   5.120   3.393   6.096 -0.0917  0.1069 -0.1983
18768TIP3    H177719   5.114   3.337   6.173  0.2747 -2.2397 -1.8003
18768TIP3    H277720   5.100   3.481   6.129 -0.5630 -0.9075  2.4282
18769TIP3   OH277721   4.595   0.771   1.703 -0.1681 -0.5860 -0.0941
18769TIP3    H177722   4.588   0.739   1.613 -1.6863 -0.2588 -0.1304
18769TIP3    H277723   4.571   0.696   1.758 -0.7569 -0.3690 -0.0449
18770TIP3   OH277724   5.295   5.436  11.627 -0.0946  0.6746 -0.0982
18770TIP3    H177725   5.381   5.395  11.641  0.0699  0.3246 -1.8799
18770TIP3    H277726   5.315   5.515  11.577 -0.8212  0.5033 -0.6628
18771TIP3   OH277727   5.514   6.512  15.411 -0.0963  0.5214 -0.0083
18771TIP3    H177728   5.490   6.440  15.469  2.9313  1.0685  2.1923
18771TIP3    H277729   5.577   6.474  15.350  1.0500  1.1225  0.7730
18772TIP3   OH277730   5.235   3.268   1.161  0.0787  0.3223 -0.0324
18772TIP3    H177731   5.283   3.191   1.190  0.0842  0.0237 -0.7975
18772TIP3    H277732   5.185   3.238   1.085 -0.5220  0.8805  0.1363
18773TIP3   OH277733   3.901   5.459   3.428 -0.1409 -0.4393 -0.7347
18773TIP3    H177734   3.957   5.490   3.357  0.0564  2.1871  0.4711
18773TIP3    H277735   3.834   5.526   3.438  0.9062  0.2997  2.7086
18774TIP3   OH277736   3.159   4.755   3.649 -0.2141 -0.1133  0.5847
18774TIP3    H177737   3.082   4.715   3.690 -0.4739 -0.3425 -0.0990
18774TIP3    H277738   3.139   4.754   3.555  0.3527  0.4119  0.4496
18775TIP3   OH277739   5.438   0.800   5.618  0.6321 -0.1080 -0.0970
18775TIP3    H177740   5.393   0.865   5.564 -1.7016  0.1003  1.9082
18775TIP3    H277741   5.501   0.851   5.669 -1.2642  0.7468  1.5503
18776TIP3   OH277742   3.234   6.193   4.185  0.1083 -0.5019  0.0291
18776TIP3    H177743   3.219   6.221   4.094 -3.0761  2.3944  1.2565
18776TIP3    H277744   3.266   6.271   4.229 -1.7974 -0.8122  2.0923
18777TIP3   OH277745   2.847   6.173  13.966 -0.4546 -0.1090  0.2079
18777TIP3    H177746   2.845   6.159  13.871  0.6542 -0.3344  0.1934
18777TIP3    H277747   2.776   6.234  13.983 -0.6120  0.0080 -0.7920
18778TIP3   OH277748   2.216   4.767   0.581 -0.5247 -0.4026 -0.0945
18778TIP3    H177749   2.136   4.745   0.534  0.1425  0.9115 -1.9829
18778TIP3    H277750   2.264   4.685   0.587 -0.9547 -0.7512 -1.1471
18779TIP3   OH277751   2.388   1.873  13.967 -0.1101  0.2882  0.4046
18779TIP3    H177752   2.373   1.844  13.877  2.4024 -0.1972  0.0693
18779TIP3    H277753   2.397   1.968  13.961  1.5915  0.1277 -0.1747
18780TIP3   OH277754   5.969   5.533   5.761  0.1219 -0.1613  1.2490
18780TIP3    H177755   6.031   5.539   5.833  0.5800  0.9318  0.7823
18780TIP3    H277756   5.973   5.441   5.734  1.0906 -0.2412  1.6119
18781TIP3   OH277757   2.297   0.917   3.930  0.5062  0.0193  0.3022
18781TIP3    H177758   2.304   1.003   3.972  0.3323 -0.1921  0.7665
18781TIP3    H277759   2.382   0.904   3.889  0.9978 -0.1560  1.3422
18782TIP3   OH277760   5.596   0.337  15.974  0.5760 -0.2406  0.2514
18782TIP3    H177761   5.616   0.370  16.061  0.5352 -0.7046  0.4365
18782TIP3    H277762   5.503   0.316  15.977  1.1932 -3.2668  1.1076
18783TIP3   OH277763   2.727   0.895  16.806  0.0484  0.0766 -0.0201
18783TIP3    H177764   2.675   0.935  16.736 -0.9267 -1.7316 -0.3870
18783TIP3    H277765   2.787   0.965  16.834 -0.4299  1.2457 -1.7454
18784TIP3   OH277766   3.258   5.537   3.263 -0.1513  0.0334  0.0614
18784TIP3    H177767   3.216   5.467   3.315  1.9271 -0.6035  0.9859
18784TIP3    H277768   3.304   5.490   3.194  3.5359  0.0594  2.2407
18785TIP3   OH277769   5.807   3.515   1.253  0.6544 -0.5068  0.1820
18785TIP3    H177770   5.785   3.458   1.327 -0.2492  1.1301  1.2488
18785TIP3    H277771   5.878   3.470   1.208 -0.8967 -3.1298  0.1279
18786TIP3   OH277772   0.506   5.761   1.912 -0.0618  0.4988 -0.7510
18786TIP3    H177773   0.535   5.769   2.003 -0.5215 -1.1586 -0.4248
18786TIP3    H277774   0.429   5.818   1.906 -1.0173 -0.5981  0.3980
18787TIP3   OH277775   1.743   1.122   2.150  1.0340 -0.1737  0.1598
18787TIP3    H177776   1.655   1.117   2.186  0.7286 -0.4136 -0.5998
18787TIP3    H277777   1.753   1.042   2.099  0.8655  0.8421 -1.5579
18788TIP3   OH277778   1.488   3.750   5.123  0.0863 -0.4735  0.0281
18788TIP3    H177779   1.508   3.829   5.073  0.0424  0.0741  0.8507
18788TIP3    H277780   1.400   3.765   5.158  1.0682  0.3376  2.4106
18789TIP3   OH277781   3.525   5.853  14.200 -0.3929 -0.1178  0.1837
18789TIP3    H177782   3.586   5.823  14.268  0.2793  0.6936 -0.0409
18789TIP3    H277783   3.541   5.947  14.194 -0.0474 -0.2607 -1.4814
18790TIP3   OH277784   5.504   2.540  13.615 -0.3613 -0.1482 -0.3570
18790TIP3    H177785   5.574   2.517  13.553  0.6935  0.0364  0.7317
18790TIP3    H277786   5.426   2.497  13.580 -0.4477  2.0079 -3.2746
18791TIP3   OH277787   3.181   0.410   4.898 -0.2891  0.4336  0.1798
18791TIP3    H177788   3.158   0.486   4.951 -2.8092 -0.6449  0.8158
18791TIP3    H277789   3.108   0.400   4.838 -0.8534 -2.3143  1.1506
18792TIP3   OH277790   4.551   4.039  11.649  1.0284  0.3327 -0.3102
18792TIP3    H177791   4.470   3.996  11.679 -0.8216  2.6468 -1.6483
18792TIP3    H277792   4.544   4.040  11.554  3.2924 -0.4620 -0.5466
18793TIP3   OH277793   3.934   3.751  13.543  0.2160  0.4694  0.0373
18793TIP3    H177794   4.008   3.789  13.591 -0.6726  0.4991  1.4566
18793TIP3    H277795   3.955   3.658  13.535 -0.3383  0.1093  2.0339
18794TIP3   OH277796   2.069   5.270   3.702  0.2498 -0.2662  0.5657
18794TIP3    H177797   2.096   5.179   3.712  0.7560 -0.3264 -1.1235
18794TIP3    H277798   2.147   5.321   3.724  0.2222 -0.2644  0.6605
18795TIP3   OH277799   6.300   2.193  13.942  0.7735 -0.0647  0.7690
18795TIP3    H177800   6.318   2.119  13.884  0.6887 -0.2054  0.9236
18795TIP3    H277801   6.372   2.254  13.925  0.3786  0.2073 -0.0093
18796TIP3   OH277802   0.863   1.780  13.336  0.6166 -0.9752 -0.1361
18796TIP3    H177803   0.778   1.740  13.322 -0.5848  1.6372 -0.9737
18796TIP3    H277804   0.919   1.744  13.267 -0.1834 -1.7419 -0.3947
18797TIP3   OH277805   4.607   1.502   0.051 -0.2275  0.0096 -0.1452
18797TIP3    H177806   4.513   1.515   0.063 -0.1148  2.2690 -1.1753
18797TIP3    H277807   4.616   1.479  -0.042  0.3331  1.4798 -0.4790
18798TIP3   OH277808   2.710   1.217  16.856  0.6850 -0.4712  0.8147
18798TIP3    H177809   2.634   1.255  16.900  0.7360 -0.7465  1.1426
18798TIP3    H277810   2.737   1.284  16.794  0.8597  0.1002  1.4900
18799TIP3   OH277811   0.713   2.462  11.545 -0.2303  0.3234  0.3867
18799TIP3    H177812   0.751   2.405  11.611 -1.2041 -0.4214  0.3302
18799TIP3    H277813   0.750   2.432  11.462 -0.6390 -0.1437  0.3722
18800TIP3   OH277814   0.799   1.028  15.793 -0.4790  0.0540 -0.1886
18800TIP3    H177815   0.795   0.983  15.877 -2.7557  1.0150  0.2836
18800TIP3    H277816   0.802   0.958  15.727 -0.3639 -0.7230  0.6335
18801TIP3   OH277817   1.297   1.900  11.671  0.2573  0.2382  0.1460
18801TIP3    H177818   1.330   1.852  11.596  2.1629 -0.3865  1.3158
18801TIP3    H277819   1.208   1.866  11.685 -0.0473  0.2278 -1.6508
18802TIP3   OH277820   1.812   3.596  15.863  0.3086 -0.1743 -0.1916
18802TIP3    H177821   1.887   3.613  15.920  0.6350 -2.0429 -0.0019
18802TIP3    H277822   1.761   3.678  15.865  1.6784  0.6945  0.6600
18803TIP3   OH277823   6.164   6.283  15.802  0.2244 -0.2768 -0.4301
18803TIP3    H177824   6.152   6.349  15.734  1.2707  0.7956  0.3616
18803TIP3    H277825   6.076   6.255  15.825 -0.2737  1.1020 -0.5718
18804TIP3   OH277826   4.572   5.911   2.752 -0.0292  0.2790  0.1971
18804TIP3    H177827   4.506   5.859   2.798 -0.2238 -0.6523 -1.1139
18804TIP3    H277828   4.555   6.001   2.782 -1.8002  0.0458  0.0145
18805TIP3   OH277829   4.938   1.892  14.200 -0.0109 -0.4630  0.2499
18805TIP3    H177830   4.856   1.856  14.234 -0.3747 -0.4284 -0.5650
18805TIP3    H277831   4.924   1.898  14.105  0.6882  0.1735  0.1791
18806TIP3   OH277832   1.489   3.014   4.460 -0.1047 -0.2794 -0.0760
18806TIP3    H177833   1.515   3.106   4.462  0.1959 -0.3671  0.2534
18806TIP3    H277834   1.418   3.007   4.525  0.7842 -0.5371  0.9076
18807TIP3   OH277835   5.632   2.508   0.002 -0.0072  0.8027 -0.2008
18807TIP3    H177836   5.697   2.480  -0.063  1.4154  1.4679  0.8798
18807TIP3    H277837   5.658   2.464   0.083 -2.6341 -1.1973 -0.3406
18808TIP3   OH277838   0.156   2.738   2.307  0.3184 -0.1595 -0.4361
18808TIP3    H177839   0.231   2.762   2.253  1.0034 -0.9074  0.1629
18808TIP3    H277840   0.165   2.793   2.385  0.2803 -0.2923 -0.3381
18809TIP3   OH277841   2.557   6.108   0.323  0.2993 -0.4271  0.4833
18809TIP3    H177842   2.486   6.116   0.259  0.1571  1.1028  0.7926
18809TIP3    H277843   2.604   6.191   0.316 -0.5485  0.3894  3.3177
18810TIP3   OH277844   3.400   3.150  14.605 -0.1194  0.3082  0.4254
18810TIP3    H177845   3.389   3.118  14.515  1.9412  0.0182  0.2188
18810TIP3    H277846   3.312   3.173  14.633 -0.7642  0.9971 -1.8961
18811TIP3   OH277847   5.076   4.047   5.129  0.2568 -0.3058 -0.0015
18811TIP3    H177848   5.076   4.110   5.201  2.1454 -1.2425  0.8705
18811TIP3    H277849   5.151   4.071   5.075  0.8791 -1.6434  0.2269
18812TIP3   OH277850   4.782   3.445  12.825 -0.3746  0.6848  0.3119
18812TIP3    H177851   4.757   3.535  12.808  1.5862  1.3292  0.5287
18812TIP3    H277852   4.875   3.442  12.803 -0.1954 -1.0638  1.1485
18813TIP3   OH277853   3.597   5.953   4.607 -0.2893 -0.1940  0.0166
18813TIP3    H177854   3.542   6.024   4.576 -1.0233  0.2335  2.1000
18813TIP3    H277855   3.685   5.989   4.607 -0.4853  0.2937 -0.1599
18814TIP3   OH277856   6.210   6.473  15.204  0.3681 -0.0252  0.7632
18814TIP3    H177857   6.128   6.485  15.251 -0.0125 -2.5772  0.9234
18814TIP3    H277858   6.258   6.554  15.217 -2.5133  1.9964 -0.2366
18815TIP3   OH277859   3.847   1.699  13.667 -0.0538  0.5020  0.8008
18815TIP3    H177860   3.891   1.674  13.586  0.2822 -0.0304  1.1410
18815TIP3    H277861   3.779   1.760  13.639 -1.1609 -1.0714 -0.1308
18816TIP3   OH277862   3.980   3.414   1.648  0.0603  0.0813 -0.1720
18816TIP3    H177863   4.043   3.484   1.662  0.3224 -0.1821 -0.0195
18816TIP3    H277864   3.973   3.371   1.734  1.0922 -1.0690 -0.6354
18817TIP3   OH277865   3.373   0.012   6.430 -0.2900  0.0219 -0.5366
18817TIP3    H177866   3.396   0.104   6.448  1.5025 -0.2927 -0.9954
18817TIP3    H277867   3.365   0.007   6.335 -0.7295 -0.2382 -0.4902
18818TIP3   OH277868   3.614   1.746  16.403 -0.6821 -0.2903 -0.3502
18818TIP3    H177869   3.666   1.722  16.326 -1.5761  1.9465 -1.7798
18818TIP3    H277870   3.677   1.753  16.474  0.1931 -2.2885 -0.8534
18819TIP3   OH277871   1.229   6.430  13.935  0.4458 -0.7350 -0.3976
18819TIP3    H177872   1.246   6.420  14.029  0.4740 -0.1870 -0.3439
18819TIP3    H277873   1.315   6.426  13.894  0.5168 -0.0701 -0.3174
18820TIP3   OH277874   1.748   6.552   3.514  0.1326 -0.8517  0.4276
18820TIP3    H177875   1.831   6.515   3.544  0.2610 -1.2598 -0.4001
18820TIP3    H277876   1.683   6.517   3.574  0.2862 -2.2163 -0.1729
18821TIP3   OH277877   3.560   6.671   1.685 -0.3598 -0.1829  0.4337
18821TIP3    H177878   3.484   6.681   1.627 -1.1332 -1.0568  1.2382
18821TIP3    H277879   3.540   6.728   1.760  1.2971  2.0526 -0.7317
18822TIP3   OH277880   1.880   5.700  16.749 -0.4675  0.1141  0.5058
18822TIP3    H177881   1.931   5.774  16.780  2.0797  0.3955 -3.5940
18822TIP3    H277882   1.921   5.623  16.789 -0.1133  0.6368  1.1597
18823TIP3   OH277883   4.082   3.744   3.827 -0.1913  0.6606  0.5210
18823TIP3    H177884   4.156   3.781   3.779 -0.7087  1.6320  0.4248
18823TIP3    H277885   4.006   3.763   3.772 -0.4804 -0.6787  0.4271
18824TIP3   OH277886   6.073   3.455   0.717 -0.0979  0.1038 -0.5486
18824TIP3    H177887   6.017   3.377   0.718 -0.6049  0.4502 -1.2477
18824TIP3    H277888   6.101   3.465   0.808  2.1329 -2.4109 -0.8252
18825TIP3   OH277889   2.058   3.044   1.910  0.1699  0.3169 -0.0809
18825TIP3    H177890   2.115   3.011   1.979  2.5441 -0.1211 -2.1071
18825TIP3    H277891   1.982   2.985   1.911  0.0122  0.4875  2.2345
18826TIP3   OH277892   3.577   2.892  12.989 -0.2113  0.0800  0.6527
18826TIP3    H177893   3.634   2.826  12.949 -0.4391  0.0305  0.4099
18826TIP3    H277894   3.498   2.893  12.934  0.5765  1.9871 -0.5326
18827TIP3   OH277895   6.655   4.250  12.037  0.4697  0.3876  0.4685
18827TIP3    H177896   6.699   4.230  12.119  1.2275 -1.2077 -0.2693
18827TIP3    H277897   6.716   4.221  11.969 -1.0294 -0.4229 -0.6125
18828TIP3   OH277898   5.291   4.013   2.180 -0.3056 -0.4340 -0.6393
18828TIP3    H177899   5.202   3.990   2.205 -0.1317  0.1445  0.6389
18828TIP3    H277900   5.332   4.043   2.262  1.2681 -1.3356 -1.0446
18829TIP3   OH277901   5.501   1.687   5.689 -0.5423 -0.3469  0.2393
18829TIP3    H177902   5.446   1.666   5.613  2.9368 -1.4028 -2.2702
18829TIP3    H277903   5.540   1.772   5.668  2.6169 -1.8820 -0.7622
18830TIP3   OH277904   1.688   2.241  16.797  0.4667  0.8708 -0.0030
18830TIP3    H177905   1.729   2.248  16.710 -2.1257 -1.1384 -1.5294
18830TIP3    H277906   1.659   2.330  16.816  1.2638  1.3900 -1.0722
18831TIP3   OH277907   2.330   3.122  14.515  0.6496 -0.1282  0.0433
18831TIP3    H177908   2.291   3.036  14.533  1.3448 -0.3769  0.4190
18831TIP3    H277909   2.417   3.117  14.555  0.7486  0.7070 -0.0548
18832TIP3   OH277910   4.419   5.146   2.285 -0.6417  0.0056 -0.1904
18832TIP3    H177911   4.493   5.088   2.297 -1.5026 -0.7935  1.7137
18832TIP3    H277912   4.408   5.153   2.190 -0.7144 -3.2589 -0.5267
18833TIP3   OH277913   0.448   2.280  12.766 -0.0626 -0.1886  0.0037
18833TIP3    H177914   0.502   2.271  12.688 -0.5303 -0.2165 -0.3245
18833TIP3    H277915   0.503   2.326  12.829  0.9683 -1.7749  0.3066
18834TIP3   OH277916   0.149   4.877  13.490  0.2321  0.0139 -0.3919
18834TIP3    H177917   0.096   4.808  13.450 -2.8531  1.3951  0.9098
18834TIP3    H277918   0.150   4.856  13.583 -0.3739  1.3787 -0.0375
18835TIP3   OH277919   1.275   6.388  12.932  0.0691  0.5149  0.3664
18835TIP3    H177920   1.313   6.472  12.906  0.2164 -0.3888 -2.7337
18835TIP3    H277921   1.345   6.345  12.982  0.4039  1.7701  1.0083
18836TIP3   OH277922   0.528   6.625  15.808 -0.2852  0.1825  0.3220
18836TIP3    H177923   0.545   6.589  15.895  1.9503  0.4644  0.0739
18836TIP3    H277924   0.570   6.563  15.748 -1.7105  0.0431 -0.5847
18837TIP3   OH277925   4.143   5.320   3.295 -0.0498  0.3362 -0.3671
18837TIP3    H177926   4.157   5.407   3.331  0.3609 -0.0331  0.3975
18837TIP3    H277927   4.231   5.284   3.284 -0.1929  0.2221 -1.2072
18838TIP3   OH277928   4.938   5.383  16.861 -0.0178  0.5355  0.5556
18838TIP3    H177929   5.027   5.380  16.827 -0.3350 -2.7492 -0.2445
18838TIP3    H277930   4.948   5.378  16.956  0.6443 -1.0077  0.4175
18839TIP3   OH277931   4.940   1.919   3.740 -0.5099 -0.4113 -0.1309
18839TIP3    H177932   4.987   1.896   3.820 -1.5974 -0.1693  0.5998
18839TIP3    H277933   4.851   1.888   3.755 -1.5175  2.3109  0.0523
18840TIP3   OH277934   1.976   2.048   4.684 -0.4651  0.2887 -0.7817
18840TIP3    H177935   1.929   1.988   4.627  0.1581  0.6587 -1.7116
18840TIP3    H277936   1.976   2.131   4.637 -0.2407  0.6969 -0.0799
18841TIP3   OH277937   2.495   1.806  14.611 -0.1624  0.3321 -0.4660
18841TIP3    H177938   2.533   1.751  14.679  0.8722  0.9414 -0.5254
18841TIP3    H277939   2.418   1.758  14.581  0.0138 -0.4778  0.3434
18842TIP3   OH277940   3.408   6.675  14.360  0.1820  0.1983  0.0579
18842TIP3    H177941   3.430   6.658  14.452  1.0430  0.3269 -0.1223
18842TIP3    H277942   3.314   6.655  14.354  0.4538 -1.3611  0.6031
18843TIP3   OH277943   0.602   5.160  13.911  0.5256  0.0462 -1.1647
18843TIP3    H177944   0.598   5.255  13.920 -1.0781  0.1815 -2.6948
18843TIP3    H277945   0.695   5.138  13.914  0.8627  1.1475  3.3527
18844TIP3   OH277946   2.894   6.615  14.417 -0.6336  0.0425  0.3073
18844TIP3    H177947   2.852   6.647  14.498 -5.0211 -3.2466 -0.2984
18844TIP3    H277948   2.875   6.521  14.416 -0.6525 -0.1148 -4.4461
18845TIP3   OH277949   6.051   0.987   2.081  0.0168 -0.1333 -1.0614
18845TIP3    H177950   6.012   1.072   2.104 -1.9734 -1.0438 -0.7786
18845TIP3    H277951   6.059   0.941   2.165 -1.5171 -1.2037 -1.4541
18846TIP3   OH277952   5.847   0.188   2.686  0.3455 -0.1848  0.4524
18846TIP3    H177953   5.829   0.140   2.767 -3.4452 -0.5362 -0.4405
18846TIP3    H277954   5.879   0.122   2.625 -0.8483 -0.7684  0.4467
18847TIP3   OH277955   0.719   4.365  16.289  0.5583  0.3991 -0.1255
18847TIP3    H177956   0.631   4.338  16.314  0.5494  0.5260 -0.0165
18847TIP3    H277957   0.763   4.382  16.372  0.6361  0.4891 -0.1834
18848TIP3   OH277958   0.152   1.183  13.074 -0.0267 -0.3933  0.0902
18848TIP3    H177959   0.169   1.203  12.982  1.1279 -0.5604  0.2533
18848TIP3    H277960   0.078   1.123  13.072  0.7828 -1.3919 -0.8185
18849TIP3   OH277961   1.119   4.290  13.864  0.1314 -0.1389  0.2303
18849TIP3    H177962   1.206   4.248  13.866  1.2265  1.9641 -0.0800
18849TIP3    H277963   1.099   4.297  13.770  1.3177  2.5047  0.0928
18850TIP3   OH277964   5.732   2.614   5.742  0.3015  0.5314 -0.0732
18850TIP3    H177965   5.727   2.637   5.650  0.1190 -0.1910 -0.2528
18850TIP3    H277966   5.660   2.553   5.756  0.7246  0.1227  0.3929
18851TIP3   OH277967   0.128   5.376   3.303 -0.3461 -0.9951 -0.2914
18851TIP3    H177968   0.222   5.375   3.321  0.1588 -1.3534 -2.5860
18851TIP3    H277969   0.112   5.465   3.270 -1.3300 -0.1733  2.1903
18852TIP3   OH277970   4.311   5.562  11.401  0.3682 -0.5361 -0.4263
18852TIP3    H177971   4.309   5.477  11.356 -1.3548 -1.1366  0.6982
18852TIP3    H277972   4.366   5.546  11.478 -2.2335 -1.5276  1.3368
18853TIP3   OH277973   4.665   4.852  13.558  0.0422  0.1412  0.1800
18853TIP3    H177974   4.608   4.879  13.630 -0.4903  0.5046 -0.3659
18853TIP3    H277975   4.750   4.890  13.578 -0.9675  3.4970 -1.2382
18854TIP3   OH277976   2.373   2.535   5.154 -0.3193 -0.0906  0.7491
18854TIP3    H177977   2.415   2.462   5.108  2.4792  1.1305  1.1500
18854TIP3    H277978   2.304   2.493   5.207 -1.0732 -1.9614 -1.5458
18855TIP3   OH277979   0.790   4.873   6.443  0.8599  0.3580  0.0389
18855TIP3    H177980   0.724   4.839   6.383  1.2379  1.7481 -1.2338
18855TIP3    H277981   0.820   4.797   6.492 -1.4140 -0.3604  0.4070
18856TIP3   OH277982   5.524   6.221  11.494 -0.2198  1.3916  0.1828
18856TIP3    H177983   5.554   6.186  11.410  1.0867  2.3052  0.2247
18856TIP3    H277984   5.576   6.175  11.559 -0.7544  1.1583  0.4491
18857TIP3   OH277985   5.291   3.416   2.538  0.5267  0.1372  0.1927
18857TIP3    H177986   5.356   3.482   2.516  0.2475  0.4949  0.4387
18857TIP3    H277987   5.230   3.460   2.596 -0.4176  0.0462 -0.7122
18858TIP3   OH277988   4.908   2.655   1.494  0.4252 -0.2652  0.9903
18858TIP3    H177989   4.986   2.612   1.530  0.3505 -0.1605  1.2758
18858TIP3    H277990   4.934   2.747   1.485 -0.0653  0.0194  2.2551
18859TIP3   OH277991   0.706   5.058  14.189 -0.1797 -0.3967  0.2974
18859TIP3    H177992   0.750   5.001  14.126  0.5773  0.7660 -0.2772
18859TIP3    H277993   0.752   5.142  14.182 -0.2578 -0.1447  2.2165
18860TIP3   OH277994   4.556   5.668   0.066 -0.2208 -0.2935  0.6002
18860TIP3    H177995   4.633   5.616   0.042 -0.2537 -0.7163  1.3614
18860TIP3    H277996   4.518   5.621   0.141 -0.4469  0.6329  1.0846
18861TIP3   OH277997   4.221   6.512   1.888  0.0482  0.2031  0.2256
18861TIP3    H177998   4.286   6.443   1.905 -0.1937  0.2431  1.4175
18861TIP3    H277999   4.144   6.466   1.857  0.1778  0.0208  0.1740
18862TIP3   OH278000   2.990   4.164  16.636  0.0170  0.1056 -0.0240
18862TIP3    H178001   2.991   4.219  16.714  1.8870  2.0864 -1.3031
18862TIP3    H278002   3.026   4.220  16.567 -0.0028 -2.0759 -1.9378
18863TIP3   OH278003   0.384   1.761  17.477  0.2369 -0.0350  0.8880
18863TIP3    H178004   0.319   1.830  17.488  1.6717  1.4345  0.5414
18863TIP3    H278005   0.431   1.759  17.560 -0.5330 -1.4147  1.3081
18864TIP3   OH278006   1.076   0.161   4.257  0.0314  0.2893 -0.0480
18864TIP3    H178007   1.003   0.219   4.278 -1.9802 -1.6702 -1.2275
18864TIP3    H278008   1.077   0.096   4.328 -0.1265 -0.3546 -0.6236
18865TIP3   OH278009   6.082   3.379   2.941  0.1662 -0.3360  0.1468
18865TIP3    H178010   6.119   3.429   3.013  0.6518 -0.0777 -0.2758
18865TIP3    H278011   6.149   3.314   2.920 -0.4494 -1.1566  0.6765
18866TIP3   OH278012   4.850   2.532   1.144 -0.1766  0.1100  0.5496
18866TIP3    H178013   4.913   2.604   1.138 -0.5468  0.3543 -0.7285
18866TIP3    H278014   4.894   2.467   1.199  0.6362  0.8262  0.7818
18867TIP3   OH278015   0.099   1.833  11.245  0.6890 -0.1600  0.0816
18867TIP3    H178016   0.163   1.901  11.264 -0.1107  0.1376  1.8586
18867TIP3    H278017   0.036   1.838  11.316  0.6160 -2.7755  0.2922
18868TIP3   OH278018   2.579   3.734  12.572 -0.2754 -0.5050  0.1983
18868TIP3    H178019   2.503   3.781  12.536 -0.2157  0.0838  0.8245
18868TIP3    H278020   2.547   3.646  12.589 -0.7333 -0.3501  0.1579
18869TIP3   OH278021   0.701   1.144  11.992  0.0645  0.8389  0.8820
18869TIP3    H178022   0.689   1.111  12.081 -1.1509  1.1456  0.8522
18869TIP3    H278023   0.630   1.207  11.980 -1.3044 -0.9423 -1.1280
18870TIP3   OH278024   3.631   0.511  16.758 -0.0460 -0.0407  0.1672
18870TIP3    H178025   3.613   0.589  16.811 -2.0238 -0.8400  0.7450
18870TIP3    H278026   3.631   0.543  16.668  0.9782  0.9248  0.4926
18871TIP3   OH278027   1.115   4.071  17.376  0.3731 -0.2313  0.3428
18871TIP3    H178028   1.080   4.032  17.296 -0.1096  1.1003 -0.1119
18871TIP3    H278029   1.146   4.158  17.349 -1.8112  1.1571  2.0057
18872TIP3   OH278030   1.604   0.230  11.432 -0.2772  0.1207 -0.1010
18872TIP3    H178031   1.688   0.275  11.423 -0.2197 -0.0571 -0.4826
18872TIP3    H278032   1.568   0.263  11.514  0.7209 -0.6991  0.7076
18873TIP3   OH278033   5.147   2.634  17.560 -0.5126 -0.3370 -0.0161
18873TIP3    H178034   5.138   2.545  17.525 -0.4802 -0.7874  1.0975
18873TIP3    H278035   5.223   2.630  17.618 -0.4970  0.4286  0.0258
18874TIP3   OH278036   1.586   1.265  14.864  1.0307  0.1270  0.0413
18874TIP3    H178037   1.566   1.190  14.919  1.7042 -0.3202 -0.3084
18874TIP3    H278038   1.534   1.337  14.901  1.5610 -0.1328  1.3471
18875TIP3   OH278039   0.603   6.085  15.835 -0.5235  0.4634 -0.8376
18875TIP3    H178040   0.637   6.101  15.923 -0.3644  0.5636 -0.9164
18875TIP3    H278041   0.540   6.156  15.820 -0.4424  0.5303 -0.8613
18876TIP3   OH278042   6.417   1.339  12.645  0.4912 -0.3674  0.0630
18876TIP3    H178043   6.428   1.245  12.660 -0.3953 -0.6064 -0.7162
18876TIP3    H278044   6.365   1.370  12.719 -0.7297 -0.8429 -0.5697
18877TIP3   OH278045   5.306   0.461  13.489 -0.0259  0.1364  0.2769
18877TIP3    H178046   5.332   0.496  13.404  1.8755 -0.4323  0.5895
18877TIP3    H278047   5.274   0.373  13.471 -0.1521  0.2230  0.0811
18878TIP3   OH278048   5.264   0.991  12.165  0.1082 -0.5220  0.0412
18878TIP3    H178049   5.328   1.060  12.148 -2.0632  1.0183 -2.7387
18878TIP3    H278050   5.199   1.032  12.222  0.1282 -1.1502  0.5250
18879TIP3   OH278051   5.407   5.530  14.426 -0.0797 -0.4642  0.0376
18879TIP3    H178052   5.455   5.540  14.509 -0.7786 -0.8404  0.4940
18879TIP3    H278053   5.405   5.435  14.411 -0.3831 -0.4252 -0.1608
18880TIP3   OH278054   2.528   4.764   1.022  1.3018 -0.1566 -0.0622
18880TIP3    H178055   2.563   4.826   0.958 -0.8693 -0.8743 -2.0878
18880TIP3    H278056   2.450   4.807   1.057  0.5625 -1.1450 -0.4494
18881TIP3   OH278057   6.611   5.709   1.114  0.3757  0.2059 -0.0643
18881TIP3    H178058   6.644   5.642   1.174 -0.1882 -0.8625 -0.9140
18881TIP3    H278059   6.519   5.720   1.138  0.2059 -0.0607 -0.5835
18882TIP3   OH278060   0.232   2.008   3.032  0.3010 -0.0075 -0.3144
18882TIP3    H178061   0.223   2.096   2.996 -0.1846 -0.6791 -1.9178
18882TIP3    H278062   0.308   2.013   3.090  2.1675  0.7687 -2.6625
18883TIP3   OH278063   0.016   4.236  13.010  0.0854  0.0991 -1.0981
18883TIP3    H178064  -0.028   4.249  13.094 -0.2432  0.3134 -1.3046
18883TIP3    H278065  -0.049   4.259  12.944  0.4405  0.2364 -1.4080
18884TIP3   OH278066   4.481   4.824   4.318  0.1476  0.1752 -0.1987
18884TIP3    H178067   4.520   4.909   4.300 -0.7670  1.0522  1.6300
18884TIP3    H278068   4.448   4.794   4.234  2.4320  0.5575 -1.3160
18885TIP3   OH278069   3.694   3.380   1.062 -0.2314  0.0277  0.9584
18885TIP3    H178070   3.790   3.383   1.068 -0.1952 -1.1083  1.1433
18885TIP3    H278071   3.665   3.463   1.099  0.7326  1.1276 -0.6071
18886TIP3   OH278072   3.619   2.294  11.371  0.3111  0.5104 -0.3808
18886TIP3    H178073   3.538   2.324  11.330  0.1840 -0.4202 -0.8373
18886TIP3    H278074   3.590   2.253  11.453  0.0431 -1.7004 -1.4963
18887TIP3   OH278075   4.637   4.127   5.528 -0.3979  0.0222  0.9707
18887TIP3    H178076   4.644   4.032   5.521 -2.0401 -0.1319  1.0395
18887TIP3    H278077   4.623   4.144   5.621  1.6027  0.4962  1.2248
18888TIP3   OH278078   6.368   0.706  15.516 -0.6576  0.4700 -0.2466
18888TIP3    H178079   6.373   0.658  15.433 -1.1190 -0.2231  0.1180
18888TIP3    H278080   6.455   0.744  15.527 -0.6959  0.8722 -1.2215
18889TIP3   OH278081   0.688   4.429   0.326  0.1548 -0.6437  0.2269
18889TIP3    H178082   0.642   4.509   0.300  1.3954 -0.5644 -1.9818
18889TIP3    H278083   0.748   4.411   0.253  1.4346 -2.4131  1.6301
18890TIP3   OH278084   6.127   1.432  13.641  0.3827  0.3693 -0.1087
18890TIP3    H178085   6.201   1.424  13.702  0.0013  0.5233  0.3738
18890TIP3    H278086   6.162   1.399  13.558  1.0135  0.4857  0.1008
18891TIP3   OH278087   5.639   6.070   3.970  0.0062  0.0675  0.4136
18891TIP3    H178088   5.558   6.079   3.921 -1.3217  0.1114  2.4895
18891TIP3    H278089   5.670   5.982   3.949  0.2666  0.5953 -1.5599
18892TIP3   OH278090   4.777   4.409  12.534  0.4964  0.0603 -0.0106
18892TIP3    H178091   4.824   4.491  12.551 -0.5747  0.7212 -0.1344
18892TIP3    H278092   4.744   4.419  12.445 -0.3233 -0.1544  0.2607
18893TIP3   OH278093   1.439   0.113   3.679  0.3023  0.5983 -0.0015
18893TIP3    H178094   1.392   0.075   3.604 -0.2331  1.4763 -0.1325
18893TIP3    H278095   1.430   0.208   3.666 -2.3283  0.8762  2.6597
18894TIP3   OH278096   0.394   6.274  15.796  0.2555 -0.3133  0.3384
18894TIP3    H178097   0.339   6.327  15.739  0.1585 -0.1258  0.6044
18894TIP3    H278098   0.405   6.327  15.876  0.7776 -0.3664  0.3087
18895TIP3   OH278099   3.175   5.450   0.879 -0.3376 -0.7017  0.1301
18895TIP3    H178100   3.223   5.406   0.809  0.9635 -0.9111  1.1167
18895TIP3    H278101   3.142   5.531   0.838 -1.9020 -2.0341 -1.4199
18896TIP3   OH278102   6.544   3.090   5.327  1.0815  0.5347 -0.0210
18896TIP3    H178103   6.602   3.016   5.342  0.9423  0.2797 -0.7139
18896TIP3    H278104   6.579   3.133   5.248  0.6106  0.6507 -0.1715
18897TIP3   OH278105   3.621   0.977   1.972  0.1778 -0.4396  0.2491
18897TIP3    H178106   3.637   1.072   1.968  1.1246 -0.6276 -2.4614
18897TIP3    H278107   3.708   0.938   1.967 -0.3051 -1.4710 -0.2369
18898TIP3   OH278108   6.269   4.395  16.582 -0.5550  0.5443  0.0050
18898TIP3    H178109   6.326   4.394  16.506 -1.5621 -0.2332 -0.7638
18898TIP3    H278110   6.246   4.303  16.597  0.3862  0.5518  1.8596
18899TIP3   OH278111   6.180   5.638  16.757  0.3846 -0.0626 -0.1083
18899TIP3    H178112   6.213   5.616  16.845 -0.9598 -0.2884  0.3569
18899TIP3    H278113   6.259   5.661  16.708  1.2072 -0.2752  1.0547
18900TIP3   OH278114   3.133   0.536  15.327  0.4245 -0.1501 -0.4009
18900TIP3    H178115   3.208   0.487  15.363 -1.0585 -1.7518  0.7039
18900TIP3    H278116   3.171   0.618  15.296  2.5497 -0.6577  0.6204
18901TIP3   OH278117   1.696   5.522   6.486  0.0808 -0.5247  0.0705
18901TIP3    H178118   1.759   5.573   6.537 -0.3849  1.0247 -0.8197
18901TIP3    H278119   1.611   5.555   6.514 -0.1852  0.4737 -1.7518
18902TIP3   OH278120   0.234   2.681  11.178 -0.3991 -0.2148 -0.7280
18902TIP3    H178121   0.294   2.727  11.238 -2.1974  2.0322 -0.5035
18902TIP3    H278122   0.221   2.742  11.106 -0.9927 -1.4298 -1.6853
18903TIP3   OH278123   5.873   3.138   2.716 -0.0899  0.1125  0.0651
18903TIP3    H178124   5.800   3.134   2.654  0.8017  0.7110 -1.0639
18903TIP3    H278125   5.835   3.114   2.800 -1.8331  1.5186 -0.2783
18904TIP3   OH278126   3.495   5.760  16.703 -0.4766 -0.4543 -0.2985
18904TIP3    H178127   3.582   5.795  16.718 -0.4541 -0.7142  0.2111
18904TIP3    H278128   3.449   5.772  16.786 -0.0603 -2.7929  0.3584
18905TIP3   OH278129   6.318   6.584   2.695  0.0325 -0.0569 -0.5257
18905TIP3    H178130   6.315   6.640   2.617  0.8066 -0.2203 -0.6867
18905TIP3    H278131   6.274   6.503   2.668  0.2121 -0.0763 -0.7612
18906TIP3   OH278132   3.857   3.710   4.326  0.0930 -0.0379 -0.1314
18906TIP3    H178133   3.805   3.643   4.282 -1.2236  0.9489 -0.1495
18906TIP3    H278134   3.948   3.685   4.310 -0.3598 -1.6292 -0.3924
18907TIP3   OH278135   1.037   4.356  17.192  0.0565  0.4557  0.0930
18907TIP3    H178136   1.133   4.358  17.190  0.1297  0.1810  1.7718
18907TIP3    H278137   1.013   4.290  17.127  0.9960  0.6975 -0.5085
18908TIP3   OH278138   4.675   6.136  16.606 -0.8482  0.1312 -0.2999
18908TIP3    H178139   4.668   6.130  16.511  0.6462 -0.4118 -0.4018
18908TIP3    H278140   4.758   6.182  16.621 -0.6260 -0.5759  0.7436
18909TIP3   OH278141   5.740   6.518   0.880  0.1895 -0.1121 -0.2944
18909TIP3    H178142   5.670   6.581   0.897  0.5779  0.1044  0.5839
18909TIP3    H278143   5.781   6.549   0.800  1.1025  1.4464  0.7266
18910TIP3   OH278144   4.675   0.113  12.046 -0.7282  0.6193 -0.3165
18910TIP3    H178145   4.709   0.154  11.966  1.0252 -0.6095 -0.2589
18910TIP3    H278146   4.656   0.186  12.105  1.3007  1.4252 -0.5920
18911TIP3   OH278147   3.227   6.067  17.411  0.0438 -0.0234  0.2053
18911TIP3    H178148   3.250   6.091  17.500  2.1044  0.2520 -0.3509
18911TIP3    H278149   3.268   5.981  17.398 -0.9002 -0.4289 -0.2584
18912TIP3   OH278150   1.230   3.645   5.203 -0.1184  0.9101 -0.5093
18912TIP3    H178151   1.150   3.609   5.241  0.2205 -0.8541 -1.3577
18912TIP3    H278152   1.202   3.728   5.164 -1.0610  1.3671  1.0226
18913TIP3   OH278153   1.819   2.621   3.087  0.3781 -0.0138  0.5306
18913TIP3    H178154   1.738   2.663   3.117 -0.4076 -0.7847 -0.4609
18913TIP3    H278155   1.821   2.637   2.993  1.7293  0.5578  0.6383
18914TIP3   OH278156   2.104   2.201  14.476 -0.3749  0.0844  0.2017
18914TIP3    H178157   2.185   2.168  14.515  0.1593  1.5061  0.3535
18914TIP3    H278158   2.111   2.296  14.484 -1.0259  0.3441 -1.8570
18915TIP3   OH278159   4.829   4.832   1.328  0.0701  0.3513  0.4985
18915TIP3    H178160   4.841   4.881   1.409  0.0087 -1.1521  1.4654
18915TIP3    H278161   4.918   4.816   1.297  0.1608 -0.3254  1.0797
18916TIP3   OH278162   1.354   0.785   2.584  0.5260 -0.2195  0.0087
18916TIP3    H178163   1.448   0.801   2.587  0.3767  0.8152 -0.2912
18916TIP3    H278164   1.327   0.787   2.676  0.7503 -0.2045  0.0758
18917TIP3   OH278165   6.352   1.981  15.032 -0.6174  0.4863  0.6209
18917TIP3    H178166   6.322   2.071  15.038 -0.0756  0.6191  1.6992
18917TIP3    H278167   6.404   1.978  14.952 -6.4433 -0.7297 -3.8423
18918TIP3   OH278168   4.895   0.074   1.031 -0.2506 -0.0542  0.4804
18918TIP3    H178169   4.817   0.095   0.980 -0.0401  0.1923  0.2528
18918TIP3    H278170   4.928   0.159   1.060 -0.9532 -0.2466  1.9269
18919TIP3   OH278171   3.991   4.084  14.370 -0.4169 -0.4716  0.0881
18919TIP3    H178172   4.053   4.154  14.347 -0.9762  0.4285  1.1902
18919TIP3    H278173   3.988   4.028  14.293  0.6320  0.3103 -0.5437
18920TIP3   OH278174   4.148   0.794  13.044  0.1376 -0.0169  0.4478
18920TIP3    H178175   4.176   0.738  13.117 -0.7646  1.1376  1.7578
18920TIP3    H278176   4.067   0.753  13.013 -0.7985  0.7582  1.7377
18921TIP3   OH278177   4.667   5.529   2.642  0.4798  0.2992  0.1591
18921TIP3    H178178   4.585   5.517   2.690  0.0551 -1.0346 -0.8397
18921TIP3    H278179   4.639   5.559   2.555  0.9283 -1.6263 -0.6813
18922TIP3   OH278180   3.422   6.281  17.136  0.2727  0.5091 -0.1553
18922TIP3    H178181   3.461   6.307  17.219  0.5431  1.4209 -0.5538
18922TIP3    H278182   3.333   6.317  17.140 -0.2674 -0.8330  0.3966
18923TIP3   OH278183   5.767   0.531   1.833 -0.2212  0.1670 -0.5548
18923TIP3    H178184   5.839   0.581   1.869 -0.6245  1.6139 -1.6824
18923TIP3    H278185   5.807   0.474   1.767 -0.0971  0.9498 -1.1624
18924TIP3   OH278186   2.664   4.423  11.200  0.1252 -0.0750 -0.2489
18924TIP3    H178187   2.744   4.370  11.202  0.6206  0.6406 -0.5708
18924TIP3    H278188   2.670   4.473  11.118  0.1031  1.1124  0.4494
18925TIP3   OH278189   0.214   4.808  16.608 -0.6912  0.0986 -0.1510
18925TIP3    H178190   0.161   4.887  16.619 -0.4056  0.0594  1.9166
18925TIP3    H278191   0.279   4.831  16.541 -2.7234  0.4182 -2.1393
18926TIP3   OH278192   6.225   2.974  17.126  0.0787  0.5383 -0.2946
18926TIP3    H178193   6.313   2.956  17.159  0.2152  0.0988 -0.8906
18926TIP3    H278194   6.231   3.063  17.090 -0.5492  1.8399  2.4588
18927TIP3   OH278195   5.245   0.637   4.709  0.5211  0.3408 -0.0332
18927TIP3    H178196   5.310   0.568   4.696  0.4188  0.0302  1.0194
18927TIP3    H278197   5.259   0.698   4.636 -0.7329 -1.7996 -2.1815
18928TIP3   OH278198   5.220   0.207   4.567 -0.2558  0.9172  0.0043
18928TIP3    H178199   5.189   0.147   4.499 -1.5836  0.4689  0.9607
18928TIP3    H278200   5.143   0.223   4.621  0.7970  1.1625  1.4733
18929TIP3   OH278201   1.511   5.351  11.215 -0.5210 -0.1716  0.0340
18929TIP3    H178202   1.439   5.317  11.267  0.2735 -0.3911  1.0029
18929TIP3    H278203   1.590   5.330  11.264  0.1729  0.6893 -0.6608
18930TIP3   OH278204   1.896   1.103   5.976  0.0619  0.3099 -0.0793
18930TIP3    H178205   1.853   1.029   6.019  0.2596 -0.9468 -1.9253
18930TIP3    H278206   1.878   1.090   5.883  2.6931  0.8906 -0.7348
18931TIP3   OH278207   1.511   6.559   6.470 -0.4069 -0.3054  0.1379
18931TIP3    H178208   1.555   6.567   6.555 -0.9618 -0.7648  0.4726
18931TIP3    H278209   1.514   6.465   6.450  1.5458  0.0025 -1.3429
18932TIP3   OH278210   3.909   0.367  14.028  0.1315  0.4205 -0.7863
18932TIP3    H178211   4.001   0.363  14.001  0.1301  0.4202 -0.7917
18932TIP3    H278212   3.901   0.450  14.073  0.6173 -0.4547  0.9902
18933TIP3   OH278213   0.182   3.501   3.160  0.3158 -0.1151  0.6590
18933TIP3    H178214   0.110   3.523   3.220  1.5996  0.1598  2.1411
18933TIP3    H278215   0.228   3.429   3.202  1.5219  0.3884  0.2537
18934TIP3   OH278216   4.922   4.996   4.906  0.3927  0.1174 -0.1748
18934TIP3    H178217   4.866   5.011   4.982  2.7866  1.6071  1.4559
18934TIP3    H278218   4.870   5.026   4.832 -0.6919  2.2727  1.3413
18935TIP3   OH278219   1.237   0.461  15.396  0.2730 -1.1331  0.8384
18935TIP3    H178220   1.319   0.477  15.349  0.2482 -1.2550  0.7529
18935TIP3    H278221   1.239   0.368  15.416  0.3779 -1.0439  1.2615
18936TIP3   OH278222   4.525   0.281   1.589  0.3462  0.5749  0.4052
18936TIP3    H178223   4.574   0.199   1.585  2.4335  1.7397  0.7809
18936TIP3    H278224   4.546   0.318   1.675 -2.2935  0.5357  1.1558
18937TIP3   OH278225   6.559   5.860  16.208  0.4676  0.5547  0.6467
18937TIP3    H178226   6.501   5.794  16.246  1.0655 -0.9667 -0.9313
18937TIP3    H278227   6.648   5.830  16.229  0.7595  0.5917 -0.4584
18938TIP3   OH278228   5.268   5.698  15.433 -0.3535 -0.7922 -0.2881
18938TIP3    H178229   5.347   5.715  15.485 -0.8460 -1.0844  0.5939
18938TIP3    H278230   5.205   5.663  15.497 -0.5702 -2.3877 -1.3131
18939TIP3   OH278231   3.402   5.136  15.593  0.1378  0.1261 -0.1283
18939TIP3    H178232   3.490   5.145  15.556  0.5411 -0.6173  0.6248
18939TIP3    H278233   3.345   5.127  15.516  0.7757  0.1537 -0.6155
18940TIP3   OH278234   4.388   4.443   5.495 -0.0410 -0.1053 -0.0566
18940TIP3    H178235   4.439   4.524   5.501 -2.2979  1.3095  1.5441
18940TIP3    H278236   4.302   4.470   5.462 -0.4074 -2.1122 -0.9428
18941TIP3   OH278237   1.651   4.712  15.301  0.1362 -0.5268  0.5220
18941TIP3    H178238   1.653   4.784  15.364 -2.9930 -1.0015  1.3094
18941TIP3    H278239   1.632   4.634  15.353 -1.6926 -1.0722 -0.8571
18942TIP3   OH278240   0.145   1.966   0.024 -0.2116 -0.4287  0.2059
18942TIP3    H178241   0.143   1.891   0.084  0.3036 -2.7453 -2.4638
18942TIP3    H278242   0.059   1.965  -0.018  0.3341 -0.4799 -0.9242
18943TIP3   OH278243   3.220   2.634   6.057 -0.2101 -0.0845  0.0361
18943TIP3    H178244   3.313   2.651   6.050 -0.4421  0.9541 -0.7579
18943TIP3    H278245   3.211   2.540   6.045  0.7758 -0.2733  0.6936
18944TIP3   OH278246   3.833   4.074  13.239 -0.1280 -0.1579 -0.0829
18944TIP3    H178247   3.922   4.096  13.213  0.1486 -0.2464  0.7878
18944TIP3    H278248   3.818   4.123  13.320 -0.0341 -1.9600  1.0747
18945TIP3   OH278249   0.998   5.421   4.811 -0.4401  0.6275  0.7708
18945TIP3    H178250   0.982   5.353   4.876 -2.0824  1.5554  1.4131
18945TIP3    H278251   0.965   5.384   4.729 -1.3019  0.6122  1.1112
18946TIP3   OH278252   3.815   0.142  13.867 -0.1588 -0.7417 -0.0764
18946TIP3    H178253   3.753   0.075  13.837  1.2751 -1.3701 -1.8428
18946TIP3    H278254   3.844   0.111  13.953 -0.9426 -1.3708 -0.0205
18947TIP3   OH278255   4.508   0.142  16.848  0.2456  0.2607  0.4233
18947TIP3    H178256   4.545   0.200  16.915  0.5579  0.6733 -0.1042
18947TIP3    H278257   4.432   0.189  16.814  0.1329  0.0847  0.4295
18948TIP3   OH278258   1.766   2.370   5.766 -0.0356 -0.4795  0.9958
18948TIP3    H178259   1.792   2.438   5.828  1.8779 -1.7279  1.6402
18948TIP3    H278260   1.674   2.389   5.748 -0.2338  0.8324  3.0227
18949TIP3   OH278261   3.624   4.246  17.210  0.0615  0.1442  0.1297
18949TIP3    H178262   3.564   4.309  17.250  0.1806  0.8393 -0.7332
18949TIP3    H278263   3.711   4.273  17.241  0.2879  1.4391 -1.4554
18950TIP3   OH278264   4.788   2.777  11.705 -0.4383 -0.7287  0.3212
18950TIP3    H178265   4.751   2.700  11.748 -1.4626 -0.4313 -0.0216
18950TIP3    H278266   4.713   2.833  11.684  0.1596 -0.2837 -0.7203
18951TIP3   OH278267   0.592   5.704  16.958 -0.6126 -0.1768 -0.2977
18951TIP3    H178268   0.503   5.737  16.949 -0.7038 -0.6343 -1.1818
18951TIP3    H278269   0.598   5.678  17.050 -1.7158 -1.0051 -0.4281
18952TIP3   OH278270   6.166   3.172   2.684  0.1471 -0.1489 -0.4051
18952TIP3    H178271   6.195   3.180   2.775  2.2167  2.8304 -1.1658
18952TIP3    H278272   6.071   3.165   2.690  0.1244  1.0084  1.9689
18953TIP3   OH278273   1.333   3.718  16.976  0.5454 -0.0927  0.3650
18953TIP3    H178274   1.399   3.701  17.044  0.6911 -1.3685 -0.0735
18953TIP3    H278275   1.380   3.709  16.894  0.3989  1.5946  0.0602
18954TIP3   OH278276   0.945   2.860  15.470 -0.1580 -0.5349 -0.3339
18954TIP3    H178277   1.002   2.822  15.536  0.1310 -1.2360 -0.9729
18954TIP3    H278278   0.922   2.787  15.413  1.2598  0.4073 -2.2229
18955TIP3   OH278279   5.621   0.283   4.898 -0.0512 -0.0502  0.2339
18955TIP3    H178280   5.647   0.341   4.969 -2.3739  1.7698 -0.2907
18955TIP3    H278281   5.614   0.197   4.939 -3.2104  1.2516  2.8015
18956TIP3   OH278282   0.040   0.665   1.562 -0.0546 -0.3060 -0.0776
18956TIP3    H178283  -0.026   0.598   1.580  0.0770 -0.3760  0.1533
18956TIP3    H278284   0.026   0.689   1.471 -1.6206  1.0435  0.4943
18957TIP3   OH278285   6.441   4.307  13.528 -0.1866  0.2351 -0.2148
18957TIP3    H178286   6.398   4.261  13.455  1.6105 -1.4789 -0.2690
18957TIP3    H278287   6.416   4.258  13.606  0.5890  0.0032 -0.1003
18958TIP3   OH278288   1.760   3.487  14.106 -0.0629 -0.1961  0.0133
18958TIP3    H178289   1.721   3.400  14.101 -0.5683  0.0581 -0.6601
18958TIP3    H278290   1.684   3.547  14.105  0.2737  0.2496  0.5312
18959TIP3   OH278291   2.472   5.161  12.710  0.5078 -0.5669 -0.4727
18959TIP3    H178292   2.490   5.150  12.616 -0.9643 -1.5477 -0.6770
18959TIP3    H278293   2.465   5.071  12.743 -2.8701 -0.3449 -0.2760
18960TIP3   OH278294   5.793   0.149  13.722  0.1521  0.2747 -0.6923
18960TIP3    H178295   5.773   0.084  13.789  0.0381  0.7169 -0.2880
18960TIP3    H278296   5.708   0.187  13.700  0.0395 -0.6121 -1.8776
18961TIP3   OH278297   4.125   2.969  14.316 -0.4811  0.5443  0.1938
18961TIP3    H178298   4.161   2.881  14.313  1.7316  1.3675  0.0924
18961TIP3    H278299   4.095   2.986  14.227 -0.2357  0.1446  0.0352
18962TIP3   OH278300   4.353   0.396   2.938  0.1853 -0.4168  0.3390
18962TIP3    H178301   4.373   0.479   2.894 -1.2332  1.0973  2.3333
18962TIP3    H278302   4.435   0.346   2.934  1.7068  1.8827  0.7156
18963TIP3   OH278303   5.979   1.253   0.442  0.4477 -0.2169 -0.2292
18963TIP3    H178304   6.055   1.287   0.396  0.7393 -0.3129  0.1821
18963TIP3    H278305   5.990   1.158   0.439  1.2097 -0.2036  1.2664
18964TIP3   OH278306   4.547   2.966  16.540 -0.0444 -0.2932 -1.1107
18964TIP3    H178307   4.639   2.992  16.533 -0.1876  0.0018 -1.9467
18964TIP3    H278308   4.507   3.037  16.591  0.4007 -0.9884  0.2810
18965TIP3   OH278309   4.021   5.831   4.656  0.4792 -0.0263 -0.3867
18965TIP3    H178310   3.964   5.855   4.729 -0.1768 -1.0977 -0.5271
18965TIP3    H278311   4.107   5.820   4.697 -0.0309 -1.3743  0.4083
18966TIP3   OH278312   4.956   4.711   0.522  0.3074 -0.1801  0.2964
18966TIP3    H178313   4.898   4.773   0.478  0.2343  1.3545  2.3862
18966TIP3    H278314   5.000   4.664   0.451  0.5537  2.4526 -1.4277
18967TIP3   OH278315   4.302   5.983   0.960  0.4819  0.6757  0.5549
18967TIP3    H178316   4.290   5.900   1.007  1.0609  1.0972  1.4615
18967TIP3    H278317   4.349   5.958   0.880 -1.6470 -0.2256 -0.4773
18968TIP3   OH278318   1.271   0.015   1.326 -0.1451 -0.1361  0.1179
18968TIP3    H178319   1.352   0.034   1.373  0.0540 -0.0414 -0.2558
18968TIP3    H278320   1.223   0.098   1.326 -0.0489 -0.0802 -0.0298
18969TIP3   OH278321   6.664   3.333   2.207 -0.0151  0.8597 -0.3226
18969TIP3    H178322   6.615   3.409   2.240  2.0033  2.3027 -0.4565
18969TIP3    H278323   6.740   3.326   2.265  1.3383  0.7636 -2.0124
18970TIP3   OH278324   0.712   0.566   1.922  0.1190 -0.0527  0.5034
18970TIP3    H178325   0.783   0.586   1.861  0.2950 -0.1850  0.6647
18970TIP3    H278326   0.746   0.495   1.977 -0.2573 -0.3372  0.3711
18971TIP3   OH278327   2.384   4.254   0.582 -0.3743  0.1342 -0.5000
18971TIP3    H178328   2.392   4.159   0.581 -0.4681  0.1104  0.1652
18971TIP3    H278329   2.473   4.286   0.598  0.2902  0.3092 -3.8777
18972TIP3   OH278330   3.689   3.704  10.877  0.3682  0.6608 -0.1920
18972TIP3    H178331   3.722   3.716  10.788 -0.0275 -0.1432 -0.4538
18972TIP3    H278332   3.693   3.609  10.891 -1.2175  0.6045  0.0006
18973TIP3   OH278333   2.011   3.918  14.381  0.4120 -0.9774 -0.1145
18973TIP3    H178334   2.034   3.938  14.472  1.7770 -2.1322 -0.1597
18973TIP3    H278335   2.011   3.822  14.377 -0.6318 -0.9599 -1.1077
18974TIP3   OH278336   4.163   2.691  17.503 -0.1105 -0.3826  0.4577
18974TIP3    H178337   4.117   2.719  17.582 -0.9497 -1.9262  0.5360
18974TIP3    H278338   4.094   2.661  17.444  0.4513  1.1759 -1.0933
18975TIP3   OH278339   4.045   3.751  13.256 -0.2482  0.3280  0.1471
18975TIP3    H178340   4.022   3.767  13.348  3.2863 -0.6104  1.3428
18975TIP3    H278341   4.003   3.667  13.235  0.1183 -0.1984  1.4150
18976TIP3   OH278342   5.864   0.804   5.982  0.5195  0.0300 -0.1759
18976TIP3    H178343   5.815   0.878   6.020  0.9855 -0.1944  0.9227
18976TIP3    H278344   5.956   0.830   5.992  0.7879 -1.5191  2.1025
18977TIP3   OH278345   0.480   1.071   4.239  0.5277  0.4949 -0.2075
18977TIP3    H178346   0.394   1.114   4.235  0.2030 -0.1350 -0.1256
18977TIP3    H278347   0.466   0.987   4.196  0.9499  0.1365  0.3426
18978TIP3   OH278348   1.181   2.876   2.778  0.3224 -0.0427 -0.1085
18978TIP3    H178349   1.159   2.814   2.708  2.3176  0.3207 -1.1335
18978TIP3    H278350   1.180   2.962   2.735  1.9595  0.1442  0.1624
18979TIP3   OH278351   0.357   5.870   6.478 -0.4496 -0.0724 -0.5042
18979TIP3    H178352   0.435   5.925   6.488  0.8642 -1.2843 -3.1484
18979TIP3    H278353   0.358   5.813   6.555  1.1235  0.1247 -0.3394
18980TIP3   OH278354   1.551   2.640   6.635  0.4565  0.2303  0.0373
18980TIP3    H178355   1.471   2.639   6.688 -0.2847  1.7849 -0.9877
18980TIP3    H278356   1.532   2.584   6.561  0.9846 -0.8120  0.6671
18981TIP3   OH278357   1.209   3.004  16.801  0.2875 -0.0665  0.5344
18981TIP3    H178358   1.231   3.074  16.740 -1.0582  0.5283  0.6798
18981TIP3    H278359   1.147   2.949  16.753 -1.0894  0.6209  1.4399
18982TIP3   OH278360   3.844   2.605   1.076 -0.2973  0.5790  0.1488
18982TIP3    H178361   3.937   2.605   1.098 -0.5867 -0.1543  1.4642
18982TIP3    H278362   3.842   2.599   0.980  1.0287 -1.5644  0.1977
18983TIP3   OH278363   2.544   0.951  11.294 -0.0855  0.0667 -0.1389
18983TIP3    H178364   2.533   0.864  11.256  0.3777 -0.0643  0.0173
18983TIP3    H278365   2.629   0.981  11.261  0.5215 -0.2132  1.1017
18984TIP3   OH278366   5.714   0.374  16.493  0.6654  0.8691  0.8910
18984TIP3    H178367   5.792   0.414  16.532  0.0013  1.2262  1.8995
18984TIP3    H278368   5.711   0.286  16.531  1.2908  0.3784 -0.1649
18985TIP3   OH278369   0.404   0.534   1.275 -0.0789  0.2964  0.4855
18985TIP3    H178370   0.315   0.512   1.245  0.4800 -0.4186 -0.7248
18985TIP3    H278371   0.420   0.622   1.241 -0.1580  0.2423  0.3050
18986TIP3   OH278372   2.428   2.451  16.260 -0.4731 -0.2654  0.2968
18986TIP3    H178373   2.418   2.545  16.278 -1.2673 -0.0394 -1.1158
18986TIP3    H278374   2.522   2.435  16.267 -0.2109  0.8557 -0.3593
18987TIP3   OH278375   5.762   2.258   4.835  0.4857 -0.5433  0.2153
18987TIP3    H178376   5.767   2.164   4.852 -0.6744 -0.3596  1.8852
18987TIP3    H278377   5.678   2.271   4.791 -0.6239 -0.0622  2.3346
18988TIP3   OH278378   0.099   2.211   4.758 -0.0155  0.4456 -0.1544
18988TIP3    H178379   0.158   2.191   4.685  2.2544  3.4336  0.6833
18988TIP3    H278380   0.140   2.284   4.803 -1.6202 -0.8517  3.8552
18989TIP3   OH278381   2.042   4.176  11.144 -0.0159 -0.4905  0.2969
18989TIP3    H178382   2.137   4.175  11.157  0.3357  1.2724 -1.7093
18989TIP3    H278383   2.012   4.256  11.187 -0.6427 -1.0349  0.9218
18990TIP3   OH278384   5.216   3.048   6.049  0.0602 -0.0109 -0.1704
18990TIP3    H178385   5.131   3.010   6.028 -1.4019  1.5830  2.3430
18990TIP3    H278386   5.237   3.014   6.136  0.7215  1.5805  0.3329
18991TIP3   OH278387   0.154   5.362   5.538 -0.8675 -0.4426 -0.4396
18991TIP3    H178388   0.221   5.340   5.474 -0.7250 -1.3906  0.0179
18991TIP3    H278389   0.126   5.451   5.515 -1.0134 -0.8655 -1.9653
18992TIP3   OH278390   5.849   0.399   6.041  0.4414  0.3790  0.5007
18992TIP3    H178391   5.895   0.421   5.960 -0.9552  2.0707  0.0915
18992TIP3    H278392   5.902   0.439   6.110  0.3123  1.1720  0.1554
18993TIP3   OH278393   6.338   3.696   1.966  0.0857  0.4251 -0.1872
18993TIP3    H178394   6.251   3.724   1.994  0.2520 -0.6660  1.5342
18993TIP3    H278395   6.350   3.610   2.005  1.7045  0.2644 -0.9239
18994TIP3   OH278396   4.639   1.443   4.418 -0.4134  0.4518 -0.2084
18994TIP3    H178397   4.703   1.422   4.350 -0.6746 -3.1596  0.4813
18994TIP3    H278398   4.687   1.432   4.501 -1.1077  0.9516  0.2773
18995TIP3   OH278399   2.347   4.247   6.672 -0.4515  0.5907  0.9604
18995TIP3    H178400   2.265   4.243   6.722 -0.7786 -0.9428  0.3506
18995TIP3    H278401   2.324   4.212   6.586  0.6705  0.9307  0.5015
18996TIP3   OH278402   0.770   3.932   4.064 -0.3079 -0.0586 -0.4294
18996TIP3    H178403   0.846   3.874   4.056 -0.9537 -0.7013 -2.3273
18996TIP3    H278404   0.703   3.879   4.106 -0.1647  0.0706 -0.0312
18997TIP3   OH278405   4.983   0.720  16.565  0.9668 -0.1071  0.3338
18997TIP3    H178406   5.033   0.743  16.487 -0.3899 -0.8230 -0.7817
18997TIP3    H278407   4.921   0.792  16.576  1.3351  0.1333  0.9518
18998TIP3   OH278408   5.297   5.729   1.850 -0.5444 -1.0534  0.0108
18998TIP3    H178409   5.217   5.743   1.901 -0.8778 -0.0023 -0.7654
18998TIP3    H278410   5.302   5.806   1.793  0.1221 -1.9331 -1.1416
18999TIP3   OH278411   0.183   3.221   4.386  0.4545  0.0541  0.5330
18999TIP3    H178412   0.215   3.310   4.399  0.0962  0.4576 -1.1302
18999TIP3    H278413   0.237   3.185   4.316 -1.1002 -0.0689 -0.6776
19000TIP3   OH278414   3.369   6.044   1.543  0.3196  0.2090 -0.3165
19000TIP3    H178415   3.298   6.065   1.603  1.1441 -0.4484  0.9306
19000TIP3    H278416   3.442   6.099   1.572  0.3104  0.9814 -1.6670
19001TIP3   OH278417   5.795   6.275   4.674 -0.3229  0.3396  0.0731
19001TIP3    H178418   5.725   6.339   4.663  0.4267  1.1617 -0.0662
19001TIP3    H278419   5.785   6.242   4.763 -1.6877 -0.5501 -0.3820
19002TIP3   OH278420   6.074   6.188  13.126  0.2348 -0.1528 -0.4090
19002TIP3    H178421   6.136   6.141  13.070  0.8729  1.0749 -0.7651
19002TIP3    H278422   5.991   6.184  13.078  0.4342 -0.3618 -0.7413
19003TIP3   OH278423   2.626   2.622   5.035  0.5044 -0.4438  0.2544
19003TIP3    H178424   2.695   2.655   4.978  0.7373 -2.1711 -0.5426
19003TIP3    H278425   2.551   2.609   4.978 -0.0830  0.2126  0.8632
19004TIP3   OH278426   3.375   4.317  11.379 -0.3507  0.1137 -0.1892
19004TIP3    H178427   3.308   4.360  11.326  0.6129  1.1515 -0.5922
19004TIP3    H278428   3.329   4.295  11.460 -0.7975  2.4032  0.2642
19005TIP3   OH278429   2.632   3.605   5.800 -0.7010 -0.9160 -0.0251
19005TIP3    H178430   2.577   3.588   5.876  1.1566 -2.4661  1.0720
19005TIP3    H278431   2.667   3.693   5.813 -1.5375 -0.6099  0.1558
19006TIP3   OH278432   6.295   0.182  12.354  0.5020 -0.1175 -0.1483
19006TIP3    H178433   6.333   0.257  12.310  0.0802  1.4155  1.9579
19006TIP3    H278434   6.353   0.166  12.429 -2.1227  1.5154  2.4429
19007TIP3   OH278435   2.600   3.176  12.917  0.1362 -0.1667  0.0924
19007TIP3    H178436   2.594   3.172  12.822 -0.7464  0.2691  0.1189
19007TIP3    H278437   2.608   3.085  12.945  0.3268 -0.3006 -0.3909
19008TIP3   OH278438   6.334   5.858  13.120  0.0850 -0.3468 -0.3273
19008TIP3    H178439   6.363   5.839  13.209  2.2070  1.4591 -0.5465
19008TIP3    H278440   6.379   5.939  13.097 -2.6706  0.8691 -2.0117
19009TIP3   OH278441   4.326   0.996   4.801  0.3542  0.0962 -0.3510
19009TIP3    H178442   4.255   0.965   4.744 -0.1087 -0.8722  0.7307
19009TIP3    H278443   4.282   1.027   4.880  1.0872  0.2108  0.0223
19010TIP3   OH278444   5.127   4.713  14.837 -0.8887 -0.1408 -0.1864
19010TIP3    H178445   5.075   4.780  14.794 -0.3836  0.4644  0.1281
19010TIP3    H278446   5.074   4.634  14.831 -2.0274  0.5379  0.4696
19011TIP3   OH278447   0.091   3.410   3.719 -0.2112  0.2158 -0.3000
19011TIP3    H178448   0.108   3.362   3.801  1.6819 -0.3660 -0.9931
19011TIP3    H278449   0.163   3.473   3.713 -0.3258  0.2358 -1.5441
19012TIP3   OH278450   6.514   1.354  13.523 -0.0380  0.2179 -0.0198
19012TIP3    H178451   6.553   1.404  13.594  1.1644 -1.4163  0.5241
19012TIP3    H278452   6.588   1.327  13.469 -0.6317 -1.1708 -0.1660
19013TIP3   OH278453   2.580   2.727  17.103  0.1111  0.4820 -0.1062
19013TIP3    H178454   2.665   2.728  17.147 -0.2669  2.1058  0.7029
19013TIP3    H278455   2.517   2.714  17.174 -0.3555  0.0619 -0.5924
19014TIP3   OH278456   4.018   4.236  12.965 -0.2276  0.3418  0.3934
19014TIP3    H178457   4.007   4.143  12.944 -1.0301 -0.1537  2.7314
19014TIP3    H278458   3.928   4.269  12.972  0.0125  1.8366 -2.2627
19015TIP3   OH278459   4.695   2.696   3.760  0.3891  0.1470  0.1277
19015TIP3    H178460   4.657   2.627   3.813  0.9270 -0.7254 -0.5788
19015TIP3    H278461   4.624   2.759   3.746 -0.3981 -0.7615 -0.0400
19016TIP3   OH278462   2.308   1.333  14.859 -0.4235  0.0145 -0.4596
19016TIP3    H178463   2.320   1.239  14.874 -2.2875 -0.4898 -1.8217
19016TIP3    H278464   2.373   1.374  14.917 -0.2671 -2.0546  0.9742
19017TIP3   OH278465   2.850   5.009  11.846 -0.0629 -0.0153  0.1867
19017TIP3    H178466   2.930   4.965  11.875  0.2438  0.3301 -0.1025
19017TIP3    H278467   2.804   4.944  11.794  2.1358  0.9664 -3.3413
19018TIP3   OH278468   0.247   4.701  11.840 -0.3724  0.5007 -0.1898
19018TIP3    H178469   0.196   4.731  11.915  1.0367  1.5161  0.4045
19018TIP3    H278470   0.221   4.609  11.829 -0.7287  0.3712  1.4407
19019TIP3   OH278471   5.269   2.852   6.270  0.5604 -0.0897 -0.3969
19019TIP3    H178472   5.352   2.900   6.275  0.7371 -0.3811 -0.5140
19019TIP3    H278473   5.293   2.767   6.233  0.1058  0.0642 -1.0497
19020TIP3   OH278474   2.836   6.179  15.276  0.0635 -0.0816  0.6902
19020TIP3    H178475   2.883   6.132  15.208  0.1165  0.2565  0.4884
19020TIP3    H278476   2.766   6.120  15.303  0.1108 -0.2607  0.4222
19021TIP3   OH278477   2.624   2.908   3.378 -0.3905 -0.1819  0.3146
19021TIP3    H178478   2.653   2.940   3.463 -0.0216 -1.0020  0.5043
19021TIP3    H278479   2.562   2.838   3.397  1.7163 -2.2530 -0.0181
19022TIP3   OH278480   0.828   0.674   3.241 -0.9000  0.5237 -0.4213
19022TIP3    H178481   0.909   0.662   3.191 -1.4706 -0.2456 -1.1947
19022TIP3    H278482   0.830   0.766   3.267  0.3827  0.4321 -0.1253
19023TIP3   OH278483   2.703   4.886   5.705 -0.4393 -0.3107  0.1858
19023TIP3    H178484   2.773   4.841   5.658 -0.3979  0.3444 -0.3938
19023TIP3    H278485   2.710   4.855   5.795  1.1161  0.3502  0.3242
19024TIP3   OH278486   3.097   4.702   2.792 -0.4437  0.6462 -0.1676
19024TIP3    H178487   3.102   4.619   2.744  1.2126 -0.2189  1.4077
19024TIP3    H278488   3.009   4.734   2.773 -0.5842 -0.6673 -2.0843
19025TIP3   OH278489   3.570   3.565   0.583 -0.2858 -0.0337  0.5120
19025TIP3    H178490   3.480   3.575   0.552 -0.5988  1.2388  1.7122
19025TIP3    H278491   3.581   3.636   0.647  1.1981 -0.8678  1.2314
19026TIP3   OH278492   4.370   4.042  13.249 -0.1190 -0.0439 -0.1314
19026TIP3    H178493   4.413   3.979  13.308  0.4455  1.6554  1.3707
19026TIP3    H278494   4.442   4.083  13.201 -0.1686  1.3923  0.9437
19027TIP3   OH278495   0.889   1.574  16.259 -0.5436 -0.6176 -0.2695
19027TIP3    H178496   0.949   1.514  16.215 -0.3063  0.0842 -0.9260
19027TIP3    H278497   0.810   1.574  16.205 -0.3823 -0.0156 -0.5134
19028TIP3   OH278498   2.215   5.158   7.070 -0.1898 -0.7839  0.1915
19028TIP3    H178499   2.242   5.250   7.068 -1.6507 -0.2878  1.4219
19028TIP3    H278500   2.170   5.144   6.987 -2.1495  0.3763  0.9844
19029TIP3   OH278501   3.184   5.078  15.407 -0.0190 -0.2946  0.6348
19029TIP3    H178502   3.132   5.158  15.401 -1.7240 -1.3533  0.7238
19029TIP3    H278503   3.120   5.008  15.418  1.3098 -1.9278 -1.3750
19030TIP3   OH278504   2.150   5.640   0.681 -0.1951  0.5276  0.1485
19030TIP3    H178505   2.190   5.668   0.763  0.5121 -2.0581  0.7955
19030TIP3    H278506   2.056   5.647   0.697 -0.0577  0.5062  1.0087
19031TIP3   OH278507   0.954   2.933  16.027  0.5144 -0.7033 -0.5568
19031TIP3    H178508   0.979   2.885  15.948  0.4109  0.4507 -1.3058
19031TIP3    H278509   0.994   3.019  16.017 -0.6138 -0.0965  0.0212
19032TIP3   OH278510   1.789   5.584   2.428 -0.3314 -0.3000 -0.2128
19032TIP3    H178511   1.811   5.677   2.430 -0.0320 -0.2802 -2.2275
19032TIP3    H278512   1.842   5.548   2.357  0.8937 -2.4002  1.6333
19033TIP3   OH278513   3.806   5.783  11.921 -1.0291  0.0006  0.5416
19033TIP3    H178514   3.790   5.722  11.850  0.5213 -0.6868  0.7230
19033TIP3    H278515   3.791   5.869  11.883 -0.2120 -0.3539 -0.6467
19034TIP3   OH278516   3.344   3.714  14.304  0.2347  0.2404 -0.2571
19034TIP3    H178517   3.284   3.694  14.376  0.9851  2.3199  1.0178
19034TIP3    H278518   3.287   3.741  14.232 -0.5119 -1.6286 -0.4364
19035TIP3   OH278519   5.203   3.294  15.505  0.1873  0.0333  0.3713
19035TIP3    H178520   5.242   3.378  15.478  0.9760 -0.4167  0.0907
19035TIP3    H278521   5.114   3.317  15.531 -0.2278  0.6733 -1.4993
19036TIP3   OH278522   2.928   5.913  11.573 -0.0207 -0.2171 -0.5518
19036TIP3    H178523   2.997   5.979  11.572  0.4734 -0.6173  1.5680
19036TIP3    H278524   2.921   5.887  11.665 -2.0314 -1.2142 -0.9221
19037TIP3   OH278525   3.747   1.316   1.085 -0.5770  0.4600  0.3340
19037TIP3    H178526   3.692   1.316   1.164 -1.7752  0.4844 -0.4614
19037TIP3    H278527   3.763   1.224   1.067  0.3199  0.4734  1.0018
19038TIP3   OH278528   6.137   0.913   0.193  0.1048 -0.2100 -0.2022
19038TIP3    H178529   6.092   0.910   0.277  1.9439 -2.4557  0.8113
19038TIP3    H278530   6.207   0.977   0.206 -0.8025  0.9216 -0.7295
19039TIP3   OH278531   3.596   1.490  12.487 -0.3074  0.3293  0.9782
19039TIP3    H178532   3.504   1.512  12.471  0.0659  2.2412  1.2520
19039TIP3    H278533   3.633   1.478  12.399 -0.3964  1.5516  0.7455
19040TIP3   OH278534   4.302   1.628  14.886 -0.4254  0.2874 -0.4603
19040TIP3    H178535   4.247   1.604  14.811  1.3463 -0.6272 -1.5286
19040TIP3    H278536   4.389   1.641  14.849  0.3095  0.7175  1.3163
19041TIP3   OH278537   4.753   1.351   3.410 -0.0176  0.2107  0.1822
19041TIP3    H178538   4.834   1.401   3.396 -0.7506  1.0544 -1.2962
19041TIP3    H278539   4.683   1.414   3.392 -0.9846 -0.9919 -0.3819
19042TIP3   OH278540   3.017   0.420  15.562  0.6725  0.0040  0.1266
19042TIP3    H178541   3.058   0.448  15.480 -0.3192  0.9685 -0.0628
19042TIP3    H278542   3.054   0.478  15.629 -0.3998  0.9503 -0.0611
19043TIP3   OH278543   1.533   4.110   0.325 -0.0744  0.3676 -0.1387
19043TIP3    H178544   1.604   4.060   0.284 -0.3678 -1.3806  1.3573
19043TIP3    H278545   1.578   4.166   0.389  0.0624  0.1691 -0.0592
19044TIP3   OH278546   3.517   0.114   5.467  0.7053 -0.1272 -0.1230
19044TIP3    H178547   3.466   0.189   5.497  0.8016  0.7926 -2.0912
19044TIP3    H278548   3.460   0.070   5.404  1.2421 -0.8132 -0.1392
19045TIP3   OH278549   6.698   5.390  16.512  0.0811  0.3784  0.1846
19045TIP3    H178550   6.685   5.461  16.574 -0.1603 -0.6306  1.3275
19045TIP3    H278551   6.781   5.410  16.470  0.0058  1.3414  0.4719
19046TIP3   OH278552   3.494   5.735  13.951 -0.2140 -0.1074  0.2389
19046TIP3    H178553   3.543   5.662  13.988 -1.5825 -0.3020  1.7665
19046TIP3    H278554   3.509   5.807  14.012 -0.7156  0.2303 -0.0349
19047TIP3   OH278555   1.910   5.058   2.202  0.4696  0.5208 -0.3757
19047TIP3    H178556   1.871   5.001   2.136  0.9394  0.7813 -0.8876
19047TIP3    H278557   1.849   5.131   2.210  0.7595  0.8534 -1.0644
19048TIP3   OH278558   5.201   0.452  14.842 -0.3024 -0.5993  0.1269
19048TIP3    H178559   5.158   0.535  14.823  0.3604 -0.2906 -0.0563
19048TIP3    H278560   5.251   0.468  14.922  1.2671 -0.2623 -0.8822
19049TIP3   OH278561   5.524   6.591   1.224  0.4496 -0.1101 -0.4108
19049TIP3    H178562   5.498   6.500   1.212 -0.1603  0.0705 -0.4920
19049TIP3    H278563   5.557   6.596   1.314  0.7348 -0.4649 -0.4945
19050TIP3   OH278564   6.654   4.007  17.546  0.3179 -0.3659 -0.1937
19050TIP3    H178565   6.633   3.998  17.640  0.3959 -2.0498 -0.3060
19050TIP3    H278566   6.639   3.920  17.510  3.8619 -0.7746 -1.0295
19051TIP3   OH278567   0.286   1.822   4.565  0.0020 -0.0190  0.5136
19051TIP3    H178568   0.264   1.740   4.610 -2.3019  0.2600  0.0270
19051TIP3    H278569   0.203   1.852   4.528  0.3829  3.3480  1.9555
19052TIP3   OH278570   6.429   4.071   5.694  0.5448  0.5695 -0.2911
19052TIP3    H178571   6.429   3.979   5.718  1.7306  0.9893  1.5360
19052TIP3    H278572   6.412   4.072   5.600  0.0812 -1.4680 -0.2599
19053TIP3   OH278573   5.310   2.603   6.156 -0.1973  0.9446 -0.1623
19053TIP3    H178574   5.305   2.600   6.060  1.2413  1.0669 -0.2573
19053TIP3    H278575   5.288   2.514   6.184 -0.5985  0.9037 -0.6025
19054TIP3   OH278576   3.166   2.670  13.535  0.6776 -0.4383 -0.0520
19054TIP3    H178577   3.257   2.652  13.560  0.3614 -1.0348  0.7142
19054TIP3    H278578   3.130   2.717  13.611  0.6314  0.7594 -0.7857
19055TIP3   OH278579   5.038   3.741  12.619 -0.0727 -0.9405  0.1196
19055TIP3    H178580   4.965   3.802  12.632  0.3207  0.0521 -1.8143
19055TIP3    H278581   5.002   3.673  12.561  0.0917 -1.3473  0.4939
19056TIP3   OH278582   4.696   1.423   0.734 -0.1829 -0.3438 -0.1532
19056TIP3    H178583   4.773   1.366   0.739 -0.8486 -1.3166 -0.7205
19056TIP3    H278584   4.638   1.381   0.671 -0.7048  0.9694 -0.5887
19057TIP3   OH278585   5.975   0.557  11.922 -0.5365  0.1880  0.0598
19057TIP3    H178586   5.953   0.548  11.829  0.8540 -1.0275 -0.1876
19057TIP3    H278587   5.980   0.652  11.936  1.8992  0.4615 -1.8264
19058TIP3   OH278588   3.145   6.440  13.450  0.0422  0.2186  0.3308
19058TIP3    H178589   3.199   6.519  13.456  1.0765 -0.4725  0.3427
19058TIP3    H278590   3.150   6.400  13.537 -0.1793 -0.0542  0.2205
19059TIP3   OH278591   0.361   3.142   0.483  0.3599  0.5161  0.0211
19059TIP3    H178592   0.297   3.111   0.547  1.5339  0.2554  1.1130
19059TIP3    H278593   0.353   3.080   0.410  1.8419 -1.7743  1.6635
19060TIP3   OH278594   5.758   5.938   3.588 -0.1950  0.5001  0.1845
19060TIP3    H178595   5.700   6.013   3.573  0.2649  0.4498 -2.2145
19060TIP3    H278596   5.838   5.959   3.540  0.9189 -0.4781  1.4984
19061TIP3   OH278597   5.215   3.789  10.640 -0.2560  0.4125  0.1192
19061TIP3    H178598   5.212   3.698  10.608  0.5056  1.0490 -1.9442
19061TIP3    H278599   5.166   3.839  10.574  1.6489  1.8508 -0.3029
19062TIP3   OH278600   0.305   5.887   3.162  0.1225  0.7063  0.0308
19062TIP3    H178601   0.218   5.860   3.191  1.4194 -1.0824  2.6394
19062TIP3    H278602   0.292   5.917   3.072 -2.9719 -0.5010 -0.0423
19063TIP3   OH278603   5.651   1.598  15.350  0.1619 -0.0923 -0.3446
19063TIP3    H178604   5.595   1.547  15.408  0.1943  0.2414 -0.0187
19063TIP3    H278605   5.618   1.687  15.356 -0.4843 -0.2250 -1.6257
19064TIP3   OH278606   3.836   4.377  16.919  0.4900 -0.2124 -0.2060
19064TIP3    H178607   3.883   4.460  16.918  1.1183 -0.5566  0.0137
19064TIP3    H278608   3.751   4.397  16.957  1.0085  0.1393  0.7922
19065TIP3   OH278609   6.222   0.790  16.118  0.0872  1.0823  0.6679
19065TIP3    H178610   6.254   0.739  16.043 -0.5037 -1.4065  1.9804
19065TIP3    H278611   6.302   0.814  16.166  0.4361  2.2768 -0.4611
19066TIP3   OH278612   2.060   2.635   0.215 -0.9288 -0.0585  0.3375
19066TIP3    H178613   1.986   2.588   0.177 -0.6075 -0.8965  0.7020
19066TIP3    H278614   2.025   2.721   0.239 -1.5148 -0.0800 -0.4234
19067TIP3   OH278615   5.612   2.373   0.280 -0.4006 -0.9000 -0.0341
19067TIP3    H178616   5.585   2.366   0.371  1.0110 -2.9605  0.2849
19067TIP3    H278617   5.673   2.447   0.278 -0.6530 -0.6727  0.6172
19068TIP3   OH278618   4.520   6.136   4.812  0.3144 -0.3786  0.0298
19068TIP3    H178619   4.441   6.156   4.862  0.4945 -0.6333  0.4192
19068TIP3    H278620   4.546   6.049   4.841  0.2177 -0.6938 -0.7814
19069TIP3   OH278621   3.892   0.022  11.711  0.3005 -0.1019 -0.5988
19069TIP3    H178622   3.873  -0.062  11.754 -0.7181  0.0750 -0.6723
19069TIP3    H278623   3.836   0.023  11.634  0.4966  0.5355 -0.7391
19070TIP3   OH278624   2.325   2.436  16.534 -0.2135  0.3461  0.8019
19070TIP3    H178625   2.368   2.439  16.449 -0.7569  0.5894  0.5282
19070TIP3    H278626   2.286   2.523  16.545  2.3255  1.3561  2.6328
19071TIP3   OH278627   6.004   6.263   0.109  0.1685  0.7326 -0.0205
19071TIP3    H178628   5.941   6.274   0.038  0.7766  1.2342 -0.4933
19071TIP3    H278629   6.084   6.233   0.066 -0.2312 -1.6773  0.7666
19072TIP3   OH278630   3.570   2.747  12.273 -0.0095  0.3776  0.2038
19072TIP3    H178631   3.558   2.764  12.180 -1.9312  3.1173  0.8228
19072TIP3    H278632   3.664   2.731  12.283  0.1848 -0.3825 -2.2155
19073TIP3   OH278633   4.015   2.023   5.966  0.0009 -0.1366 -0.1324
19073TIP3    H178634   3.999   1.938   5.925  1.5763 -0.3533 -0.3590
19073TIP3    H278635   4.086   2.007   6.028 -0.5158  0.7710  0.7294
19074TIP3   OH278636   0.077   1.489  17.100  0.3217  0.0894 -0.5098
19074TIP3    H178637   0.002   1.455  17.149  2.2306 -2.7758  0.6392
19074TIP3    H278638   0.135   1.525  17.167  0.5512  1.1831 -1.2702
19075TIP3   OH278639   1.589   3.684   5.841 -0.2594 -0.3879  0.0258
19075TIP3    H178640   1.514   3.697   5.898 -0.0520  0.1240  0.1894
19075TIP3    H278641   1.573   3.742   5.766  0.9098  1.2489  0.9917
19076TIP3   OH278642   4.309   4.177  13.875 -0.3523 -0.6367 -0.1808
19076TIP3    H178643   4.383   4.209  13.824 -2.5535  0.5088 -2.8954
19076TIP3    H278644   4.310   4.230  13.955  0.0540  1.4711 -1.5265
19077TIP3   OH278645   5.047   2.350   3.348  0.2070 -0.5782 -0.0995
19077TIP3    H178646   5.104   2.285   3.390  0.4359 -0.0585  0.3985
19077TIP3    H278647   5.103   2.394   3.285 -0.2523 -1.6858 -1.3484
19078TIP3   OH278648   1.389   3.723   6.020  0.0701  0.1036 -0.1405
19078TIP3    H178649   1.373   3.813   6.048  2.4898  0.3193  0.8200
19078TIP3    H278650   1.373   3.671   6.099 -0.2933 -0.1844 -0.4017
19079TIP3   OH278651   0.250   6.189  15.093 -0.2477 -0.0215 -0.2146
19079TIP3    H178652   0.242   6.165  15.000  1.8561 -0.3191 -0.3680
19079TIP3    H278653   0.316   6.259  15.094 -0.6292  0.3327  1.0104
19080TIP3   OH278654   3.459   4.258  15.624  0.1695 -0.2924  0.1089
19080TIP3    H178655   3.497   4.337  15.664  2.3137 -1.6515  0.9163
19080TIP3    H278656   3.498   4.255  15.536 -2.4939  1.2632 -1.2253
19081TIP3   OH278657   2.875   2.444   0.736 -0.1484 -0.2284  0.0985
19081TIP3    H178658   2.958   2.488   0.717 -0.3895  0.2885  0.2181
19081TIP3    H278659   2.855   2.468   0.826  0.1445 -1.3013  0.4567
19082TIP3   OH278660   3.931   5.307  13.778  0.3111 -0.5530 -0.1695
19082TIP3    H178661   3.886   5.389  13.799  1.8191  0.2657  0.0417
19082TIP3    H278662   3.864   5.253  13.736 -1.1969  0.0686  1.3277
19083TIP3   OH278663   0.919   1.896  17.100  0.4523 -0.4709  0.0648
19083TIP3    H178664   0.870   1.885  17.181  3.0149 -0.3226  1.7386
19083TIP3    H278665   0.892   1.981  17.066 -0.2547 -0.2975  1.0364
19084TIP3   OH278666   3.533   2.244  15.638 -0.3016 -0.2121  0.2942
19084TIP3    H178667   3.558   2.226  15.728  1.2074 -1.3996 -0.3261
19084TIP3    H278668   3.457   2.302  15.645  0.5099  0.6789  2.3105
19085TIP3   OH278669   1.004   6.557   0.208  0.2129 -0.2720 -0.3127
19085TIP3    H178670   0.991   6.598   0.293 -0.4573  1.4100 -1.1755
19085TIP3    H278671   0.928   6.500   0.198  0.2942 -0.4772  0.2157
19086TIP3   OH278672   2.744   6.445   4.262  0.3184 -0.1133  0.5238
19086TIP3    H178673   2.832   6.433   4.295  1.1048  0.9333 -1.0538
19086TIP3    H278674   2.722   6.536   4.283 -1.2803 -0.9364  2.7965
19087TIP3   OH278675   3.455   0.342  12.768 -0.4432 -0.1273  0.3027
19087TIP3    H178676   3.458   0.438  12.763  0.0087 -0.1326  0.4357
19087TIP3    H278677   3.369   0.323  12.806 -0.7450  0.2028 -0.2032
19088TIP3   OH278678   3.049   6.607  11.699 -0.7966 -0.5712 -0.0658
19088TIP3    H178679   3.068   6.695  11.732 -1.9611 -0.4037  0.1982
19088TIP3    H278680   3.113   6.551  11.741 -0.8267 -0.0262  0.7195
19089TIP3   OH278681   5.521   1.243  17.050  0.4803  0.0318  0.2481
19089TIP3    H178682   5.476   1.241  16.965  0.9274 -0.1102  0.0134
19089TIP3    H278683   5.544   1.335  17.062  2.6483 -0.2990 -0.9805
19090TIP3   OH278684   0.900   3.730   2.026 -0.4154  0.3929  0.4258
19090TIP3    H178685   0.808   3.752   2.011 -0.7933 -0.3648  1.5519
19090TIP3    H278686   0.948   3.789   1.967 -1.6637 -0.3083 -1.3720
19091TIP3   OH278687   1.746   4.578   4.865 -0.2442  0.4739 -0.3045
19091TIP3    H178688   1.836   4.594   4.894  0.2235 -0.4684 -1.1488
19091TIP3    H278689   1.692   4.624   4.928  0.7435 -0.7791  1.5343
19092TIP3   OH278690   1.644   0.201   0.019 -0.3647 -0.3299  0.0999
19092TIP3    H178691   1.712   0.213   0.086  0.0095 -0.2357 -0.2920
19092TIP3    H278692   1.562   0.221   0.064 -0.0819  0.0967  0.4389
19093TIP3   OH278693   0.546   2.745  12.057  0.1671 -0.3987  0.1183
19093TIP3    H178694   0.503   2.727  11.973 -0.4261 -0.7679  0.4977
19093TIP3    H278695   0.547   2.661  12.102  2.2488 -0.6534 -0.3028
19094TIP3   OH278696   0.829   5.761  15.078 -0.0492  0.1486 -0.0308
19094TIP3    H178697   0.913   5.742  15.036 -0.7693 -0.8495 -1.0958
19094TIP3    H278698   0.797   5.839  15.032  0.0242  0.1748 -0.0383
19095TIP3   OH278699   6.338   5.456   2.418 -0.2112 -0.1994 -0.2028
19095TIP3    H178700   6.414   5.496   2.458 -0.2892  1.1370 -1.3161
19095TIP3    H278701   6.265   5.513   2.441 -1.0882 -1.9053  1.5568
19096TIP3   OH278702   4.312   1.882  14.293 -0.2153 -0.2121 -0.2456
19096TIP3    H178703   4.338   1.816  14.228 -1.8038 -0.9937 -0.1364
19096TIP3    H278704   4.319   1.965  14.248  0.9220 -0.5316 -0.6884
19097TIP3   OH278705   0.437   5.407  13.987  0.0684 -0.1065 -0.0640
19097TIP3    H178706   0.417   5.428  14.078  0.3224 -3.0815  0.7901
19097TIP3    H278707   0.356   5.427  13.940 -0.4582  0.4103  1.0189
19098TIP3   OH278708   3.746   0.536   5.367 -0.8888 -0.0741  0.4149
19098TIP3    H178709   3.769   0.590   5.443 -2.4065  1.7101 -0.3073
19098TIP3    H278710   3.741   0.447   5.402 -1.8135  0.7156  2.4962
19099TIP3   OH278711   3.531   6.626   2.254  0.4789  0.2298  0.5379
19099TIP3    H178712   3.620   6.597   2.236  0.4654  0.6823 -0.3366
19099TIP3    H278713   3.542   6.716   2.285  0.2220  1.1463 -1.8060
19100TIP3   OH278714   0.055   2.122  13.531  0.7134 -0.5948  0.2487
19100TIP3    H178715   0.131   2.091  13.481  1.0353 -0.6199  0.7515
19100TIP3    H278716   0.042   2.211  13.501  0.3183 -0.9207 -0.5754
19101TIP3   OH278717   2.424   5.138   4.973  0.7646 -0.5556 -0.6968
19101TIP3    H178718   2.422   5.234   4.981  2.9468 -0.3530 -1.7471
19101TIP3    H278719   2.347   5.117   4.919 -1.5442  0.1941  2.0620
19102TIP3   OH278720   3.241   3.156  16.973 -0.5910 -0.0425 -0.7093
19102TIP3    H178721   3.283   3.073  16.954  0.1132 -0.1159  0.9991
19102TIP3    H278722   3.149   3.142  16.952 -0.2446 -0.7724 -1.8105
19103TIP3   OH278723   3.932   2.566   2.893  0.0882 -0.6747 -0.3196
19103TIP3    H178724   3.841   2.596   2.888  0.3710  0.5337  0.9813
19103TIP3    H278725   3.928   2.486   2.945 -0.3008 -1.0598 -0.9260
19104TIP3   OH278726   2.208   2.129   0.108  0.2987 -0.0487 -0.1978
19104TIP3    H178727   2.246   2.216   0.096 -1.5676  0.7110 -0.8978
19104TIP3    H278728   2.248   2.077   0.038  1.4600  0.2107  0.2496
19105TIP3   OH278729   2.562   2.723  13.411  0.2105 -0.1276 -0.4380
19105TIP3    H178730   2.540   2.800  13.463  0.1544  0.1665 -0.8838
19105TIP3    H278731   2.651   2.699  13.438  0.7105  0.8443 -1.1725
19106TIP3   OH278732   5.200   2.262  15.093  0.1928 -0.0136 -0.1037
19106TIP3    H178733   5.180   2.355  15.086 -1.9543 -0.5320 -1.7710
19106TIP3    H278734   5.137   2.229  15.158  0.7346 -0.3858  0.2449
19107TIP3   OH278735   4.076   0.196  17.327  0.1539 -0.9535  0.1351
19107TIP3    H178736   4.154   0.249  17.310  0.0506 -0.6307  0.6371
19107TIP3    H278737   4.003   0.258  17.318 -0.1566 -1.5175 -1.5747
19108TIP3   OH278738   5.892   0.759   1.930  0.4446 -0.0892 -0.1003
19108TIP3    H178739   5.943   0.806   1.865 -0.4989  0.4648 -0.4492
19108TIP3    H278740   5.898   0.813   2.009  2.2097 -1.1268  0.5498
19109TIP3   OH278741   6.340   5.168   2.995 -0.6953  0.3921 -0.4176
19109TIP3    H178742   6.314   5.099   2.934  2.1092 -1.5075  0.3146
19109TIP3    H278743   6.297   5.144   3.077  1.3888 -1.4808  0.2272
19110TIP3   OH278744   6.060   6.089  16.288 -0.5944 -0.6071  0.2163
19110TIP3    H178745   6.011   6.154  16.338 -1.1664  0.0320 -1.1127
19110TIP3    H278746   6.150   6.098  16.317 -0.7003  0.6491  0.1977
19111TIP3   OH278747   3.059   1.679  13.732 -0.5970 -0.6446 -0.1601
19111TIP3    H178748   3.053   1.691  13.638  1.6812 -1.2002 -0.4346
19111TIP3    H278749   3.146   1.641  13.746  1.0524  3.3810  2.4924
19112TIP3   OH278750   0.342   5.011   1.191  0.6759 -0.4402  0.5754
19112TIP3    H178751   0.282   5.061   1.246  0.7603 -0.4831  0.7075
19112TIP3    H278752   0.289   4.940   1.155  0.5879 -0.3318  0.4920
19113TIP3   OH278753   1.484   4.440  15.934 -0.6161  0.3679  0.1692
19113TIP3    H178754   1.393   4.434  15.907 -0.5152  1.4376 -0.4650
19113TIP3    H278755   1.529   4.480  15.860  0.4582 -0.5211  0.3053
19114TIP3   OH278756   5.070   2.041  12.848  0.1853  0.2288  0.0945
19114TIP3    H178757   5.130   2.091  12.904  4.2212 -2.5115 -1.2557
19114TIP3    H278758   5.055   1.959  12.896 -1.1218  0.1714 -0.3744
19115TIP3   OH278759   0.612   6.641  17.520  0.3230  0.2263 -0.3839
19115TIP3    H178760   0.646   6.606  17.437 -0.5548  1.1931 -1.1695
19115TIP3    H278761   0.672   6.712  17.542  0.3781  0.1663 -0.3375
19116TIP3   OH278762   5.818   4.174   3.351 -0.8460 -0.0043  0.1178
19116TIP3    H178763   5.752   4.241   3.371 -1.8705 -1.2201  0.9655
19116TIP3    H278764   5.878   4.178   3.426 -0.4970  0.4296 -0.1772
19117TIP3   OH278765   0.459   5.663   5.202  0.1230 -0.0060  0.3278
19117TIP3    H178766   0.380   5.610   5.196 -0.2518  0.5537  0.2752
19117TIP3    H278767   0.496   5.643   5.288 -0.5460  0.3809  0.7089
19118TIP3   OH278768   3.582   4.060   2.648  0.2322 -0.0118 -0.1173
19118TIP3    H178769   3.631   4.066   2.567  0.3939  1.5103  0.0623
19118TIP3    H278770   3.648   4.071   2.717 -0.1602  0.7368  0.1544
19119TIP3   OH278771   1.313   5.342   3.983 -0.1208  0.0462 -0.1849
19119TIP3    H178772   1.266   5.332   3.901  0.1161 -2.8332 -0.0825
19119TIP3    H278773   1.380   5.408   3.965 -0.4194 -0.1223 -2.1313
19120TIP3   OH278774   5.396   2.950  11.339 -0.1772  0.0230  0.4756
19120TIP3    H178775   5.396   2.989  11.426  1.0897 -0.2161  0.5958
19120TIP3    H278776   5.465   2.884  11.342  0.8778  0.9905 -1.1370
19121TIP3   OH278777   4.206   1.947  12.753  0.2449 -0.6817 -0.6713
19121TIP3    H178778   4.293   1.987  12.741  1.1804 -2.2015  0.6261
19121TIP3    H278779   4.195   1.892  12.675  1.0149 -1.3899 -0.3092
19122TIP3   OH278780   4.075   3.261   6.706  0.7907  0.2088 -0.1083
19122TIP3    H178781   4.160   3.237   6.743  0.2123 -0.8597  0.5717
19122TIP3    H278782   4.076   3.357   6.705  0.7869  0.3233  2.8249
19123TIP3   OH278783   5.056   1.731  11.887  0.4416  0.0404 -0.1836
19123TIP3    H178784   5.046   1.819  11.923  0.2968  0.1795 -0.5554
19123TIP3    H278785   4.971   1.711  11.849  0.4230 -0.3312  0.0496
19124TIP3   OH278786   1.823   5.612   4.945  0.1978  0.3311 -0.5438
19124TIP3    H178787   1.754   5.656   4.994 -1.5591 -1.9042 -0.8645
19124TIP3    H278788   1.802   5.631   4.853  0.5454  0.3803 -0.6134
19125TIP3   OH278789   3.401   4.328  14.092  0.4895 -0.2246 -0.2676
19125TIP3    H178790   3.362   4.416  14.086 -0.8317 -0.8290 -1.3028
19125TIP3    H278791   3.492   4.340  14.066  0.3094  0.8378 -0.4477
19126TIP3   OH278792   4.215   3.400   1.081 -0.0253 -0.5357  0.0997
19126TIP3    H178793   4.264   3.480   1.099 -1.0784  0.6956 -2.0682
19126TIP3    H278794   4.266   3.354   1.014 -1.1596  0.1615 -1.2938
19127TIP3   OH278795   1.766   0.864  13.667 -0.3360  0.3346  0.1292
19127TIP3    H178796   1.770   0.774  13.701  0.5012 -0.3035 -1.5182
19127TIP3    H278797   1.780   0.919  13.743  0.6026 -0.9946  0.9666
19128TIP3   OH278798   2.252   4.699  16.466  0.1644  0.3618  0.0865
19128TIP3    H178799   2.178   4.686  16.407 -1.5171  0.7634  1.9507
19128TIP3    H278800   2.296   4.614  16.469 -1.4243 -0.4950  0.4030
19129TIP3   OH278801   3.441   1.930  16.408 -0.0088  0.6535  0.0729
19129TIP3    H178802   3.409   1.929  16.318  1.0099  1.3025 -0.3020
19129TIP3    H278803   3.518   1.875  16.407  0.0525  0.7266  0.5359
19130TIP3   OH278804   5.614   2.977  12.794  0.1735 -0.3259  0.3348
19130TIP3    H178805   5.630   3.013  12.881 -0.9961  1.2905 -0.0771
19130TIP3    H278806   5.607   3.053  12.737 -1.5555 -1.2179 -0.7391
19131TIP3   OH278807   2.591   0.177   0.998  0.1291 -0.1482  0.3117
19131TIP3    H178808   2.547   0.261   1.005  1.2941  0.5468 -0.4145
19131TIP3    H278809   2.622   0.158   1.087  2.6917  1.8182 -0.0220
19132TIP3   OH278810   1.504   6.251  13.048  0.2905 -0.2782 -0.0086
19132TIP3    H178811   1.594   6.268  13.021  0.7292 -2.2997 -0.0178
19132TIP3    H278812   1.471   6.189  12.983 -0.7944 -0.3017  0.5362
19133TIP3   OH278813   0.233   5.136  12.285 -0.3247  0.5206 -0.1539
19133TIP3    H178814   0.262   5.150  12.375 -3.0404  0.2124  0.8347
19133TIP3    H278815   0.213   5.224  12.252  0.8781  0.6576 -0.5973
19134TIP3   OH278816   3.583   4.911   3.775  0.2952  1.1040 -0.6277
19134TIP3    H178817   3.501   4.915   3.824  0.5568  0.2950 -0.1052
19134TIP3    H278818   3.609   5.003   3.765 -0.4433  1.3465 -0.4169
19135TIP3   OH278819   2.540   6.593  12.713 -0.0534  0.8669 -0.1587
19135TIP3    H178820   2.588   6.652  12.656  1.4545  1.3115  1.4974
19135TIP3    H278821   2.605   6.528  12.741 -1.0824 -0.1264  0.0174
19136TIP3   OH278822   6.320   0.032   3.253  0.6293 -0.1732  0.4517
19136TIP3    H178823   6.333  -0.058   3.281 -1.4726 -0.2411  1.3618
19136TIP3    H278824   6.347   0.085   3.328  0.5822 -0.0926  0.4116
19137TIP3   OH278825   2.605   4.066  12.507  0.2854 -0.3094 -0.0224
19137TIP3    H178826   2.580   4.158  12.494  0.4508 -0.2997 -0.2678
19137TIP3    H278827   2.560   4.041  12.588 -0.2008 -0.1709 -0.2438
19138TIP3   OH278828   6.186   2.081   1.614  0.2268  0.3090 -0.4666
19138TIP3    H178829   6.150   2.052   1.697  1.8641  0.9294  0.5129
19138TIP3    H278830   6.131   2.155   1.588  1.1448  1.7054  1.3524
19139TIP3   OH278831   5.476   2.961   0.465 -0.6693 -0.2507  0.4866
19139TIP3    H178832   5.506   3.050   0.482  1.1053 -0.5463 -0.8331
19139TIP3    H278833   5.538   2.905   0.512  0.3794 -0.8497 -1.5126
19140TIP3   OH278834   5.306   6.478  11.522 -0.3365  0.1592  0.2522
19140TIP3    H178835   5.398   6.487  11.498 -0.5168 -1.1276 -1.0969
19140TIP3    H278836   5.275   6.402  11.472 -2.1252  0.5454  0.6812
19141TIP3   OH278837   4.942   5.553  12.318 -0.3327 -0.4492 -0.3249
19141TIP3    H178838   4.910   5.582  12.403  0.1121  2.2452 -0.9956
19141TIP3    H278839   4.878   5.586  12.255  2.1303  2.6323 -1.4493
19142TIP3   OH278840   1.274   2.545   3.309  0.0033 -0.4124 -0.4349
19142TIP3    H178841   1.220   2.466   3.310 -2.1751  1.0008 -0.2884
19142TIP3    H278842   1.340   2.530   3.377 -0.4711 -2.0069 -0.2873
19143TIP3   OH278843   0.750   6.138  13.284  0.7206 -0.1151 -0.2805
19143TIP3    H178844   0.708   6.053  13.273 -0.0542  0.4797 -2.7717
19143TIP3    H278845   0.677   6.201  13.284  1.2638  0.5785  1.6146
19144TIP3   OH278846   3.628   2.947  13.726 -0.4133  0.6681 -0.1502
19144TIP3    H178847   3.641   2.920  13.635 -2.6455 -1.3462  0.0372
19144TIP3    H278848   3.576   3.027  13.720 -0.1365  0.8162 -0.6418
19145TIP3   OH278849   0.409   6.471  11.191 -0.0090  0.2770  0.4470
19145TIP3    H178850   0.463   6.548  11.207 -0.1192  0.6836 -1.0204
19145TIP3    H278851   0.355   6.462  11.270  0.8936  0.9427  1.1504
19146TIP3   OH278852   6.346   3.875  13.795 -0.1596  0.6022  0.0423
19146TIP3    H178853   6.426   3.868  13.846 -0.7344 -0.8076  0.7959
19146TIP3    H278854   6.344   3.796  13.741 -1.3792  0.2621  0.5479
19147TIP3   OH278855   4.315   4.306   1.207 -0.0536 -0.1507 -0.3560
19147TIP3    H178856   4.382   4.273   1.266 -2.2387 -1.3721  1.5874
19147TIP3    H278857   4.312   4.401   1.224  2.0727  0.1990 -1.5492
19148TIP3   OH278858   0.787   2.122   3.672 -0.2405 -0.6555  0.7312
19148TIP3    H178859   0.717   2.059   3.691 -2.4958  1.6151  0.5313
19148TIP3    H278860   0.814   2.101   3.583 -1.0483 -1.2899  0.6236
19149TIP3   OH278861   1.898   2.797   3.322 -0.1512 -0.7835 -0.4870
19149TIP3    H178862   1.927   2.856   3.253 -0.1196 -1.7177 -1.2993
19149TIP3    H278863   1.819   2.755   3.287  0.5552 -2.1842 -0.4922
19150TIP3   OH278864   0.747   6.007   0.562  0.2632  0.4489  0.3953
19150TIP3    H178865   0.814   6.004   0.494  0.9229  2.3066  0.9034
19150TIP3    H278866   0.779   5.948   0.630  0.0822 -0.6600 -0.4521
19151TIP3   OH278867   4.362   1.845  15.361 -0.6531  0.6409  0.0654
19151TIP3    H178868   4.335   1.754  15.362  0.1694  0.3861  0.3763
19151TIP3    H278869   4.328   1.882  15.443  1.2485 -0.1013  1.2670
19152TIP3   OH278870   1.487   4.235   3.357 -0.4796  0.1545  0.0078
19152TIP3    H178871   1.554   4.180   3.317  0.9878  2.5240 -1.0013
19152TIP3    H278872   1.526   4.266   3.439 -2.0556 -1.7531  1.5752
19153TIP3   OH278873   6.199   6.358  12.602  1.0849  1.2867 -0.0817
19153TIP3    H178874   6.162   6.427  12.656 -0.2302  0.6841 -0.1802
19153TIP3    H278875   6.200   6.281  12.659 -1.4569  0.3236 -1.1783
19154TIP3   OH278876   5.193   4.008  12.888 -0.0856  0.3801 -0.5786
19154TIP3    H178877   5.241   3.928  12.910 -0.5013  0.3673  0.3341
19154TIP3    H278878   5.226   4.032  12.802  0.3860 -0.5169 -0.6674
19155TIP3   OH278879   5.976   2.321   1.800 -0.3770 -0.3939 -0.3481
19155TIP3    H178880   5.982   2.386   1.870  1.1408 -0.3625 -0.4837
19155TIP3    H278881   5.883   2.322   1.775 -0.5431  1.1375  0.2017
19156TIP3   OH278882   2.562   4.426   6.320 -0.8627  0.5417  0.5006
19156TIP3    H178883   2.480   4.468   6.345 -0.7606  0.1583  1.5520
19156TIP3    H278884   2.608   4.412   6.403 -0.3925 -0.5813  0.0779
19157TIP3   OH278885   1.494   5.251  13.673  0.3121  0.0331 -0.0750
19157TIP3    H178886   1.577   5.247  13.626 -0.0608 -0.1908 -0.7178
19157TIP3    H278887   1.455   5.335  13.648  0.9667  0.7894  1.3061
19158TIP3   OH278888   0.933   2.774   3.541 -0.0752 -0.3684  0.2167
19158TIP3    H178889   0.989   2.849   3.562  2.4977 -1.9537 -0.5637
19158TIP3    H278890   0.857   2.784   3.598  0.8212  2.0690  1.1203
19159TIP3   OH278891   1.174   0.273  14.238  0.4318  0.2818 -0.1061
19159TIP3    H178892   1.222   0.227  14.307 -0.6008 -0.4673  0.1283
19159TIP3    H278893   1.211   0.361  14.237 -0.2265  0.6274  2.1107
19160TIP3   OH278894   4.268   5.838  13.634 -0.1667  0.0593 -0.2547
19160TIP3    H178895   4.194   5.857  13.692  1.1534 -0.7493  1.8214
19160TIP3    H278896   4.272   5.913  13.574 -1.0804  1.3842  1.2569
19161TIP3   OH278897   0.328   0.737  17.627 -0.3274  0.0292  0.4963
19161TIP3    H178898   0.278   0.767  17.551  0.2734 -0.5205 -0.1229
19161TIP3    H278899   0.412   0.783  17.620  0.5469 -1.6243 -0.3777
19162TIP3   OH278900   3.394   1.814  15.916 -0.0720  0.0500 -0.0391
19162TIP3    H178901   3.468   1.852  15.961  0.2078  0.7377 -1.0305
19162TIP3    H278902   3.430   1.741  15.866 -0.0215  0.4946 -0.6619
19163TIP3   OH278903   0.991   6.010   2.807 -0.0479 -0.0358  0.0535
19163TIP3    H178904   0.989   5.977   2.717 -0.1823  0.7118 -0.2271
19163TIP3    H278905   1.084   6.011   2.830 -0.0916 -1.2349  0.3103
19164TIP3   OH278906   4.098   4.900  15.043 -0.2124  0.6641 -0.8029
19164TIP3    H178907   4.093   4.836  15.114 -2.7700  0.3193 -1.2103
19164TIP3    H278908   4.124   4.981  15.086 -0.6765  0.2166  0.3575
19165TIP3   OH278909   3.746   6.326  16.249  0.1690  0.0254 -0.3237
19165TIP3    H178910   3.723   6.269  16.322  0.8287  1.6601  1.2372
19165TIP3    H278911   3.824   6.374  16.279  0.4279  0.7916 -2.0748
19166TIP3   OH278912   1.009   4.568   0.393 -0.1955 -0.0906  0.1554
19166TIP3    H178913   0.999   4.517   0.473  1.1426  1.8483  1.6840
19166TIP3    H278914   1.084   4.625   0.411 -0.8689  1.5496 -1.8610
19167TIP3   OH278915   0.822   2.588   0.776  0.2598  0.1398 -0.0364
19167TIP3    H178916   0.810   2.523   0.707 -0.1040  0.5322 -0.3446
19167TIP3    H278917   0.734   2.606   0.808  0.2911  0.9374 -0.3730
19168TIP3   OH278918   4.419   0.636  14.084  0.6172 -0.4336 -0.3986
19168TIP3    H178919   4.447   0.656  13.995 -1.2099  1.5670 -0.6079
19168TIP3    H278920   4.392   0.721  14.120 -0.0056 -1.4172  1.5843
19169TIP3   OH278921   1.417   3.526   5.401 -0.5146 -0.2915  0.0485
19169TIP3    H178922   1.506   3.525   5.367 -0.0472  2.7389  0.9522
19169TIP3    H278923   1.369   3.583   5.341 -2.0342 -2.2521 -0.7002
19170TIP3   OH278924   4.415   4.531  11.967  0.5551  0.1876 -0.6830
19170TIP3    H178925   4.399   4.533  11.873  3.4981  1.1257 -1.2840
19170TIP3    H278926   4.349   4.472  12.002  0.4036 -1.5377 -3.5839
19171TIP3   OH278927   2.652   1.717  15.610  0.1584  0.4619 -0.0886
19171TIP3    H178928   2.700   1.790  15.649 -0.5310  1.1422 -0.4650
19171TIP3    H278929   2.719   1.652  15.589  1.1491  1.9331 -1.8604
19172TIP3   OH278930   0.180   1.029  12.484  0.1321  0.0087 -0.0423
19172TIP3    H178931   0.217   1.115  12.503  1.1565 -0.3012 -0.5897
19172TIP3    H278932   0.255   0.976  12.457 -0.4920 -1.0518  0.2551
19173TIP3   OH278933   3.385   0.038   4.761  1.2309 -0.1244  0.1161
19173TIP3    H178934   3.310   0.039   4.821  0.3467 -0.5724 -0.9475
19173TIP3    H278935   3.452   0.088   4.807 -0.0320  1.1085  0.6958
19174TIP3   OH278936   3.178   3.560   3.788  0.1560  0.3893  0.0755
19174TIP3    H178937   3.242   3.589   3.723 -0.2104  0.5019 -0.2411
19174TIP3    H278938   3.230   3.538   3.865  0.9053 -2.5123 -1.1624
19175TIP3   OH278939   2.299   1.817   4.711 -0.0235  0.5595 -0.0838
19175TIP3    H178940   2.280   1.744   4.770  1.6088 -0.1362 -0.3469
19175TIP3    H278941   2.240   1.887   4.738 -0.8559 -0.4887  0.9032
19176TIP3   OH278942   2.311   4.053   2.471 -0.2502  0.4280  0.6220
19176TIP3    H178943   2.389   4.088   2.514  0.4297 -0.9859  0.6092
19176TIP3    H278944   2.241   4.114   2.495  0.9075  1.9441  0.3407
19177TIP3   OH278945   1.317   2.731  16.637 -0.2595 -0.3314  0.0497
19177TIP3    H178946   1.348   2.706  16.550 -0.2960  0.0462 -0.0730
19177TIP3    H278947   1.235   2.682  16.648  0.1566 -1.0046  0.2024
19178TIP3   OH278948   4.289   4.143   0.414 -0.2237  0.5502  0.0941
19178TIP3    H178949   4.306   4.203   0.341  0.9625  0.3820  0.2053
19178TIP3    H278950   4.194   4.134   0.416 -0.3563  1.5640 -0.6194
19179TIP3   OH278951   1.563   5.863  12.801  0.0977  0.3968 -1.1811
19179TIP3    H178952   1.553   5.769  12.813  0.2750  0.5997  0.9853
19179TIP3    H278953   1.541   5.878  12.709 -0.1675 -1.7102 -1.5151
19180TIP3   OH278954   5.156   5.250  17.145 -0.6647  0.4708  0.0038
19180TIP3    H178955   5.164   5.289  17.232 -1.0800 -1.7229  1.1026
19180TIP3    H278956   5.221   5.296  17.091  0.2175  1.2747  1.6864
19181TIP3   OH278957   0.389   0.357  12.960 -0.1622  0.5347  0.3029
19181TIP3    H178958   0.399   0.373  13.053 -0.8670  1.2726  0.2631
19181TIP3    H278959   0.340   0.275  12.954  1.0519 -0.2318  0.5490
19182TIP3   OH278960   0.735   5.149   6.243  0.0759 -0.0366  0.6753
19182TIP3    H178961   0.687   5.067   6.241  0.2612 -0.1941  1.9164
19182TIP3    H278962   0.808   5.133   6.302  0.8037  0.6615 -0.0091
19183TIP3   OH278963   1.708   2.493   7.117 -0.0433 -0.0291 -0.2598
19183TIP3    H178964   1.631   2.447   7.083  0.9388 -0.2783 -2.3058
19183TIP3    H278965   1.761   2.424   7.156 -0.4274  0.0039  0.3294
19184TIP3   OH278966   1.128   5.802   4.508 -0.0871 -0.4991  0.3051
19184TIP3    H178967   1.041   5.812   4.469  0.6044  0.6676 -0.9695
19184TIP3    H278968   1.142   5.883   4.556  1.0035  0.0740 -0.9434
19185TIP3   OH278969   0.067   1.731  15.071 -0.1640 -0.4871  0.6478
19185TIP3    H178970   0.150   1.693  15.042  0.1478  0.0110  0.8533
19185TIP3    H278971   0.059   1.812  15.020  0.8014  0.8328  2.4426
19186TIP3   OH278972   3.908   3.975  13.946  0.1770  0.1257  0.8198
19186TIP3    H178973   3.999   3.946  13.952  0.4699  0.7820 -0.1306
19186TIP3    H278974   3.899   4.042  14.014 -0.1079 -1.1575  2.0828
19187TIP3   OH278975   2.116   2.106  12.795  0.2653 -0.1677  0.1449
19187TIP3    H178976   2.021   2.122  12.800  0.3909  0.7410 -0.1603
19187TIP3    H278977   2.131   2.035  12.857 -1.0831 -2.5683 -2.0481
19188TIP3   OH278978   6.709   1.167  15.804  0.2418 -0.0010 -0.3559
19188TIP3    H178979   6.758   1.151  15.723 -1.0004 -0.0717 -1.1123
19188TIP3    H278980   6.718   1.261  15.819 -0.6918  0.2620 -1.3635
19189TIP3   OH278981   2.941   5.510   2.494 -0.0426 -0.1636  0.3407
19189TIP3    H178982   3.024   5.515   2.448 -0.2106 -0.2852  0.0164
19189TIP3    H278983   2.899   5.595   2.478  1.1408  0.9412  2.7177
19190TIP3   OH278984   6.020   4.625  11.410  0.1209  0.1817  0.2296
19190TIP3    H178985   5.990   4.547  11.457  0.8028 -1.0036 -1.2480
19190TIP3    H278986   6.109   4.604  11.382  0.8519  2.0481  0.9795
19191TIP3   OH278987   0.865   2.089   6.167  0.2188 -0.0792  0.3193
19191TIP3    H178988   0.780   2.128   6.186  1.1127  0.7381  2.9998
19191TIP3    H278989   0.855   1.997   6.191 -0.6654 -0.7052 -2.1098
19192TIP3   OH278990   5.367   3.029  13.702 -0.7312  0.6251  0.3439
19192TIP3    H178991   5.353   3.010  13.609  1.6969 -0.4913  0.1198
19192TIP3    H278992   5.406   2.949  13.738 -0.3329  1.5030  2.0002
19193TIP3   OH278993   0.293   1.158   0.637 -0.2274 -0.7059 -0.0072
19193TIP3    H178994   0.307   1.117   0.722  1.0037  2.2993  1.3641
19193TIP3    H278995   0.220   1.218   0.651  0.6237  0.5349 -0.7836
19194TIP3   OH278996   5.289   5.180   3.472 -0.2476 -0.0351 -0.5834
19194TIP3    H178997   5.327   5.230   3.400 -0.2723  1.6702  0.5304
19194TIP3    H278998   5.357   5.116   3.494  0.1235  0.0178 -1.5360
19195TIP3   OH278999   6.428   0.443   0.058  0.6977 -0.3386 -0.0210
19195TIP3    H179000   6.368   0.517   0.055  0.0940 -0.8212 -0.1676
19195TIP3    H279001   6.443   0.421  -0.034  2.5339  0.8927 -0.0661
19196TIP3   OH279002   2.210   5.346  12.955 -0.5200 -0.3575 -0.2617
19196TIP3    H179003   2.190   5.371  12.865 -1.8852 -2.3113 -0.5733
19196TIP3    H279004   2.135   5.377  13.006  0.1192  0.5017  0.1600
19197TIP3   OH279005   6.323   6.006  12.090  0.1209 -0.1319 -0.1688
19197TIP3    H179006   6.299   5.930  12.142  0.4491 -1.0903 -1.3715
19197TIP3    H279007   6.241   6.055  12.079 -0.0499 -0.1806  0.7785
19198TIP3   OH279008   4.421   5.090   0.700 -0.0439 -0.2353  0.0775
19198TIP3    H179009   4.459   5.090   0.612  0.7034  0.0726  0.3939
19198TIP3    H279010   4.447   5.174   0.737 -1.8781  0.4288 -0.0436
19199TIP3   OH279011   2.468   3.634  17.334 -0.2678  0.0375  0.4864
19199TIP3    H179012   2.395   3.589  17.376 -0.1153 -2.9196 -2.0426
19199TIP3    H279013   2.546   3.584  17.359  0.3104  0.5240 -0.2674
19200TIP3   OH279014   4.088   1.237   4.765  0.2118  0.0874  0.0494
19200TIP3    H179015   4.144   1.199   4.833 -0.7110  0.0186  0.7808
19200TIP3    H279016   4.057   1.319   4.802 -1.3312 -0.5544  0.2636
19201TIP3   OH279017   2.785   6.327  17.432 -0.1891  0.4728  0.4780
19201TIP3    H179018   2.807   6.420  17.436 -1.5365  0.9087 -0.9568
19201TIP3    H279019   2.850   6.289  17.373  1.3416  0.1316  2.3017
19202TIP3   OH279020   4.735   0.198  13.081 -0.1245 -0.2786 -0.2571
19202TIP3    H179021   4.750   0.292  13.073 -0.3710 -0.3009 -1.1818
19202TIP3    H279022   4.810   0.165  13.129 -0.2431  0.4504  0.4417
19203TIP3   OH279023   6.405   1.319   4.685 -0.4247  0.3734  0.4522
19203TIP3    H179024   6.315   1.343   4.710 -0.3660  1.3434 -0.1934
19203TIP3    H279025   6.418   1.361   4.600  0.0209 -1.3028 -0.3427
19204TIP3   OH279026   2.567   0.975  16.074 -0.2300 -0.3757 -0.2613
19204TIP3    H179027   2.477   0.943  16.082 -0.2326 -0.0800  1.0608
19204TIP3    H279028   2.616   0.924  16.139  0.0981  1.0931  0.6684
19205TIP3   OH279029   3.841   0.409   4.541 -0.8254  0.1229 -0.1974
19205TIP3    H179030   3.911   0.473   4.555 -0.9942  0.1403  0.5883
19205TIP3    H279031   3.760   0.459   4.550 -0.9699 -0.2840  0.9636
19206TIP3   OH279032   1.346   2.901   0.382 -0.9687 -0.3339 -0.1972
19206TIP3    H179033   1.414   2.881   0.317 -2.0093 -0.0903 -1.3987
19206TIP3    H279034   1.327   2.994   0.368 -0.3747  0.0368  1.2881
19207TIP3   OH279035   2.149   1.117  17.038  0.9200  0.2518  0.3484
19207TIP3    H179036   2.078   1.090  17.096  1.0080  0.9885  0.8090
19207TIP3    H279037   2.106   1.163  16.966  0.7989 -0.7847 -0.2666
19208TIP3   OH279038   1.705   6.415   4.506 -0.3899  0.4701 -0.0544
19208TIP3    H179039   1.725   6.492   4.453  1.1780  0.4489  0.4608
19208TIP3    H279040   1.721   6.340   4.447 -0.3253  0.4945 -0.0679
19209TIP3   OH279041   2.962   0.688   4.875 -0.4134  0.7475  0.1969
19209TIP3    H179042   3.048   0.716   4.843  0.2771  0.4900  1.7764
19209TIP3    H279043   2.906   0.693   4.797  1.6782 -2.0559 -1.6943
19210TIP3   OH279044   2.434   6.065  15.759 -0.1689  0.0738  0.8681
19210TIP3    H179045   2.451   6.137  15.820 -0.4474  1.8544 -1.0054
19210TIP3    H279046   2.435   5.986  15.813  0.1763  1.4688  3.0321
19211TIP3   OH279047   2.779   3.612  16.557 -0.3328  0.0369 -0.1717
19211TIP3    H179048   2.724   3.535  16.543  3.2296 -2.8085  0.2189
19211TIP3    H279049   2.821   3.627  16.473  0.2565  0.5035  0.1969
19212TIP3   OH279050   2.866   4.425  17.045 -0.2562 -0.0182  0.6417
19212TIP3    H179051   2.831   4.363  17.110  0.7960 -1.9215 -0.4995
19212TIP3    H279052   2.791   4.447  16.990 -0.4197 -1.3740  0.2693
19213TIP3   OH279053   0.451   6.616  13.372  0.0545  0.4581 -0.4848
19213TIP3    H179054   0.377   6.676  13.383  0.4902  0.7161  1.3042
19213TIP3    H279055   0.503   6.627  13.452  0.8888 -1.2888 -0.7452
19214TIP3   OH279056   6.675   6.318  17.549  0.3289  0.5424  0.3636
19214TIP3    H179057   6.748   6.330  17.611 -0.0359  1.9066  0.5568
19214TIP3    H279058   6.612   6.264  17.597  1.1509 -0.6136  0.2132
19215TIP3   OH279059   0.596   6.555   0.307 -0.0418  0.2046 -0.2007
19215TIP3    H179060   0.622   6.639   0.345 -1.1445  1.1577 -1.4436
19215TIP3    H279061   0.651   6.546   0.229 -0.0682 -0.1377 -0.1821
19216TIP3   OH279062   4.343   3.522   0.458  0.1091  0.3184  0.7887
19216TIP3    H179063   4.342   3.488   0.369  0.3586  1.9463  0.1329
19216TIP3    H279064   4.266   3.483   0.500  1.1670 -2.1839  0.5780
19217TIP3   OH279065   4.030   0.647   4.469  0.1436  0.1401 -0.0123
19217TIP3    H179066   4.019   0.648   4.374  0.5902 -0.2737 -0.0669
19217TIP3    H279067   4.113   0.603   4.484  0.6647  1.2452  0.5212
19218TIP3   OH279068   0.100   4.499   0.166 -0.1962  0.0801 -0.2850
19218TIP3    H179069   0.126   4.517   0.256 -0.8638  0.3449 -0.1393
19218TIP3    H279070   0.090   4.404   0.161  2.1034 -0.2003 -0.7139
19219TIP3   OH279071   5.268   4.993  12.734 -0.5239 -0.2693  0.4084
19219TIP3    H179072   5.231   4.989  12.646  0.5075 -1.1156 -0.0007
19219TIP3    H279073   5.343   4.934  12.732  0.0780  0.4114  1.5888
19220TIP3   OH279074   1.714   0.080   1.077 -0.0912 -0.2011 -0.2105
19220TIP3    H179075   1.744   0.081   1.168 -1.2639 -1.6595  0.2323
19220TIP3    H279076   1.668  -0.004   1.068  0.2881 -0.2373 -2.2471
19221TIP3   OH279077   3.438   6.044   3.531 -0.3770 -0.4319  0.2159
19221TIP3    H179078   3.417   6.103   3.603 -0.7779 -1.6066  1.0870
19221TIP3    H279079   3.357   5.995   3.514  0.3097 -1.7152  0.4691
19222TIP3   OH279080   6.534   0.468   1.409 -0.4477  0.4049 -0.2916
19222TIP3    H179081   6.598   0.453   1.479  0.4119  0.8028 -0.9671
19222TIP3    H279082   6.473   0.395   1.415  0.3794 -0.2719  0.0421
19223TIP3   OH279083   1.421   1.432   7.088 -0.1027  0.8361  0.2385
19223TIP3    H179084   1.492   1.426   7.024 -1.0354 -0.8687 -0.7120
19223TIP3    H279085   1.351   1.478   7.041 -0.5035  0.2903  0.2903
19224TIP3   OH279086   0.533   2.600   1.114 -0.5639 -0.5484 -0.6106
19224TIP3    H179087   0.478   2.637   1.183  2.1808 -0.4837  1.7425
19224TIP3    H279088   0.564   2.675   1.064  0.3221 -0.1732  0.4555
19225TIP3   OH279089   0.329   5.721   6.708  0.1968 -0.2663  0.7512
19225TIP3    H179090   0.390   5.685   6.772  0.1954 -1.8903 -0.1025
19225TIP3    H279091   0.256   5.755   6.760  0.2061 -1.5172  1.6212
19226TIP3   OH279092   3.167   4.250   3.218 -0.5269  0.2082 -0.2959
19226TIP3    H179093   3.140   4.178   3.275  0.8095  0.0310  0.1607
19226TIP3    H279094   3.190   4.321   3.278 -0.8108  0.6433 -0.6963
19227TIP3   OH279095   4.583   6.533   6.681  0.1908 -0.2204  0.8433
19227TIP3    H179096   4.572   6.621   6.717  1.1819 -0.4043  1.6470
19227TIP3    H279097   4.495   6.495   6.682 -0.4412  1.1101 -0.5087
19228TIP3   OH279098   6.434   3.908   2.933 -0.2919 -0.4421 -0.2275
19228TIP3    H179099   6.354   3.872   2.895 -1.2762 -1.0238  2.2256
19228TIP3    H279100   6.418   3.910   3.027  2.1316  0.5880  0.2514
19229TIP3   OH279101   3.139   3.974   0.863  0.3337 -0.5583  0.8445
19229TIP3    H179102   3.052   3.936   0.876  0.8701 -1.0495  3.5492
19229TIP3    H279103   3.191   3.903   0.827  0.1108 -0.8808  1.1512
19230TIP3   OH279104   1.698   1.145  16.821  0.3406  0.3603 -0.0155
19230TIP3    H179105   1.713   1.063  16.774 -1.3964 -0.3058  0.4994
19230TIP3    H279106   1.647   1.199  16.761  2.4735  1.6027 -0.8127
19231TIP3   OH279107   0.960   5.987   0.381 -0.1124  0.3551 -0.1548
19231TIP3    H179108   0.976   5.973   0.288 -0.5001  0.3657 -0.2237
19231TIP3    H279109   1.048   5.996   0.419  0.0520  0.2334 -0.4975
19232TIP3   OH279110   3.854   3.179   2.968  0.3230 -0.1318 -0.8034
19232TIP3    H179111   3.925   3.148   3.024  2.2490  1.0266 -2.4500
19232TIP3    H279112   3.843   3.110   2.903 -0.0972 -0.3201 -0.5370
19233TIP3   OH279113   0.499   3.105  13.441  0.2102 -0.7474  0.1741
19233TIP3    H179114   0.591   3.094  13.417  0.1875 -0.0611 -0.2652
19233TIP3    H279115   0.483   3.199  13.435 -0.2757 -0.7485  1.1889
19234TIP3   OH279116   3.388   2.181   1.231 -0.2928  0.0179  0.1466
19234TIP3    H179117   3.421   2.267   1.254 -1.7571  0.7478 -0.3407
19234TIP3    H279118   3.394   2.177   1.135 -3.5752  1.1110 -0.2237
19235TIP3   OH279119   2.790   1.176   1.611 -0.2108  0.1767 -0.1257
19235TIP3    H179120   2.838   1.224   1.679 -0.1507 -0.4741  0.3048
19235TIP3    H279121   2.734   1.242   1.570  0.5234  0.7901 -0.1434
19236TIP3   OH279122   3.115   3.088  12.464 -0.3960  0.0160  0.4939
19236TIP3    H179123   3.106   3.107  12.371  1.6742  2.8004  0.7382
19236TIP3    H279124   3.059   3.153  12.507  1.3987  1.1775  1.2003
19237TIP3   OH279125   2.136   3.548   6.117  0.3123 -0.0028  0.3634
19237TIP3    H179126   2.063   3.489   6.136  0.4318  0.1532  1.3482
19237TIP3    H279127   2.210   3.509   6.163  0.3512  1.0068  1.1853
19238TIP3   OH279128   4.569   3.843  11.888  0.5503 -0.2785 -0.0178
19238TIP3    H179129   4.566   3.915  11.951 -1.2849 -1.2365  1.0892
19238TIP3    H279130   4.504   3.865  11.822  0.5833 -0.5069 -0.1290
19239TIP3   OH279131   0.848   4.244   1.517  0.5026 -0.0252 -0.2604
19239TIP3    H179132   0.923   4.185   1.521 -0.0542 -1.0415 -2.9386
19239TIP3    H279133   0.804   4.234   1.602  1.9926 -1.2771  0.4050
19240TIP3   OH279134   4.671   4.308  13.317  0.1534 -0.4337 -0.4155
19240TIP3    H179135   4.580   4.337  13.325  0.5783  0.9110 -0.2713
19240TIP3    H279136   4.669   4.243  13.247 -0.8855 -0.2683 -0.5600
19241TIP3   OH279137   4.618   3.517   3.953 -0.1874  0.2809 -0.2990
19241TIP3    H179138   4.608   3.581   4.024 -1.5659 -0.0083 -0.2157
19241TIP3    H279139   4.650   3.569   3.879  1.7643  0.5062  0.6261
19242TIP3   OH279140   1.829   3.638   3.272 -0.3613  0.7243 -0.3027
19242TIP3    H179141   1.901   3.600   3.222 -0.0834 -0.0920  0.6906
19242TIP3    H279142   1.776   3.683   3.206  0.8029  0.9635 -1.1108
19243TIP3   OH279143   3.683   5.550   1.746  0.5486 -0.3641  0.5942
19243TIP3    H179144   3.608   5.583   1.796 -0.5830 -2.5905  0.5156
19243TIP3    H279145   3.660   5.566   1.655  0.5928 -0.2408  0.6041
19244TIP3   OH279146   1.499   0.904  15.236 -0.0398  0.4549 -0.3199
19244TIP3    H179147   1.423   0.962  15.239  0.4633  1.1505 -0.8086
19244TIP3    H279148   1.570   0.958  15.201  0.8691  0.0150  0.7746
19245TIP3   OH279149   3.914   1.527  15.655 -0.2230  0.1465  0.4366
19245TIP3    H179150   3.825   1.544  15.625 -0.5098  0.2037  1.3039
19245TIP3    H279151   3.951   1.467  15.589 -1.9303 -2.3705  1.6058
19246TIP3   OH279152   4.896   0.231   2.939  0.2187 -0.3178  0.2906
19246TIP3    H179153   4.863   0.142   2.925  0.9125 -0.4778 -0.3947
19246TIP3    H279154   4.963   0.242   2.872 -0.8024  1.2248 -0.5118
19247TIP3   OH279155   3.905   3.357  14.746 -0.3824 -0.2292 -0.2191
19247TIP3    H179156   3.980   3.413  14.763 -1.1522  1.0771 -0.9187
19247TIP3    H279157   3.938   3.268  14.756  1.2442  0.3134 -0.5285
19248TIP3   OH279158   2.905   5.490   3.642  0.2165  0.0312 -0.0900
19248TIP3    H179159   2.813   5.482   3.616  0.4567 -0.0368 -0.9756
19248TIP3    H279160   2.907   5.468   3.735 -0.8561  1.3645  0.2723
19249TIP3   OH279161   4.368   0.745   4.164  0.1291 -0.3450 -0.5826
19249TIP3    H179162   4.426   0.766   4.090 -0.2996  0.5749 -0.6777
19249TIP3    H279163   4.286   0.720   4.123  0.2264 -0.9328 -0.4307
19250TIP3   OH279164   1.771   3.263  15.866 -0.1402 -0.8497 -0.0938
19250TIP3    H179165   1.733   3.321  15.932 -0.1476 -0.2804 -0.5904
19250TIP3    H279166   1.726   3.179  15.879 -2.5176  0.1026 -1.4556
19251TIP3   OH279167   3.510   2.242  14.612  0.3963  0.6158  0.0199
19251TIP3    H179168   3.513   2.334  14.640 -1.4655  1.3140 -1.7726
19251TIP3    H279169   3.417   2.218  14.622  0.1520  0.0898 -2.8087
19252TIP3   OH279170   3.305   4.444  10.539 -0.3748  0.0553  0.2463
19252TIP3    H179171   3.365   4.422  10.468 -0.1077  2.2288 -0.2557
19252TIP3    H279172   3.338   4.526  10.575 -1.3468 -0.2426  1.9447
19253TIP3   OH279173   5.038   0.688  16.833 -0.4812  0.2237 -0.2258
19253TIP3    H179174   4.951   0.671  16.868 -0.7200 -0.4069 -1.0982
19253TIP3    H279175   5.023   0.708  16.740  0.1919  1.2588 -0.1320
19254TIP3   OH279176   5.105   4.206   0.420 -0.2296  0.0661 -0.2916
19254TIP3    H179177   5.161   4.209   0.498  1.0683 -0.4519 -1.1660
19254TIP3    H279178   5.151   4.147   0.360 -2.1013 -0.9642 -0.7749
19255TIP3   OH279179   0.711   2.874  14.919 -0.0306 -0.1363 -0.5775
19255TIP3    H179180   0.628   2.920  14.935  0.2988  0.6686 -1.1305
19255TIP3    H279181   0.689   2.806  14.855 -0.5123 -0.7637  0.2185
19256TIP3   OH279182   6.252   0.083   5.194 -0.3058  0.0481  0.0928
19256TIP3    H179183   6.305   0.069   5.116  0.2672  1.7672  0.1276
19256TIP3    H279184   6.240  -0.004   5.231  0.6121 -0.6278 -1.1388
19257TIP3   OH279185   4.062   1.835   4.091 -0.2027  0.2563  0.1754
19257TIP3    H179186   4.128   1.798   4.149 -0.5810  0.1848  0.5620
19257TIP3    H279187   4.103   1.915   4.057  0.0567  0.2463  0.4583
19258TIP3   OH279188   0.090   1.345  13.455  0.3264 -0.0092  0.0558
19258TIP3    H179189   0.127   1.356  13.368 -0.9668 -0.9327 -0.6593
19258TIP3    H279190   0.133   1.267  13.490 -0.2268 -0.5339 -0.3969
19259TIP3   OH279191   6.642   4.515   4.657 -0.2341 -0.4074  0.0878
19259TIP3    H179192   6.708   4.490   4.592 -2.2821 -2.3977 -1.4001
19259TIP3    H279193   6.620   4.605   4.636 -0.9621 -1.0464 -2.2145
19260TIP3   OH279194   3.079   0.799  12.848  0.0266  0.1113  0.3260
19260TIP3    H179195   3.043   0.750  12.774 -1.3373  0.3605  0.7928
19260TIP3    H279196   3.040   0.758  12.925  2.0118 -0.6330  0.9933
19261TIP3   OH279197   3.069   2.232   2.346  0.0492 -0.1126 -0.2661
19261TIP3    H179198   3.009   2.282   2.289  0.3222 -0.1338 -0.5756
19261TIP3    H279199   3.081   2.288   2.423  0.8417  0.5899 -0.8793
19262TIP3   OH279200   0.301   6.195  11.148 -0.2129 -0.0916 -0.2447
19262TIP3    H179201   0.328   6.282  11.119 -1.1237 -0.2422 -1.6511
19262TIP3    H279202   0.381   6.157  11.185  0.0190  1.5884  1.1025
19263TIP3   OH279203   1.036   0.501   6.166  0.2010 -0.2485 -0.0836
19263TIP3    H179204   1.064   0.588   6.194 -1.9540  0.6926 -0.6204
19263TIP3    H279205   1.081   0.487   6.082  0.2702  0.5355 -0.1889
19264TIP3   OH279206   3.279   2.914  15.888 -0.3728 -0.2551 -0.3970
19264TIP3    H179207   3.227   2.988  15.856 -1.0345 -0.4901  0.1018
19264TIP3    H279208   3.216   2.860  15.936 -0.1502 -1.7125 -1.6606
19265TIP3   OH279209   2.506   4.795  11.458  0.1426 -0.1129 -0.1983
19265TIP3    H179210   2.540   4.706  11.469  0.2801 -0.4301 -2.5497
19265TIP3    H279211   2.536   4.820  11.370 -3.0836  0.7735 -1.1554
19266TIP3   OH279212   4.317   3.742   4.870  0.2839 -0.0771 -0.5922
19266TIP3    H179213   4.251   3.689   4.916  0.9707  0.7615  1.4736
19266TIP3    H279214   4.270   3.822   4.846  0.0276 -0.3572 -1.0639
19267TIP3   OH279215   5.878   4.018  15.755 -0.0916  0.7521  0.4357
19267TIP3    H179216   5.937   4.076  15.709 -0.4164  1.9526  1.4723
19267TIP3    H279217   5.820   4.076  15.804 -2.0678 -0.3795 -0.4500
19268TIP3   OH279218   4.852   1.013   4.818 -0.1339  1.0510 -0.0421
19268TIP3    H179219   4.764   0.980   4.800  0.1544  0.8184 -1.1024
19268TIP3    H279220   4.910   0.957   4.766  0.7471  0.5374  1.4232
19269TIP3   OH279221   2.870   3.996  15.810 -0.1264  0.5687 -0.1076
19269TIP3    H179222   2.785   3.985  15.767  1.0192 -1.9583 -1.9171
19269TIP3    H279223   2.922   4.045  15.747  0.3599  0.4050  0.1663
19270TIP3   OH279224   5.085   0.692  15.175  0.4871  0.0127  0.1079
19270TIP3    H179225   5.088   0.621  15.111  0.4757 -0.3755  0.5313
19270TIP3    H279226   5.142   0.662  15.246 -0.7659 -0.2892  1.0151
19271TIP3   OH279227   6.654   1.772  16.018 -0.0612  0.3120 -0.3291
19271TIP3    H179228   6.671   1.791  15.925 -1.0368 -0.2161 -0.6374
19271TIP3    H279229   6.575   1.717  16.016  0.8090 -1.0153  0.7324
19272TIP3   OH279230   2.455   6.556   3.881  0.5149  0.3226 -0.0389
19272TIP3    H179231   2.498   6.499   3.817  0.1077  0.1177 -0.1392
19272TIP3    H279232   2.526   6.594   3.932  0.7751 -0.7599  0.4349
19273TIP3   OH279233   3.190   1.000   3.661  0.1047  0.2573  0.0125
19273TIP3    H179234   3.163   0.909   3.648  0.0918 -0.2717  3.0056
19273TIP3    H279235   3.269   0.994   3.715  1.4628  2.0220 -1.6337
19274TIP3   OH279236   1.919   5.258   3.484  0.2177  0.4751 -0.2016
19274TIP3    H179237   1.998   5.270   3.431  0.7086 -0.7377  0.2067
19274TIP3    H279238   1.951   5.248   3.573 -0.1799 -1.8942 -0.2528
19275TIP3   OH279239   1.216   3.306  14.547 -0.3807 -0.3875  0.4027
19275TIP3    H179240   1.230   3.292  14.453 -0.1205  0.9317  0.2237
19275TIP3    H279241   1.185   3.221  14.579 -2.0088 -0.4560 -1.1536
19276TIP3   OH279242   6.211   0.536   4.258 -0.8559 -0.3379 -0.2557
19276TIP3    H179243   6.168   0.450   4.253 -2.4258  0.2989  1.3850
19276TIP3    H279244   6.277   0.526   4.326 -0.6600 -0.3787 -0.4486
19277TIP3   OH279245   1.292   4.761  16.955  0.1261 -0.5655  0.5970
19277TIP3    H179246   1.262   4.806  17.034 -1.6700  0.2014 -0.4524
19277TIP3    H279247   1.213   4.721  16.918  1.1630 -2.0972 -0.0872
19278TIP3   OH279248   2.388   0.374  13.324  0.2372 -0.0632 -0.1235
19278TIP3    H179249   2.462   0.433  13.337 -0.9927  1.3618  0.5910
19278TIP3    H279250   2.413   0.322  13.248  1.8034  0.6553 -0.1374
19279TIP3   OH279251   2.278   1.862  15.981  0.0881  0.1554  0.0973
19279TIP3    H179252   2.251   1.928  15.917  1.8528 -0.2045 -1.1124
19279TIP3    H279253   2.361   1.895  16.016  0.1318 -0.6090  0.7471
19280TIP3   OH279254   4.211   1.293   5.584 -0.2942 -0.0803  0.2312
19280TIP3    H179255   4.190   1.354   5.514 -0.1166  0.6520  0.7983
19280TIP3    H279256   4.306   1.300   5.594 -0.3096 -0.2346  0.4927
19281TIP3   OH279257   5.269   1.055  11.381 -0.2813 -0.2618  0.3018
19281TIP3    H179258   5.355   1.048  11.339 -0.2534  0.3884  0.2354
19281TIP3    H279259   5.235   1.140  11.353 -1.3861 -0.9297 -0.4920
19282TIP3   OH279260   4.146   4.977   2.187 -0.5342  0.5935  0.0522
19282TIP3    H179261   4.196   4.990   2.106  1.2683  1.2166  1.1943
19282TIP3    H279262   4.160   5.057   2.236 -0.8435 -0.1380  1.3690
19283TIP3   OH279263   6.254   5.013   3.224  0.3217  0.1486  0.3008
19283TIP3    H179264   6.220   4.937   3.176  0.5642  1.4358 -2.0272
19283TIP3    H279265   6.197   5.020   3.300 -0.1298 -1.9483  0.2209
19284TIP3   OH279266   2.397   1.843  15.654 -0.1088 -0.2678  0.2008
19284TIP3    H179267   2.409   1.922  15.706  1.7173  1.3001 -2.3808
19284TIP3    H279268   2.486   1.810  15.640 -0.7611 -2.1925  0.2818
19285TIP3   OH279269   4.945   4.254  17.018  0.1996  0.0531  0.4475
19285TIP3    H179270   4.978   4.197  16.950 -2.4764  0.1126 -1.0198
19285TIP3    H279271   4.925   4.196  17.091 -1.0507 -0.6754 -0.4598
19286TIP3   OH279272   1.558   1.345   2.705 -0.1244  0.2093 -0.7429
19286TIP3    H179273   1.582   1.295   2.783  0.8714  1.8118  0.0423
19286TIP3    H279274   1.469   1.317   2.684 -1.2621  1.1747  2.2260
19287TIP3   OH279275   6.612   2.721  12.177 -0.2307 -0.4517 -0.7933
19287TIP3    H179276   6.576   2.724  12.266  0.8552  1.0527 -0.3742
19287TIP3    H279277   6.544   2.678  12.126 -1.8776  0.6793  0.3252
19288TIP3   OH279278   3.111   2.577  15.141  0.4132 -0.4199 -0.6653
19288TIP3    H179279   3.086   2.485  15.139  0.6000 -0.4652 -0.9919
19288TIP3    H279280   3.030   2.623  15.163  0.2957 -0.6553 -0.6052
19289TIP3   OH279281   4.449   5.352   1.852  0.3060  0.3303  0.4239
19289TIP3    H179282   4.506   5.330   1.926  1.8829  1.5686 -0.3679
19289TIP3    H279283   4.443   5.270   1.802 -0.0194 -0.2638  1.4032
19290TIP3   OH279284   2.470   3.024   4.543 -0.7344  0.1736  0.1910
19290TIP3    H179285   2.434   3.023   4.454 -1.5427  0.2557  0.5022
19290TIP3    H279286   2.525   3.102   4.546 -1.0823  0.4372 -0.1004
19291TIP3   OH279287   5.101   1.101  12.364  0.7429 -0.0057 -0.7136
19291TIP3    H179288   5.174   1.062  12.411  1.6631  3.2092  0.7642
19291TIP3    H279289   5.040   1.129  12.432 -0.7030 -0.3940 -1.7968
19292TIP3   OH279290   2.682   6.306   4.009 -0.3093 -0.0447 -0.7223
19292TIP3    H179291   2.645   6.353   4.084 -0.7361 -3.9667  1.7818
19292TIP3    H279292   2.770   6.281   4.038 -0.3710 -1.3613 -1.6085
19293TIP3   OH279293   3.194   4.406   3.854 -0.6767 -0.1715  0.6917
19293TIP3    H179294   3.103   4.420   3.826 -0.7561 -1.4863  0.2050
19293TIP3    H279295   3.237   4.371   3.776  0.1851  0.1750  1.0055
19294TIP3   OH279296   0.359   6.448   1.706  0.2507  0.8433  0.7689
19294TIP3    H179297   0.338   6.541   1.706 -1.1464  0.5410  0.8592
19294TIP3    H279298   0.299   6.409   1.643  0.1265 -0.1383  1.4583
19295TIP3   OH279299   3.141   3.250  14.560 -0.0782 -0.1994 -0.3173
19295TIP3    H179300   3.054   3.288  14.572 -0.5273 -0.3913 -2.6132
19295TIP3    H279301   3.128   3.179  14.497  1.2328 -2.3334  1.6190
19296TIP3   OH279302   5.925   3.665  12.566  0.7956  0.1073  0.5692
19296TIP3    H179303   6.011   3.637  12.598  0.7461 -1.4416 -0.5403
19296TIP3    H279304   5.913   3.616  12.484 -1.3162 -0.0200  0.9035
19297TIP3   OH279305   1.947   6.004   5.028 -0.3532  0.0548 -0.5828
19297TIP3    H179306   1.951   6.015   4.933 -1.0911  1.0891 -0.5122
19297TIP3    H279307   1.862   5.965   5.045  0.3085 -1.3923 -0.4249
19298TIP3   OH279308   3.643   1.977   5.790  0.0424 -0.2584  0.1099
19298TIP3    H179309   3.679   1.909   5.735 -1.5551 -0.8712 -0.2362
19298TIP3    H279310   3.632   2.052   5.732 -0.6131 -0.5495 -0.1482
19299TIP3   OH279311   0.857   3.053   2.919  0.3699 -0.1882  0.2439
19299TIP3    H179312   0.937   3.105   2.917 -0.7574  1.8030  2.1143
19299TIP3    H279313   0.886   2.963   2.930  2.3547  0.2933 -0.7050
19300TIP3   OH279314   2.882   2.714  13.180 -0.6055  0.0063  0.5079
19300TIP3    H179315   2.901   2.640  13.237 -1.2291  1.6950  3.1066
19300TIP3    H279316   2.932   2.787  13.216  0.1055  0.9007 -2.0251
19301TIP3   OH279317   0.888   1.347   1.333 -0.3026  0.8552 -0.3948
19301TIP3    H179318   0.815   1.391   1.377 -1.2037 -0.8047 -0.1472
19301TIP3    H279319   0.904   1.399   1.255 -1.2616  1.6775 -0.0629
19302TIP3   OH279320   1.884   6.562   3.928 -0.2056 -0.2916  0.3473
19302TIP3    H179321   1.975   6.553   3.955 -0.2232  0.1205  0.5605
19302TIP3    H279322   1.870   6.657   3.922 -0.4183 -0.3694 -0.3894
19303TIP3   OH279323   6.084   1.354  12.724 -0.1480  0.8854 -0.6300
19303TIP3    H179324   5.998   1.364  12.682 -0.4492  1.6429  0.1299
19303TIP3    H279325   6.079   1.410  12.802 -0.9866 -3.2241  2.6427
19304TIP3   OH279326   1.704   4.235  12.562  0.6835 -0.0596 -0.1269
19304TIP3    H179327   1.646   4.259  12.490  0.7247 -0.2361 -0.2180
19304TIP3    H279328   1.668   4.281  12.638  1.0271  0.6755 -0.3938
19305TIP3   OH279329   6.355   5.239  14.768 -0.7907 -0.1250 -0.1014
19305TIP3    H179330   6.288   5.245  14.700  0.2630  2.0469 -1.0552
19305TIP3    H279331   6.394   5.152  14.756 -2.1661 -0.6821 -0.7430
19306TIP3   OH279332   0.293   2.807   0.233  0.1575 -0.3576  0.1481
19306TIP3    H179333   0.287   2.810   0.138 -0.4138  0.5407  0.1987
19306TIP3    H279334   0.209   2.841   0.263  0.5636 -0.0474  0.9703
19307TIP3   OH279335   1.802   6.233   3.485 -0.0536  0.3504 -0.5828
19307TIP3    H179336   1.800   6.250   3.579  0.3299 -0.2879 -0.4548
19307TIP3    H279337   1.879   6.177   3.472 -1.0439 -0.9419 -1.0519
19308TIP3   OH279338   4.404   4.950   0.949  0.3178  0.3826 -0.2096
19308TIP3    H179339   4.431   4.976   0.861 -0.9462 -0.6632 -0.9545
19308TIP3    H279340   4.380   5.032   0.992  3.4778  1.2390  0.1455
19309TIP3   OH279341   5.622   0.410  15.210  0.4475  0.0560  0.0017
19309TIP3    H179342   5.615   0.316  15.230  1.1094  0.5277  2.8379
19309TIP3    H279343   5.714   0.431  15.224  0.3205  1.1376 -0.7001
19310TIP3   OH279344   4.681   1.568  16.312 -0.2718 -0.3299 -0.8417
19310TIP3    H179345   4.729   1.643  16.277  1.0465 -0.3922  0.6823
19310TIP3    H279346   4.601   1.564  16.260 -0.8703  2.7069 -0.3598
19311TIP3   OH279347   4.331   6.591  12.407  0.0211  0.1498  0.4765
19311TIP3    H179348   4.346   6.562  12.497 -0.0981  1.7375  1.0376
19311TIP3    H279349   4.305   6.683  12.415 -1.1254  0.0117 -1.0973
19312TIP3   OH279350   6.080   6.627  15.989  0.1758  0.3472  0.1334
19312TIP3    H179351   6.051   6.578  16.066  1.0534 -3.2784 -1.6281
19312TIP3    H279352   6.162   6.585  15.963 -0.2401  1.1958 -2.9190
19313TIP3   OH279353   2.080   0.752   6.830  0.0433 -0.2628 -0.0981
19313TIP3    H179354   2.155   0.693   6.819  1.4232  1.4981 -0.5308
19313TIP3    H279355   2.104   0.808   6.903 -1.9140 -1.1251  1.3199
19314TIP3   OH279356   4.784   3.366   4.169  0.0474  0.0659  0.0142
19314TIP3    H179357   4.702   3.393   4.128 -0.3638  0.8383  1.2770
19314TIP3    H279358   4.836   3.446   4.172  0.0051  0.0636  1.1114
19315TIP3   OH279359   0.723   1.382  14.639  0.3753 -0.4836 -0.1707
19315TIP3    H179360   0.786   1.334  14.586 -1.7228 -0.6991 -2.6264
19315TIP3    H279361   0.708   1.464  14.592  0.7746  0.7979  1.7887
19316TIP3   OH279362   6.166   4.701  17.584  0.1758  0.5677 -0.4131
19316TIP3    H179363   6.236   4.651  17.625 -1.4872 -0.8417  0.8572
19316TIP3    H279364   6.184   4.792  17.608  0.7818  0.0717  1.0978
19317TIP3   OH279365   3.252   0.532   0.712  0.6285 -0.4678  0.6428
19317TIP3    H179366   3.179   0.591   0.698  1.5653  0.5237 -0.3548
19317TIP3    H279367   3.328   0.580   0.680  1.4809 -2.0904  0.0794
19318TIP3   OH279368   4.727   1.560  14.622 -0.1615 -0.4888  0.1557
19318TIP3    H179369   4.804   1.604  14.656 -0.5784 -0.5889  1.2806
19318TIP3    H279370   4.656   1.624  14.632 -0.3718 -0.6773 -0.1216
19319TIP3   OH279371   5.166   6.033   6.941 -0.3888 -0.8048  0.1659
19319TIP3    H179372   5.211   5.949   6.932 -1.1973 -1.1327 -1.1275
19319TIP3    H279373   5.218   6.094   6.889  0.0296 -0.5580  0.8589
19320TIP3   OH279374   0.910   5.566   5.942 -0.2325 -0.2341 -0.7731
19320TIP3    H179375   0.915   5.618   6.022  1.3302 -1.0092 -0.3343
19320TIP3    H279376   0.898   5.476   5.972  0.7064 -0.5749 -1.3870
19321TIP3   OH279377   1.120   0.860  13.774  0.1784 -0.1064 -0.1240
19321TIP3    H179378   1.112   0.765  13.780 -0.9599 -0.0704 -0.9213
19321TIP3    H279379   1.174   0.884  13.850 -0.9575 -1.1996  1.0751
19322TIP3   OH279380   4.873   6.691   6.679  0.0284  0.6015  0.1227
19322TIP3    H179381   4.896   6.664   6.591 -0.3569  0.4412  0.0694
19322TIP3    H279382   4.780   6.713   6.674  0.3044  1.8527  0.1865
19323TIP3   OH279383   4.386   2.399  12.318 -0.4378 -0.1348 -0.0840
19323TIP3    H179384   4.478   2.392  12.293 -0.4144  0.0463 -0.0458
19323TIP3    H279385   4.372   2.492  12.334 -0.9307  0.0085 -1.2481
19324TIP3   OH279386   6.285   4.183   5.463  0.0845 -0.2384 -0.1392
19324TIP3    H179387   6.268   4.260   5.517 -0.6331  0.9547 -1.9895
19324TIP3    H279388   6.206   4.131   5.470 -0.9780  1.0445 -1.7829
19325TIP3   OH279389   0.126   0.333  12.288  0.1146  0.2540 -0.1100
19325TIP3    H179390   0.121   0.398  12.359  0.5828  0.2019 -0.0249
19325TIP3    H279391   0.069   0.261  12.318  1.3855 -0.3854  0.8818
19326TIP3   OH279392   3.217   3.673  16.063  0.2793 -0.0645  0.1607
19326TIP3    H179393   3.306   3.709  16.066 -0.1185  0.8991  0.6445
19326TIP3    H279394   3.163   3.737  16.108 -0.9925  0.3167 -1.7631
19327TIP3   OH279395   6.524   6.312  12.568  0.0508 -0.2401  0.0063
19327TIP3    H179396   6.438   6.338  12.602  0.1493  1.1800 -0.7733
19327TIP3    H279397   6.517   6.218  12.554 -1.1558 -0.2493  0.5831
19328TIP3   OH279398   1.675   4.665  16.739 -0.2469  0.1151  0.8659
19328TIP3    H179399   1.710   4.638  16.655  0.8851  0.4291  1.2121
19328TIP3    H279400   1.585   4.634  16.739  0.2817 -1.5383  0.3026
19329TIP3   OH279401   4.663   2.466  17.126 -0.4744 -0.2147 -0.3229
19329TIP3    H179402   4.664   2.383  17.078  0.3244  1.5718 -3.7055
19329TIP3    H279403   4.654   2.533  17.058  0.3549  2.5782  2.1091
19330TIP3   OH279404   0.768   3.532   3.328  0.0000 -0.1852  0.4467
19330TIP3    H179405   0.690   3.586   3.310 -0.3388 -0.8471 -0.0902
19330TIP3    H279406   0.762   3.460   3.266  0.3193 -0.9894  1.3390
19331TIP3   OH279407   0.607   2.755   0.835 -0.4315 -0.6625 -0.5823
19331TIP3    H179408   0.639   2.824   0.893  0.6301 -1.0420 -0.7089
19331TIP3    H279409   0.512   2.755   0.849 -0.2424 -0.4575  0.8316
19332TIP3   OH279410   3.537   6.311   2.414  0.2737  0.1327 -0.7357
19332TIP3    H179411   3.594   6.290   2.341  1.6195  0.1351  0.2851
19332TIP3    H279412   3.587   6.371   2.469 -0.5423 -0.1534  0.3847
19333TIP3   OH279413   5.601   6.510   0.494  0.5154  0.4706 -0.3410
19333TIP3    H179414   5.560   6.590   0.463  0.7521  0.2921 -1.1561
19333TIP3    H279415   5.682   6.539   0.536  0.9769  0.6220 -1.2958
19334TIP3   OH279416   3.287   3.483  13.865 -0.0407  0.2216  0.5666
19334TIP3    H179417   3.202   3.447  13.889  0.4777 -1.0180  0.5934
19334TIP3    H279418   3.351   3.418  13.893  0.8440  0.5612 -0.5554
19335TIP3   OH279419   6.380   3.413  15.963  0.4822  0.0210 -0.0474
19335TIP3    H179420   6.362   3.324  15.933  1.7435 -0.0664 -0.5902
19335TIP3    H279421   6.467   3.408  16.001  0.1375  0.8088  0.8882
19336TIP3   OH279422   4.369   6.325   2.534 -0.1613  0.1876  0.0646
19336TIP3    H179423   4.307   6.383   2.579 -0.0951 -0.0330  0.4403
19336TIP3    H279424   4.432   6.385   2.494 -1.1823  0.4780 -1.1993
19337TIP3   OH279425   2.996   2.713   5.029  0.3604 -0.5250 -0.4066
19337TIP3    H179426   2.935   2.780   4.998  0.9025  1.2207  2.0527
19337TIP3    H279427   3.047   2.689   4.951 -0.0502  1.7141 -1.4408
19338TIP3   OH279428   0.317   2.382  15.226 -0.4553 -0.0432 -0.0793
19338TIP3    H179429   0.291   2.347  15.141  0.2934 -0.9933  0.0637
19338TIP3    H279430   0.237   2.383  15.277 -1.0506  1.1526 -0.9783
19339TIP3   OH279431   3.182   3.132  13.254  0.5081  0.1660  0.2420
19339TIP3    H179432   3.150   3.220  13.273  0.0376  0.5139 -1.8675
19339TIP3    H279433   3.232   3.142  13.172  1.1504 -1.3922  0.3971
19340TIP3   OH279434   0.611   2.042  16.907  0.1763 -0.0671  0.8869
19340TIP3    H179435   0.608   2.077  16.818  0.3704 -1.1628  0.4338
19340TIP3    H279436   0.585   1.950  16.897  0.0857 -0.1675  1.9760
19341TIP3   OH279437   4.886   2.176  13.825 -0.4324  0.0719 -0.0946
19341TIP3    H179438   4.888   2.262  13.782  1.6340 -0.4019 -1.1033
19341TIP3    H279439   4.795   2.163  13.849 -0.4489  3.9219  3.0446
19342TIP3   OH279440   2.277   5.245   4.345 -0.2337  0.1499  0.2366
19342TIP3    H179441   2.353   5.301   4.327  0.0897 -0.0354  1.0094
19342TIP3    H279442   2.218   5.301   4.396  0.3789 -0.3985  1.5857
19343TIP3   OH279443   2.001   0.126  11.720  0.0150 -0.2597  0.4375
19343TIP3    H179444   1.919   0.175  11.721 -0.0414 -0.3566  0.5335
19343TIP3    H279445   2.040   0.146  11.635 -0.5500 -0.9365  0.0010
19344TIP3   OH279446   5.730   2.801  13.355  0.4058  0.3142 -0.1699
19344TIP3    H179447   5.645   2.783  13.316  0.8605 -0.4950 -0.8002
19344TIP3    H279448   5.740   2.734  13.423 -0.3118  1.6168  1.2933
19345TIP3   OH279449   3.133   0.261   4.478 -0.6987  0.2530  0.3295
19345TIP3    H179450   3.070   0.285   4.410 -1.2250  1.5256  1.2308
19345TIP3    H279451   3.216   0.297   4.447 -0.9157  0.7340  0.2879
19346TIP3   OH279452   6.435   5.131  14.389  0.5414  0.5614 -0.3594
19346TIP3    H179453   6.506   5.190  14.412 -0.0084  0.9771  0.3128
19346TIP3    H279454   6.428   5.070  14.462 -0.2127  0.9412 -0.0932
19347TIP3   OH279455   1.439   4.187   4.626  0.4852  0.1110  0.1310
19347TIP3    H179456   1.348   4.200   4.652  0.5515  0.6173  0.1113
19347TIP3    H279457   1.477   4.274   4.626  1.3713 -0.2432  1.6207
19348TIP3   OH279458   5.795   1.357   3.803  0.4181 -0.6547 -0.6590
19348TIP3    H179459   5.857   1.417   3.843 -1.0386  1.6371 -1.6436
19348TIP3    H279460   5.725   1.346   3.868  0.6813 -1.3212 -0.4787
19349TIP3   OH279461   1.703   3.341   2.841  0.0619 -0.1556 -0.1339
19349TIP3    H179462   1.762   3.342   2.766 -0.4200  2.0066 -0.5701
19349TIP3    H279463   1.623   3.299   2.809 -0.5299  1.6844 -1.2325
19350TIP3   OH279464   5.279   1.712  12.733 -0.0281  0.5444 -0.5428
19350TIP3    H179465   5.368   1.745  12.748  0.6649 -1.3459 -0.1920
19350TIP3    H279466   5.229   1.744  12.808  0.1995  2.0538 -1.0034
19351TIP3   OH279467   6.445   5.026  10.742  0.4195 -0.2878  0.2631
19351TIP3    H179468   6.404   4.952  10.786  1.8030 -0.6261  1.0522
19351TIP3    H279469   6.416   5.020  10.652 -1.3798 -0.3874  0.8129
19352TIP3   OH279470   0.762   4.472  14.336 -0.0157 -0.1786 -0.0387
19352TIP3    H179471   0.685   4.426  14.301  0.6231 -0.5244 -1.0402
19352TIP3    H279472   0.750   4.563  14.309  0.8256 -0.5662 -1.8862
19353TIP3   OH279473   0.878   3.990  16.434 -0.1542  0.1970  0.0554
19353TIP3    H179474   0.790   4.003  16.399 -0.0788  0.8010  0.0687
19353TIP3    H279475   0.878   3.901  16.469  0.4638 -1.3148 -3.4262
19354TIP3   OH279476   1.136   3.461   0.262 -0.3297  0.2527  0.4356
19354TIP3    H179477   1.115   3.555   0.258 -1.0256  0.1178  0.6217
19354TIP3    H279478   1.123   3.430   0.172  2.5054  0.8252 -0.2488
19355TIP3   OH279479   4.097   4.683  11.096  0.1594 -0.4333 -0.3656
19355TIP3    H179480   4.182   4.668  11.138 -0.8399 -1.5391  1.3975
19355TIP3    H279481   4.106   4.644  11.009  1.0445 -1.7424  0.2796
19356TIP3   OH279482   3.678   3.578   4.121  0.5260 -0.3344 -0.5298
19356TIP3    H179483   3.607   3.638   4.097 -0.4180 -1.0285  0.4147
19356TIP3    H279484   3.746   3.594   4.056 -0.1153  1.0152 -0.9142
19357TIP3   OH279485   4.755   3.746  13.950 -0.2950 -0.1696  0.3508
19357TIP3    H179486   4.810   3.823  13.931  0.3804 -0.0584  2.4978
19357TIP3    H279487   4.696   3.776  14.019 -2.1680 -0.7162 -0.9613
19358TIP3   OH279488   6.307   1.241  13.395  0.5316  0.4532 -0.1648
19358TIP3    H179489   6.245   1.189  13.446  0.8777 -0.7852 -0.9590
19358TIP3    H279490   6.369   1.274  13.461  0.7214 -0.7573  0.3029
19359TIP3   OH279491   0.278   2.892  16.056 -0.2678 -0.2779  0.5562
19359TIP3    H179492   0.185   2.868  16.048 -0.2046 -0.3374  0.0093
19359TIP3    H279493   0.310   2.896  15.966 -0.0748  1.1040  0.6707
19360TIP3   OH279494   1.124   4.780   1.385  0.2547 -0.5308 -0.3015
19360TIP3    H179495   1.203   4.726   1.374  0.8665  0.2224  0.2763
19360TIP3    H279496   1.052   4.717   1.382  0.9727 -1.4587  0.8013
19361TIP3   OH279497   4.000   2.515  15.656 -0.1976  0.3015  0.1276
19361TIP3    H179498   3.969   2.427  15.674  1.2904 -0.1768  0.5063
19361TIP3    H279499   3.993   2.561  15.740  0.8919 -0.0768  0.4484
19362TIP3   OH279500   2.973   0.267   0.028 -0.2309  0.1961 -0.0206
19362TIP3    H179501   2.939   0.289   0.115 -0.5250  1.9894 -0.5365
19362TIP3    H279502   3.035   0.196   0.043 -0.8738 -0.0668  1.5444
19363TIP3   OH279503   6.452   6.616   4.243 -0.3007 -0.2059  0.1187
19363TIP3    H179504   6.525   6.675   4.262  0.5570 -0.7852 -1.2585
19363TIP3    H279505   6.475   6.534   4.287  0.6132 -0.8418 -1.4602
19364TIP3   OH279506   1.508   2.478   5.238 -0.4770 -0.1861 -0.1951
19364TIP3    H179507   1.563   2.517   5.170 -1.2211 -1.1681 -1.3915
19364TIP3    H279508   1.420   2.512   5.221 -0.6707 -0.4164  0.3045
19365TIP3   OH279509   6.462   0.334   6.042  0.6588  0.1315 -0.5025
19365TIP3    H179510   6.529   0.402   6.044  2.0179 -1.1612  0.6577
19365TIP3    H279511   6.403   0.357   6.114 -0.5558  1.6008 -1.8963
19366TIP3   OH279512   4.540   6.393  16.344  0.0506  0.2222  0.3322
19366TIP3    H179513   4.609   6.382  16.409  1.1316  0.3676 -0.7535
19366TIP3    H279514   4.523   6.304  16.313 -1.2829 -0.0001  1.5837
19367TIP3   OH279515   0.523   5.457  11.250  0.3167 -0.3871 -0.5585
19367TIP3    H179516   0.570   5.444  11.332  0.3035  0.2002 -0.4546
19367TIP3    H279517   0.589   5.494  11.190  0.8519 -2.5844 -1.4145
19368TIP3   OH279518   0.028   5.857   2.671  0.2446  0.1702  0.5344
19368TIP3    H179519   0.070   5.840   2.586 -1.5142  0.1053 -0.3729
19368TIP3    H279520   0.074   5.800   2.732  1.7719  0.4629 -0.2985
19369TIP3   OH279521   0.817   5.771  16.471  0.8539  0.4596  0.1637
19369TIP3    H179522   0.812   5.698  16.409 -0.5822  1.0384 -0.4569
19369TIP3    H279523   0.887   5.746  16.531 -1.5447 -2.9806  1.9162
19370TIP3   OH279524   5.602   1.827   1.561  0.5238 -0.1558 -0.0443
19370TIP3    H179525   5.686   1.787   1.581  1.1518  0.6773 -0.8989
19370TIP3    H279526   5.606   1.846   1.467 -1.2940 -1.6164 -0.4645
19371TIP3   OH279527   2.485   0.405   5.257 -0.5182  0.3398 -0.3061
19371TIP3    H179528   2.431   0.386   5.181 -0.7335  0.1210 -0.1015
19371TIP3    H279529   2.424   0.401   5.331 -0.3638  0.8002 -0.1491
19372TIP3   OH279530   2.373   0.211  12.388 -0.0986 -0.3501  0.4922
19372TIP3    H179531   2.410   0.250  12.467 -0.3885 -2.1467  1.5682
19372TIP3    H279532   2.430   0.241  12.317 -0.1478  1.7471  1.2499
19373TIP3   OH279533   6.412   1.132  17.182  0.0044 -0.4793 -0.5039
19373TIP3    H179534   6.420   1.190  17.258 -0.6927  0.7938 -1.3697
19373TIP3    H279535   6.434   1.046  17.216 -0.4166  0.0318  1.1842
19374TIP3   OH279536   2.656   3.260  16.192  0.9605  0.4134  0.6308
19374TIP3    H179537   2.639   3.272  16.285 -2.6382  1.5687 -0.0348
19374TIP3    H279538   2.691   3.345  16.164 -0.3085  0.9211  0.5275
19375TIP3   OH279539   4.672   1.212  16.916  0.2461 -0.0284  0.4134
19375TIP3    H179540   4.628   1.135  16.880 -0.9869  1.0878 -0.5928
19375TIP3    H279541   4.763   1.203  16.890 -0.2381 -0.2732 -1.2883
19376TIP3   OH279542   0.928   6.528   2.635  0.7019  0.4981 -0.4708
19376TIP3    H179543   0.856   6.491   2.584 -1.2228  0.7157  1.9016
19376TIP3    H279544   0.977   6.581   2.572 -0.9075 -0.0633 -2.2952
19377TIP3   OH279545   2.106   0.615  17.135  0.0413 -0.4324 -0.1507
19377TIP3    H179546   2.043   0.687  17.131  0.0267 -0.4588 -0.3985
19377TIP3    H279547   2.189   0.655  17.108  0.5149  0.0189  1.7778
19378TIP3   OH279548   5.961   4.973   6.156 -0.0717 -0.2625  0.1680
19378TIP3    H179549   5.950   5.062   6.121  2.5025 -0.5876 -1.7587
19378TIP3    H279550   5.964   4.985   6.251  2.3459  2.1117 -0.0710
19379TIP3   OH279551   5.766   3.049   4.360  0.3811 -0.3227  0.6600
19379TIP3    H179552   5.700   3.090   4.304 -0.1101 -0.0675  1.4185
19379TIP3    H279553   5.722   3.037   4.444  0.3488 -2.8057  0.3695
19380TIP3   OH279554   1.563   3.850  11.538 -0.3231  0.2759  0.2268
19380TIP3    H179555   1.522   3.793  11.473  0.8263  0.9748 -1.1773
19380TIP3    H279556   1.654   3.821  11.542 -0.4249  0.0639  1.7760
19381TIP3   OH279557   0.049   6.238   1.948 -0.8052 -0.7777  0.1596
19381TIP3    H179558   0.139   6.262   1.970 -1.2039  0.5318  0.4744
19381TIP3    H279559   0.037   6.150   1.983 -0.0746 -0.4169  1.3498
19382TIP3   OH279560   0.747   3.811   1.223  0.0721  0.1779 -0.2385
19382TIP3    H179561   0.677   3.828   1.286 -0.3073 -0.0742 -0.5817
19382TIP3    H279562   0.703   3.765   1.151  0.7766 -0.8579 -0.0199
19383TIP3   OH279563   3.355   1.834   0.854 -0.1828  0.3375 -0.1058
19383TIP3    H179564   3.434   1.832   0.908 -1.1712 -4.3371  1.6519
19383TIP3    H279565   3.382   1.795   0.771 -0.1573  1.0726 -0.4519
19384TIP3   OH279566   6.298   6.225  11.672 -0.1688  0.0473 -0.2462
19384TIP3    H179567   6.337   6.152  11.720 -2.6135 -0.7561  0.6620
19384TIP3    H279568   6.232   6.260  11.732 -1.1617  1.0216 -1.8440
19385TIP3   OH279569   5.768   6.472  13.646  0.3885  0.8263 -0.1383
19385TIP3    H179570   5.801   6.512  13.566 -0.3846 -0.6421 -1.2308
19385TIP3    H279571   5.804   6.383  13.646 -1.7046 -0.0922 -0.2415
19386TIP3   OH279572   1.404   5.069  13.208 -0.0852  0.7076  0.1653
19386TIP3    H179573   1.464   5.098  13.139 -0.2102  0.3542 -0.0980
19386TIP3    H279574   1.363   4.990  13.172 -0.1837  0.5442  0.6270
19387TIP3   OH279575   2.636   0.357  12.464 -0.0297  0.1827 -0.3200
19387TIP3    H179576   2.566   0.422  12.457 -0.2969 -0.1323 -0.5582
19387TIP3    H279577   2.697   0.380  12.394 -0.6552 -0.4628 -1.1012
19388TIP3   OH279578   2.872   3.869  16.042 -0.4146  0.1446  0.3154
19388TIP3    H179579   2.909   3.918  16.115 -0.1493 -0.6758  0.7314
19388TIP3    H279580   2.881   3.929  15.967  2.4777 -0.2836  0.2048
19389TIP3   OH279581   4.447   2.066  12.678  0.4399  0.1168  0.2553
19389TIP3    H179582   4.495   1.987  12.705  0.2770 -0.5734 -1.3406
19389TIP3    H279583   4.506   2.138  12.699  2.4675 -0.7188 -2.0563
19390TIP3   OH279584   3.872   5.629   3.142 -0.3256 -0.0466 -0.1102
19390TIP3    H179585   3.925   5.652   3.066  0.8549  0.2340  0.7848
19390TIP3    H279586   3.782   5.647   3.114  0.0767 -0.0108 -1.4571
19391TIP3   OH279587   3.180   3.073  17.242  0.2640 -0.5562  0.1353
19391TIP3    H179588   3.225   3.096  17.161  0.0481 -2.4819 -0.5902
19391TIP3    H279589   3.251   3.054  17.304  0.5690 -3.1516 -0.8759
19392TIP3   OH279590   1.720   6.119  11.019 -0.6958  1.0979  0.4743
19392TIP3    H179591   1.625   6.114  11.023 -0.6422 -1.4031  0.3864
19392TIP3    H279592   1.749   6.102  11.108 -0.3214  1.3376  0.4019
19393TIP3   OH279593   1.184   5.615   0.378  0.0898  0.5144 -0.1213
19393TIP3    H179594   1.214   5.543   0.433  0.4420  1.6624  1.2631
19393TIP3    H279595   1.103   5.645   0.420  0.5724  1.6608  0.0489
19394TIP3   OH279596   3.424   4.371  14.687 -0.0906  0.0017 -0.0211
19394TIP3    H179597   3.499   4.391  14.631  1.0248 -1.9910  0.6738
19394TIP3    H279598   3.462   4.343  14.769 -1.6881  2.3001  1.6340
19395TIP3   OH279599   2.651   5.086   2.659  0.2754  0.4311  0.2303
19395TIP3    H179600   2.667   5.180   2.654 -1.0746  0.9479  3.2643
19395TIP3    H279601   2.566   5.079   2.704 -0.7155 -2.2400 -1.8095
19396TIP3   OH279602   3.993   1.884   3.641 -0.4182 -0.2496 -0.5431
19396TIP3    H179603   3.914   1.878   3.587 -0.6889 -0.3493 -0.1394
19396TIP3    H279604   3.986   1.969   3.685  0.2709  0.2563 -1.3825
19397TIP3   OH279605   2.290   3.405   1.339  0.2397 -0.0783  0.3499
19397TIP3    H179606   2.318   3.314   1.342  0.5918  0.0412  0.8082
19397TIP3    H279607   2.318   3.436   1.253 -0.1391 -0.4797  0.0765
19398TIP3   OH279608   0.141   2.365  13.792 -0.8375 -0.0156 -0.5305
19398TIP3    H179609   0.113   2.437  13.735  2.2146  0.5334 -1.5287
19398TIP3    H279610   0.229   2.344  13.762 -0.0835 -1.4873  2.3647
19399TIP3   OH279611   0.334   2.717   1.512  0.1750 -0.1501  0.3168
19399TIP3    H179612   0.364   2.805   1.488  1.2489 -0.4436  0.5364
19399TIP3    H279613   0.414   2.664   1.515  0.0090 -0.4319  3.1858
19400TIP3   OH279614   3.199   3.630  15.642 -0.2267  0.6927 -0.7444
19400TIP3    H179615   3.133   3.616  15.710  0.2106  2.9339  0.2352
19400TIP3    H279616   3.282   3.626  15.688  0.3467 -1.3268 -1.8406
19401TIP3   OH279617   5.817   1.280   4.467 -0.0101  0.0350 -0.0842
19401TIP3    H179618   5.780   1.277   4.378 -2.5697  0.8516  0.8795
19401TIP3    H279619   5.746   1.249   4.523  0.7813  1.6452  1.9008
19402TIP3   OH279620   1.183   4.271  13.573 -0.6111  0.3032  0.2000
19402TIP3    H179621   1.272   4.247  13.548 -0.3854 -1.4766  2.4119
19402TIP3    H279622   1.181   4.367  13.564  2.1463  0.6234  1.8361
19403TIP3   OH279623   5.413   4.003  13.504 -0.4413 -0.2041 -0.4384
19403TIP3    H179624   5.440   3.927  13.452  0.9698 -0.2879  0.3528
19403TIP3    H279625   5.319   3.991  13.518 -0.7197 -0.5642 -2.2966
19404TIP3   OH279626   4.742   3.370   2.219 -0.3480 -0.2942 -0.0736
19404TIP3    H179627   4.717   3.340   2.307 -0.7062 -2.1643 -0.7731
19404TIP3    H279628   4.659   3.395   2.179 -0.0654  1.6049  0.4557
19405TIP3   OH279629   1.909   5.810  15.062 -0.5028  0.3922 -0.4616
19405TIP3    H179630   1.971   5.747  15.024 -1.1460 -0.8045  0.3829
19405TIP3    H279631   1.948   5.895  15.045  0.3067 -0.2177 -1.8284
19406TIP3   OH279632   6.640   6.548  15.663 -0.6256  0.0829  0.8350
19406TIP3    H179633   6.560   6.498  15.650  0.3132 -1.0030 -1.3577
19406TIP3    H279634   6.642   6.609  15.589  0.4194  0.2805  1.0095
19407TIP3   OH279635   4.286   0.568   4.425 -0.0411  0.0507 -0.2198
19407TIP3    H179636   4.292   0.583   4.331 -1.1152 -2.5595 -0.8076
19407TIP3    H279637   4.373   0.590   4.459  0.3608  1.0414 -1.7926
19408TIP3   OH279638   2.010   2.974   1.251 -0.7682 -0.4948  0.1186
19408TIP3    H179639   2.054   2.924   1.320  0.0627  0.8696  0.6119
19408TIP3    H279640   1.920   2.985   1.283 -0.5038 -0.2435  0.7909
19409TIP3   OH279641   4.299   2.217  11.648 -0.0466 -0.2510  0.2547
19409TIP3    H179642   4.339   2.149  11.702 -1.7408 -0.3359  1.5035
19409TIP3    H279643   4.252   2.168  11.580 -0.2924 -0.2814  0.4458
19410TIP3   OH279644   0.369   3.639   2.871 -0.4258 -0.1402 -0.4047
19410TIP3    H179645   0.431   3.575   2.907 -0.2675 -0.6382 -1.5323
19410TIP3    H279646   0.419   3.720   2.864 -0.2251 -0.2496 -0.2572
19411TIP3   OH279647   5.674   0.690   6.206 -0.1397  0.9484 -0.0206
19411TIP3    H179648   5.656   0.708   6.298  0.5849 -0.1798  0.3610
19411TIP3    H279649   5.767   0.666   6.204 -0.6957 -1.4477 -0.6332
19412TIP3   OH279650   5.281   2.773   0.751  0.2448  0.0474 -0.4875
19412TIP3    H179651   5.318   2.859   0.772  1.1002 -0.7340  1.4275
19412TIP3    H279652   5.302   2.718   0.827 -2.2164 -1.2818 -0.6645
19413TIP3   OH279653   3.755   5.045  16.555  0.3456  0.3810  0.2343
19413TIP3    H179654   3.670   5.044  16.600  1.4293  1.5281  2.4153
19413TIP3    H279655   3.812   4.991  16.610  1.1243 -0.2392 -1.1280
19414TIP3   OH279656   5.174   2.466  17.023  0.3632  0.4272  0.3067
19414TIP3    H179657   5.123   2.529  16.973 -1.8508 -0.4671  1.3236
19414TIP3    H279658   5.110   2.405  17.058  2.0001 -0.1000  2.6603
19415TIP3   OH279659   0.971   0.206   3.002 -0.2978  0.6118  0.1600
19415TIP3    H179660   0.960   0.111   3.013 -0.2477  0.7794  1.8919
19415TIP3    H279661   0.923   0.244   3.076  0.6936  1.8948  0.1642
19416TIP3   OH279662   1.575   3.980  13.760 -0.0771 -0.3549  0.5931
19416TIP3    H179663   1.653   3.971  13.815  0.6071 -0.4389 -0.3762
19416TIP3    H279664   1.606   3.966  13.671 -1.6511 -3.0292  0.3683
19417TIP3   OH279665   3.714   1.438  13.294  0.0563 -0.2334 -0.4487
19417TIP3    H179666   3.734   1.350  13.263 -1.4466  0.3164 -3.2784
19417TIP3    H279667   3.627   1.432  13.332  0.7099 -0.2924  1.1168
19418TIP3   OH279668   3.489   6.148   6.365 -0.2067 -0.1343  0.1029
19418TIP3    H179669   3.439   6.223   6.331 -0.1775  0.2877  0.9813
19418TIP3    H279670   3.505   6.169   6.457 -1.9310 -2.1175  0.9232
19419TIP3   OH279671   4.922   0.099   1.722 -0.7903 -0.1194 -0.2046
19419TIP3    H179672   4.937   0.153   1.644 -1.8670 -0.4676 -0.6786
19419TIP3    H279673   4.973   0.019   1.706 -0.3706  0.1413 -0.1791
19420TIP3   OH279674   4.686   5.404  14.690 -0.5488 -0.0847  0.2538
19420TIP3    H179675   4.595   5.392  14.663 -0.9493  1.3262  0.8882
19420TIP3    H279676   4.685   5.391  14.785  0.0336 -0.5963  0.2040
19421TIP3   OH279677   4.367   1.101  11.993  0.2491  0.1182  0.0403
19421TIP3    H179678   4.382   1.185  12.036  1.5311  0.5069 -1.0955
19421TIP3    H279679   4.348   1.041  12.065 -0.3783  1.3011  0.8972
19422TIP3   OH279680   2.013   0.209   4.820 -0.1323  0.2449 -0.0047
19422TIP3    H179681   1.939   0.152   4.841 -0.9222  1.5403  0.8510
19422TIP3    H279682   2.078   0.150   4.781 -0.5547 -1.3978  1.6423
19423TIP3   OH279683   3.492   4.749  11.278 -0.0650 -0.1652 -0.3904
19423TIP3    H179684   3.478   4.667  11.326 -0.2476 -0.0133 -0.1764
19423TIP3    H279685   3.414   4.802  11.299 -0.9526 -0.7124 -2.1622
19424TIP3   OH279686   1.547   2.561  14.791 -0.0807  0.5637 -0.1286
19424TIP3    H179687   1.571   2.507  14.866  2.3723  1.7183  0.0118
19424TIP3    H279688   1.467   2.521  14.756  0.0881 -1.4256  1.6269
19425TIP3   OH279689   3.577   2.696  12.764 -0.4845 -0.6666 -0.3675
19425TIP3    H179690   3.498   2.750  12.765 -1.3319 -1.8673  0.0489
19425TIP3    H279691   3.566   2.640  12.687  0.2755 -0.4236 -0.6647
19426TIP3   OH279692   1.600   1.590  12.140  0.0812 -0.2419 -0.4305
19426TIP3    H179693   1.562   1.668  12.181 -0.1107 -0.8572  0.6090
19426TIP3    H279694   1.527   1.550  12.092 -0.0707 -0.3047 -0.1507
19427TIP3   OH279695   6.004   4.856   2.664  0.4502 -0.2039  0.2185
19427TIP3    H179696   5.995   4.946   2.634 -1.0263 -0.8991 -1.6092
19427TIP3    H279697   5.920   4.837   2.708  0.4916 -0.8794  0.0133
19428TIP3   OH279698   3.180   5.313  14.885 -0.2105  0.1188  0.2013
19428TIP3    H179699   3.268   5.349  14.881 -0.4653  0.6617 -1.3661
19428TIP3    H279700   3.192   5.219  14.898  0.5718  0.2832  0.6800
19429TIP3   OH279701   3.102   1.135   1.855  0.5084  0.6068  0.1921
19429TIP3    H179702   3.138   1.090   1.932  2.2048  0.1584 -0.8302
19429TIP3    H279703   3.121   1.227   1.870  2.6634  0.3271 -0.5895
19430TIP3   OH279704   0.637   0.947   3.342 -0.1190 -0.0298 -0.2105
19430TIP3    H179705   0.603   1.036   3.354 -0.9662 -0.5876  1.9600
19430TIP3    H279706   0.626   0.929   3.248 -0.0058  2.0976 -0.6740
19431TIP3   OH279707   4.897   5.655  16.451 -0.0657  0.3085 -0.2028
19431TIP3    H179708   4.865   5.684  16.536  1.8683  0.1935  0.6316
19431TIP3    H279709   4.882   5.561  16.450  2.8657 -0.3027  1.5286
19432TIP3   OH279710   5.173   0.041   0.455  0.3176  0.0033  0.1207
19432TIP3    H179711   5.198  -0.005   0.536  1.4731  1.7883  0.8588
19432TIP3    H279712   5.142   0.126   0.485 -0.3067  0.2961 -1.2781
19433TIP3   OH279713   1.904   0.527   3.656  0.6990 -0.0552  0.7311
19433TIP3    H179714   1.997   0.506   3.654  1.0283  1.3640 -0.1257
19433TIP3    H279715   1.875   0.519   3.565 -0.5093 -2.3656  1.2318
19434TIP3   OH279716   4.869   0.996   5.511 -0.1846  0.3298 -0.9162
19434TIP3    H179717   4.954   0.996   5.466  1.0915 -0.2506  1.3420
19434TIP3    H279718   4.866   0.911   5.555 -1.7956  0.4864 -0.6893
19435TIP3   OH279719   4.573   5.471  13.678  0.7012  0.5071  0.2785
19435TIP3    H179720   4.610   5.537  13.620  1.2160  0.1965  0.2420
19435TIP3    H279721   4.577   5.510  13.765  1.0794  0.4958  0.2685
19436TIP3   OH279722   1.302   1.030  11.466  0.3947  0.3521 -0.1889
19436TIP3    H179723   1.337   0.954  11.513 -2.4927  0.8478  3.1498
19436TIP3    H279724   1.341   1.105  11.509  0.3357  0.8223 -0.9403
19437TIP3   OH279725   2.143   3.266  15.462 -0.0945 -0.2254  0.1813
19437TIP3    H179726   2.073   3.252  15.525  0.0926 -1.3390  0.1719
19437TIP3    H279727   2.098   3.279  15.378 -0.3201 -2.5727 -0.1346
19438TIP3   OH279728   5.415   1.408  17.531  0.2711  0.0682  0.2428
19438TIP3    H179729   5.359   1.389  17.456  1.7691 -2.3757 -0.3762
19438TIP3    H279730   5.489   1.456  17.494  1.3746 -1.7716 -0.0769
19439TIP3   OH279731   4.352   6.229  13.989 -0.3886 -0.2098 -0.4843
19439TIP3    H179732   4.340   6.279  13.908 -1.6009 -1.2976 -1.0049
19439TIP3    H279733   4.366   6.296  14.056  0.6455  0.7064 -1.5764
19440TIP3   OH279734   1.037   1.323   0.569  0.2438  0.7276 -0.5243
19440TIP3    H179735   0.987   1.393   0.526  0.0717  1.1835  0.3739
19440TIP3    H279736   0.972   1.255   0.588  0.4713  0.1765 -1.6812
19441TIP3   OH279737   2.337   5.106  16.164 -0.2608  0.2028 -0.3602
19441TIP3    H179738   2.430   5.107  16.187 -0.1180  2.3130 -0.8073
19441TIP3    H279739   2.310   5.015  16.177  1.0045  0.1862  3.0523
19442TIP3   OH279740   3.322   6.130   0.016  0.0892 -0.2285  0.4528
19442TIP3    H179741   3.317   6.047   0.063  0.8140 -0.4868  0.0804
19442TIP3    H279742   3.409   6.164   0.036 -0.3593  0.6639  0.9575
19443TIP3   OH279743   4.646   2.333  12.250  0.0413 -0.2770  0.5042
19443TIP3    H179744   4.667   2.242  12.272  0.5594 -0.1424  0.5811
19443TIP3    H279745   4.691   2.349  12.167  1.7371  0.5421  1.5192
19444TIP3   OH279746   4.471   4.650  14.717 -0.3338  0.0661 -0.0328
19444TIP3    H179747   4.415   4.707  14.769  1.2701  0.4842  1.3416
19444TIP3    H279748   4.429   4.647  14.631 -1.1434  2.3266  0.2085
19445TIP3   OH279749   3.286   5.284  14.094  0.1225  0.3507  0.6301
19445TIP3    H179750   3.282   5.367  14.141  0.2647  1.2943 -0.9834
19445TIP3    H279751   3.349   5.298  14.024 -0.0936 -1.0199  0.1294
19446TIP3   OH279752   1.243   5.932  13.747 -0.4012 -0.5314  0.0403
19446TIP3    H179753   1.327   5.927  13.794 -0.1403  0.6433 -0.2757
19446TIP3    H279754   1.243   6.019  13.707 -1.8619 -0.4449  0.1840
19447TIP3   OH279755   6.217   6.545  16.503 -0.2225 -0.2835 -1.2119
19447TIP3    H179756   6.136   6.590  16.477  0.1067 -0.2283 -2.1720
19447TIP3    H279757   6.219   6.466  16.449 -0.1292 -0.7832 -0.4803
19448TIP3   OH279758   3.429   3.061  15.341 -0.1898  1.0041  0.0884
19448TIP3    H179759   3.382   3.143  15.326  0.9665  1.7916  0.6047
19448TIP3    H279760   3.521   3.088  15.346  0.3445 -0.4883 -1.0107
19449TIP3   OH279761   5.276   5.906   0.212 -0.0810 -0.3564  0.4820
19449TIP3    H179762   5.232   5.901   0.127 -1.5827  0.8045  1.1284
19449TIP3    H279763   5.209   5.943   0.271  0.9664 -0.9997  2.1311
19450TIP3   OH279764   5.849   3.494   3.900  0.3710  0.1998  0.0622
19450TIP3    H179765   5.936   3.472   3.868 -0.3211 -1.1989 -0.9452
19450TIP3    H279766   5.859   3.498   3.996  2.0787  2.7187 -0.1197
19451TIP3   OH279767   6.623   2.425   3.757  0.3962  0.7360 -0.4963
19451TIP3    H179768   6.670   2.341   3.751  0.3287  0.7214 -0.8079
19451TIP3    H279769   6.640   2.468   3.673  0.0478  0.8360 -0.5166
19452TIP3   OH279770   3.016   5.800  14.954  0.0041  0.4031  0.0781
19452TIP3    H179771   2.986   5.760  14.872 -0.6131 -1.7624  1.2781
19452TIP3    H279772   3.107   5.772  14.962 -0.0819  0.1983  0.3565
19453TIP3   OH279773   2.859   1.256  13.094  0.1635  0.5479  0.2812
19453TIP3    H179774   2.918   1.330  13.114 -0.3119  1.1043 -0.3291
19453TIP3    H279775   2.916   1.192  13.051  0.7784  0.1505  1.6074
19454TIP3   OH279776   1.197   3.934   5.127  0.1292 -0.2492 -0.2747
19454TIP3    H179777   1.163   3.973   5.208  0.2380 -2.3572  0.8417
19454TIP3    H279778   1.256   4.001   5.092 -0.7006  1.1197  0.8225
19455TIP3   OH279779   6.366   5.675  11.484  0.1824  0.3163  0.3450
19455TIP3    H179780   6.279   5.664  11.445  0.8183 -2.2795 -0.5667
19455TIP3    H279781   6.355   5.745  11.549 -1.9450  1.8660 -1.5056
19456TIP3   OH279782   4.660   1.921  17.028  0.0392 -0.6610  0.2430
19456TIP3    H179783   4.676   1.868  16.950  1.0462 -0.8945  0.5948
19456TIP3    H279784   4.717   1.883  17.095 -1.0239 -0.6424  1.1815
19457TIP3   OH279785   5.056   0.068   2.031  0.0333  0.2979  0.1344
19457TIP3    H179786   5.106   0.003   2.079 -1.2435  1.4805  3.2965
19457TIP3    H279787   4.968   0.031   2.023 -0.2167  0.8397  0.2847
19458TIP3   OH279788   5.159   2.139   6.642 -1.2470 -0.2311  0.1082
19458TIP3    H179789   5.149   2.044   6.638  0.3481 -0.4195 -0.0535
19458TIP3    H279790   5.253   2.153   6.652 -1.5659  1.3049  1.3315
19459TIP3   OH279791   6.668   3.516   0.728 -0.3272  0.0452 -0.0858
19459TIP3    H179792   6.605   3.527   0.657 -0.2140 -0.3925 -0.2589
19459TIP3    H279793   6.723   3.443   0.700  0.8812  1.0356 -0.3894
19460TIP3   OH279794   2.167   4.697  13.494  0.7266  0.9036 -0.2480
19460TIP3    H179795   2.183   4.748  13.414 -0.5324  1.4348 -0.1793
19460TIP3    H279796   2.195   4.755  13.565  1.7208  0.4825 -0.2799
19461TIP3   OH279797   5.213   4.905  16.779 -0.3155  0.3000  0.3575
19461TIP3    H179798   5.271   4.947  16.716 -0.0376 -1.0907 -0.3468
19461TIP3    H279799   5.236   4.946  16.863 -1.1403  2.6566 -0.4685
19462TIP3   OH279800   1.815   5.171  15.666  0.0452 -0.1019 -0.1713
19462TIP3    H179801   1.846   5.187  15.755  1.1653  0.0085 -0.5558
19462TIP3    H279802   1.864   5.093  15.638 -0.8604 -0.5858 -0.4277
19463TIP3   OH279803   4.108   6.592   4.422 -0.5681  0.3394 -0.2837
19463TIP3    H179804   4.074   6.639   4.497 -0.5175  1.6515 -1.0475
19463TIP3    H279805   4.106   6.656   4.351  0.2184 -0.5963 -1.1806
19464TIP3   OH279806   3.508   0.443   3.748 -0.4129 -0.6923 -0.3509
19464TIP3    H179807   3.581   0.463   3.689 -2.2803 -0.1421 -2.6226
19464TIP3    H279808   3.542   0.375   3.806  2.3436  0.5771 -0.3160
19465TIP3   OH279809   3.931   4.837  11.584 -0.2489 -0.1229  0.0064
19465TIP3    H179810   3.908   4.886  11.663 -0.8962 -0.7790  0.2365
19465TIP3    H279811   3.920   4.900  11.513  3.6325  1.5472  0.6400
19466TIP3   OH279812   1.721   3.316   0.130  0.3361 -0.4134 -0.2412
19466TIP3    H179813   1.640   3.267   0.143  0.8573 -1.6274 -1.3633
19466TIP3    H279814   1.725   3.376   0.204 -0.4932 -1.8445  1.0140
19467TIP3   OH279815   6.235   5.475  14.378  0.4554 -0.1356  0.4769
19467TIP3    H179816   6.156   5.486  14.431 -0.7585 -2.7731 -0.5962
19467TIP3    H279817   6.214   5.403  14.317  2.6257  1.0635 -1.9091
19468TIP3   OH279818   1.129   5.752  16.897  0.2106 -0.1493  0.0799
19468TIP3    H179819   1.209   5.699  16.890  0.4986  0.3391 -0.4391
19468TIP3    H279820   1.076   5.707  16.962  0.9422 -0.4465  0.4819
19469TIP3   OH279821   5.775   3.527  16.197 -0.4065  0.0021 -0.6837
19469TIP3    H179822   5.784   3.540  16.103  1.2211 -0.6041 -0.6359
19469TIP3    H279823   5.853   3.478  16.223 -1.1454 -0.4214  0.8800
19470TIP3   OH279824   3.509   3.175  12.818 -0.4222  0.4550  0.6897
19470TIP3    H179825   3.509   3.269  12.804  1.5301  0.1862 -1.8586
19470TIP3    H279826   3.461   3.139  12.743 -0.4564 -0.6233  1.1980
19471TIP3   OH279827   0.997   4.104   6.156 -0.0471 -0.1073  0.0806
19471TIP3    H179828   0.947   4.040   6.207 -0.2040  1.2017  1.6714
19471TIP3    H279829   1.046   4.153   6.222 -1.6407  2.8847 -0.7871
19472TIP3   OH279830   5.248   1.544  12.509 -0.0231  0.2386 -0.3655
19472TIP3    H179831   5.240   1.611  12.577 -1.0962 -0.2138 -0.0271
19472TIP3    H279832   5.165   1.547  12.462 -0.7468 -1.9055  0.6631
19473TIP3   OH279833   5.329   5.749  13.690 -0.5159 -0.1211 -0.4164
19473TIP3    H179834   5.271   5.717  13.759  0.0352  0.6880  0.4609
19473TIP3    H279835   5.411   5.771  13.735  0.4271 -1.0676 -1.5946
19474TIP3   OH279836   1.540   3.419  13.657  0.3962  0.2597  0.3329
19474TIP3    H179837   1.481   3.491  13.635  1.0427  1.2028  1.5894
19474TIP3    H279838   1.619   3.461  13.691  0.3626 -1.0291  2.1541
19475TIP3   OH279839   5.878   1.048  12.539  0.0780 -0.1393 -0.3848
19475TIP3    H179840   5.839   1.040  12.626  1.2935  0.3935  0.2401
19475TIP3    H279841   5.969   1.072  12.556  0.1533  0.7010 -1.8305
19476TIP3   OH279842   3.854   3.840  14.799  0.1545  0.5994  0.7605
19476TIP3    H179843   3.824   3.919  14.843  2.7149  1.4726  1.0956
19476TIP3    H279844   3.879   3.869  14.711  2.7887  0.6416  1.4351
19477TIP3   OH279845   0.653   5.491   5.730  0.4166 -0.0827 -0.0799
19477TIP3    H179846   0.665   5.586   5.738  2.2628 -0.4137  1.8599
19477TIP3    H279847   0.569   5.482   5.685 -0.5415  2.4703  0.9753
19478TIP3   OH279848   1.506   5.004   2.844  0.2923  0.7022  0.5303
19478TIP3    H179849   1.509   5.066   2.771 -0.6698  0.0840 -0.0486
19478TIP3    H279850   1.597   4.975   2.854  0.3489  0.3741 -0.7919
19479TIP3   OH279851   4.493   2.447  11.430 -0.3985 -0.1768 -0.1173
19479TIP3    H179852   4.520   2.539  11.424 -0.5117 -0.1804 -0.6968
19479TIP3    H279853   4.398   2.451  11.440 -0.3590 -0.2181  0.2809
19480TIP3   OH279854   4.248   0.240   3.267 -0.0016 -0.2767 -0.8321
19480TIP3    H179855   4.339   0.266   3.249  0.4745 -1.4582 -0.2592
19480TIP3    H279856   4.205   0.320   3.294  1.6362 -0.1619  1.7717
19481TIP3   OH279857   5.300   1.047   1.882  0.0692 -0.5418 -0.2606
19481TIP3    H179858   5.341   1.020   1.965  0.0573  0.9834  0.2807
19481TIP3    H279859   5.374   1.058   1.822  0.3219  0.4583  0.2003
19482TIP3   OH279860   4.397   3.556  14.499 -0.5459 -0.3095 -0.3346
19482TIP3    H179861   4.474   3.611  14.483  1.0513 -2.0974  0.8377
19482TIP3    H279862   4.431   3.466  14.497 -2.3485 -1.0972  1.5912
19483TIP3   OH279863   1.128   1.774   1.570  0.5524 -0.0845  0.7675
19483TIP3    H179864   1.155   1.731   1.650  1.6961 -1.5289 -0.3445
19483TIP3    H279865   1.058   1.719   1.535  0.7556 -0.0471  0.2823
19484TIP3   OH279866   2.858   5.301   1.517 -0.8238 -0.0520  0.2428
19484TIP3    H179867   2.895   5.226   1.564 -0.8404  0.5244  1.2007
19484TIP3    H279868   2.934   5.345   1.479 -0.6586  0.2726  0.9320
19485TIP3   OH279869   0.223   6.018   5.405  0.1914  0.3369  0.6496
19485TIP3    H179870   0.313   5.992   5.424  0.9480  1.1889 -1.5024
19485TIP3    H279871   0.208   5.991   5.315 -2.0363 -0.5323  1.2221
19486TIP3   OH279872   4.961   1.808   3.311  0.5263  0.0709 -0.5700
19486TIP3    H179873   4.995   1.725   3.344  0.7837 -0.3075 -1.7125
19486TIP3    H279874   4.992   1.874   3.372 -0.2693 -0.7441  0.7474
19487TIP3   OH279875   2.244   2.073   1.450  0.9089  0.0285 -0.0324
19487TIP3    H179876   2.211   1.984   1.448  0.5483  0.0080  2.7847
19487TIP3    H279877   2.275   2.090   1.361  0.8991 -2.8440 -0.6584
19488TIP3   OH279878   3.361   0.181  14.626  0.4607 -0.1529 -0.4025
19488TIP3    H179879   3.420   0.255  14.639  1.5932 -0.9795 -0.7187
19488TIP3    H279880   3.418   0.105  14.618 -0.5320 -0.7733 -2.3909
19489TIP3   OH279881   3.297   2.447  11.826  0.1164 -0.3634 -0.5561
19489TIP3    H179882   3.252   2.447  11.911  1.2939  0.0681  0.0867
19489TIP3    H279883   3.242   2.392  11.770 -1.6055  0.7346 -0.0264
19490TIP3   OH279884   1.815   0.960   1.032  0.3135 -0.2462 -0.3567
19490TIP3    H179885   1.826   1.055   1.022  1.1656 -0.4190 -1.1446
19490TIP3    H279886   1.792   0.929   0.944 -0.1233 -0.7534 -0.0703
19491TIP3   OH279887   2.674   5.861  11.436  0.1003  0.2266 -0.2927
19491TIP3    H179888   2.766   5.867  11.464 -0.1821  0.6656  0.5815
19491TIP3    H279889   2.679   5.859  11.341  1.0851 -0.9683 -0.2467
19492TIP3   OH279890   0.165   0.002   2.506  0.8208 -0.2430 -0.1887
19492TIP3    H179891   0.182  -0.030   2.418  0.5778 -3.5063  0.8048
19492TIP3    H279892   0.094  -0.054   2.538 -0.8818  2.5256  1.2375
19493TIP3   OH279893   4.164   6.015   3.658 -0.0754 -0.6599  0.1642
19493TIP3    H179894   4.147   6.049   3.746  0.2038 -0.9183  0.3208
19493TIP3    H279895   4.077   5.994   3.623 -0.3501  1.1614 -0.3276
19494TIP3   OH279896   4.334   2.729  15.819  0.4637  0.0083  0.0915
19494TIP3    H179897   4.342   2.714  15.725  0.8801 -0.6701  0.2308
19494TIP3    H279898   4.355   2.822  15.830 -0.0688  0.2148 -0.5344
19495TIP3   OH279899   4.702   0.146   3.824  0.9599 -0.1479  0.3907
19495TIP3    H179900   4.609   0.170   3.828  1.0668  0.4085 -0.2639
19495TIP3    H279901   4.705   0.055   3.853 -0.2109 -1.1985 -2.4804
19496TIP3   OH279902   2.695   6.290  11.876 -0.2948  0.1583  0.1002
19496TIP3    H179903   2.653   6.310  11.960  0.0374  1.2312  0.0149
19496TIP3    H279904   2.698   6.194  11.874  1.4685  0.0802  2.2292
19497TIP3   OH279905   1.846   2.197  14.629 -0.5419 -0.5298 -0.1299
19497TIP3    H179906   1.916   2.237  14.577 -0.2474 -0.3995  0.3673
19497TIP3    H279907   1.766   2.236  14.594 -0.3298 -0.2712 -0.3352
19498TIP3   OH279908   1.079   1.206  14.673  0.6163 -0.3892 -0.3116
19498TIP3    H179909   1.043   1.278  14.726 -2.7355 -2.2452  0.2619
19498TIP3    H279910   1.077   1.239  14.583 -0.0920  0.5249  0.0221
19499TIP3   OH279911   6.494   0.061  13.535  0.7725 -0.0601 -0.5333
19499TIP3    H179912   6.418   0.062  13.593  0.5659 -0.3892 -0.7935
19499TIP3    H279913   6.459   0.079  13.448  1.0058 -0.1050 -0.6379
19500TIP3   OH279914   0.628   6.595  12.969 -0.3205  0.0857 -0.0156
19500TIP3    H179915   0.569   6.525  12.941 -1.1968  0.5042  0.7302
19500TIP3    H279916   0.705   6.549  13.003 -1.2888 -0.5917  1.3771
19501TIP3   OH279917   1.586   0.245  12.116  0.0513  0.6240 -0.5166
19501TIP3    H179918   1.670   0.251  12.162  0.5189  0.3743 -1.3317
19501TIP3    H279919   1.576   0.152  12.096 -1.5025  0.2798  1.5383
19502TIP3   OH279920   4.405   6.350   0.287 -0.0025 -0.2263  0.0786
19502TIP3    H179921   4.393   6.277   0.225  0.7109 -0.6995  0.4877
19502TIP3    H279922   4.330   6.407   0.271  0.3115 -0.1951 -1.4316
19503TIP3   OH279923   5.403   0.694  12.677 -0.0486  0.7727 -0.3150
19503TIP3    H179924   5.405   0.654  12.589 -0.3391  0.6109 -0.2495
19503TIP3    H279925   5.310   0.698  12.699  0.0947 -0.8554  0.7289
19504TIP3   OH279926   3.919   0.621  13.004  0.5316  0.0090  0.0504
19504TIP3    H179927   3.884   0.615  13.094  0.2179  1.2861  0.0360
19504TIP3    H279928   3.936   0.530  12.979 -1.3356 -0.5719  0.6502
19505TIP3   OH279929   3.558   3.468   3.178 -0.2580  0.4056  0.2553
19505TIP3    H179930   3.555   3.509   3.091 -1.0225  1.7686  0.8902
19505TIP3    H279931   3.476   3.496   3.220 -0.8298 -1.7999  0.7508
19506TIP3   OH279932   2.652   4.611  17.372  0.1504 -0.2844  0.9563
19506TIP3    H179933   2.730   4.658  17.344  1.7144 -3.3679 -0.3310
19506TIP3    H279934   2.591   4.619  17.299  0.9204 -1.2545  0.1774
19507TIP3   OH279935   3.216   1.116   0.696 -0.2549  0.3942 -0.2628
19507TIP3    H179936   3.287   1.093   0.756  0.4640  1.4671 -0.6718
19507TIP3    H279937   3.212   1.042   0.635 -1.3099 -0.9404  1.3249
19508TIP3   OH279938   3.968   5.455   4.665 -0.6894 -0.4910 -0.4332
19508TIP3    H179939   3.957   5.534   4.611 -2.3220 -1.0639 -0.9743
19508TIP3    H279940   3.949   5.383   4.606  0.7584 -1.3327  0.0747
19509TIP3   OH279941   5.211   1.759  13.954 -0.1229 -0.2477 -0.0665
19509TIP3    H179942   5.132   1.716  13.921  1.1311 -0.6630 -2.7218
19509TIP3    H279943   5.226   1.718  14.039 -1.8374 -1.3215 -0.2284
19510TIP3   OH279944   3.583   3.001   4.279  0.5850  0.3169  0.0996
19510TIP3    H179945   3.639   3.067   4.321  0.4119  1.0891 -0.8560
19510TIP3    H279946   3.556   3.041   4.196 -2.1189  0.3265  0.8954
19511TIP3   OH279947   2.802   3.255  17.110 -0.1380  0.1721  0.0106
19511TIP3    H179948   2.847   3.178  17.146  1.9369  1.6727  0.7927
19511TIP3    H279949   2.770   3.226  17.025  1.0104 -1.4292  0.0660
19512TIP3   OH279950   3.901   6.161  13.727 -0.4717  0.3617  0.0788
19512TIP3    H179951   3.894   6.233  13.789  0.3241  0.8206 -0.3451
19512TIP3    H279952   3.943   6.199  13.650 -1.0240 -0.3001 -0.5755
19513TIP3   OH279953   6.420   3.824   0.558  0.7355  0.3689  0.1966
19513TIP3    H179954   6.399   3.903   0.509  2.8915  1.1743  0.4528
19513TIP3    H279955   6.336   3.793   0.593 -0.2995  1.8722 -0.8857
19514TIP3   OH279956   3.068   4.568   6.638  0.2576  0.4880  0.0982
19514TIP3    H179957   3.064   4.645   6.582 -0.9218  0.5170  0.2101
19514TIP3    H279958   3.105   4.500   6.582  0.6465  0.9445 -0.2090
19515TIP3   OH279959   1.407   3.973   4.456 -0.2596 -0.1795 -0.0379
19515TIP3    H179960   1.495   3.945   4.430 -0.0342  0.0770  0.4233
19515TIP3    H279961   1.423   4.047   4.515 -0.8428  1.0828 -1.4080
19516TIP3   OH279962   2.826   6.458  17.101 -0.1472 -0.3257 -0.7243
19516TIP3    H179963   2.899   6.507  17.139 -1.2629  0.1559  0.9035
19516TIP3    H279964   2.754   6.521  17.098 -0.9802 -1.2566 -0.6832
19517TIP3   OH279965   1.455   6.226  15.442  0.3754  0.3707 -0.0474
19517TIP3    H179966   1.386   6.232  15.508 -0.5989 -0.1616 -0.9756
19517TIP3    H279967   1.419   6.274  15.367  0.9374 -0.0650 -0.6026
19518TIP3   OH279968   1.597   0.527  16.649 -0.0173  0.0217 -0.7507
19518TIP3    H179969   1.603   0.470  16.572  0.1914 -3.0327  1.3514
19518TIP3    H279970   1.679   0.511  16.697 -0.2646  1.6405  0.3031
19519TIP3   OH279971   4.975   2.929   1.501 -0.4238  0.2093  0.2593
19519TIP3    H179972   4.974   2.951   1.594  0.4144  0.6724  0.1687
19519TIP3    H279973   4.972   3.014   1.457 -1.6215 -0.0300 -0.1493
19520TIP3   OH279974   1.295   5.703   1.197 -0.6941  0.0696  0.0756
19520TIP3    H179975   1.306   5.732   1.106  0.5220  1.0273  0.5016
19520TIP3    H279976   1.288   5.784   1.248 -0.6765 -0.4415  0.9171
19521TIP3   OH279977   0.675   0.122   5.474 -0.5288 -0.1439  0.4282
19521TIP3    H179978   0.601   0.105   5.532 -1.0116  1.3497  0.2838
19521TIP3    H279979   0.637   0.120   5.386 -0.0547 -1.0336  0.2236
19522TIP3   OH279980   6.044   5.805   5.244  0.0483  0.2345 -0.2325
19522TIP3    H179981   5.978   5.792   5.311 -0.6272  1.4613 -0.6288
19522TIP3    H279982   6.086   5.719   5.234  2.2956  0.6049  3.8724
19523TIP3   OH279983   0.946   2.022   0.040 -0.0410 -0.1310 -0.4082
19523TIP3    H179984   0.867   2.060   0.001  0.1967  0.7708 -0.0277
19523TIP3    H279985   0.917   1.937   0.073 -0.6966 -0.0951 -0.8621
19524TIP3   OH279986   4.615   1.174  14.036 -0.5957 -1.0139 -0.2787
19524TIP3    H179987   4.606   1.251  14.092  0.4259 -1.7200  0.9248
19524TIP3    H279988   4.709   1.170  14.016 -0.7924 -1.3769 -1.1741
19525TIP3   OH279989   4.951   0.696  13.182  1.1061  0.0021  0.3389
19525TIP3    H179990   4.953   0.753  13.259  0.3289 -1.0849  1.1841
19525TIP3    H279991   4.875   0.725  13.132  0.1847 -0.8328  1.2159
19526TIP3   OH279992   4.966   3.217  11.693 -0.5628 -0.5184  0.0021
19526TIP3    H179993   5.059   3.200  11.677 -0.7766 -0.7787 -1.0380
19526TIP3    H279994   4.942   3.154  11.761 -0.0570 -0.6907  0.0301
19527TIP3   OH279995   3.170   1.489   5.013 -0.3167 -0.2861 -0.0943
19527TIP3    H179996   3.204   1.432   4.944  1.2441  2.0418 -1.3761
19527TIP3    H279997   3.210   1.456   5.093 -1.3366 -2.3906 -0.3669
19528TIP3   OH279998   1.007   2.618   1.804 -0.2934 -0.0230 -0.5193
19528TIP3    H179999   1.061   2.576   1.738  0.9008  0.9019 -0.1592
19528TIP3    H280000   1.035   2.710   1.804 -0.9641  0.2041  0.5719
19529TIP3   OH280001   1.514   6.638   5.247  0.0779  0.1892  0.2631
19529TIP3    H180002   1.485   6.678   5.165  0.5733 -1.0283 -0.5395
19529TIP3    H280003   1.607   6.620   5.233 -0.5777 -3.3982 -0.4059
19530TIP3   OH280004   6.322   5.050   3.780  0.2282  0.2000  0.2313
19530TIP3    H180005   6.371   5.061   3.698  0.7121  0.4716  0.5555
19530TIP3    H280006   6.301   4.957   3.782  1.9899 -0.2167  0.7915
19531TIP3   OH280007   1.917   0.178  17.360  0.0184 -0.0352  0.4814
19531TIP3    H180008   1.890   0.166  17.269  0.0377 -0.3569  0.5142
19531TIP3    H280009   1.855   0.125  17.410  1.1233 -1.3701  0.5032
19532TIP3   OH280010   4.184   1.008  13.572 -0.0049 -0.7733 -0.1407
19532TIP3    H180011   4.182   0.946  13.645  0.6872 -2.1260 -1.2078
19532TIP3    H280012   4.272   1.045  13.573 -0.1542 -0.4186  0.0047
19533TIP3   OH280013   3.022   1.632   1.087 -0.4439  0.3633 -0.2903
19533TIP3    H180014   3.011   1.695   1.016  0.2367  0.0811 -0.6511
19533TIP3    H280015   3.022   1.547   1.044 -1.5657  0.0792  0.2154
19534TIP3   OH280016   1.542   2.391  16.179  0.3704  0.2626  0.5644
19534TIP3    H180017   1.625   2.387  16.133 -0.3557  1.5683 -0.9473
19534TIP3    H280018   1.534   2.483  16.206 -0.8253  0.2889  0.1767
19535TIP3   OH280019   4.463   4.682  15.649  0.4048  0.1921  0.6515
19535TIP3    H180020   4.476   4.671  15.744 -3.4025  2.4712  1.6665
19535TIP3    H280021   4.467   4.594  15.614  3.2087 -0.6276  2.6378
19536TIP3   OH280022   6.697   2.348   6.605 -0.0317  0.0005  0.0766
19536TIP3    H180023   6.749   2.279   6.645 -1.0587  0.0521  1.6063
19536TIP3    H280024   6.624   2.362   6.666 -0.4951  1.6175 -0.7687
19537TIP3   OH280025   2.572   6.177  14.993  0.0104  0.0446  0.6180
19537TIP3    H180026   2.511   6.166  14.919  0.0194  0.4746  0.5455
19537TIP3    H280027   2.631   6.102  14.986 -0.2990 -0.1938  0.4863
19538TIP3   OH280028   1.750   3.081  14.574  0.2655  0.2139  0.2186
19538TIP3    H180029   1.690   3.026  14.522 -0.4069 -0.1917  1.3826
19538TIP3    H280030   1.767   3.029  14.653  0.3048  1.3196  0.9525
19539TIP3   OH280031   2.427   5.478  12.964 -0.0378 -0.1985  0.0671
19539TIP3    H180032   2.497   5.421  12.997  0.9263  0.5207 -0.6638
19539TIP3    H280033   2.346   5.433  12.986  0.5630 -0.0853  2.7835
19540TIP3   OH280034   1.274   6.502  15.022  0.6258  0.0092 -0.0579
19540TIP3    H180035   1.267   6.596  15.004  0.3320  0.3324  1.5565
19540TIP3    H280036   1.241   6.459  14.943 -1.4006  1.3031  0.0159
19541TIP3   OH280037   0.977   5.159   4.953  0.4374  0.6878  0.0900
19541TIP3    H180038   1.058   5.140   4.999  0.8337  1.5092 -0.2470
19541TIP3    H280039   0.994   5.132   4.863  0.2955  0.7628  0.0409
19542TIP3   OH280040   5.892   2.704  16.378 -0.4926 -0.1371  0.3405
19542TIP3    H180041   5.868   2.692  16.286  0.0416  0.0201  0.1791
19542TIP3    H280042   5.819   2.755  16.414  1.2250  3.7071 -1.0602
19543TIP3   OH280043   0.325   1.083   5.906  0.2956  0.0007 -0.7289
19543TIP3    H180044   0.349   1.008   5.852  2.9205  1.2244 -1.4379
19543TIP3    H280045   0.253   1.052   5.961  0.5241 -2.6362 -1.7977
19544TIP3   OH280046   2.302   4.536   0.399 -0.6997  0.2791  0.4389
19544TIP3    H180047   2.388   4.495   0.398 -1.0137 -0.4112  0.9891
19544TIP3    H280048   2.251   4.484   0.461 -1.7416  0.2241 -0.4279
19545TIP3   OH280049   0.743   0.639  12.679 -0.2329 -0.2254 -0.1826
19545TIP3    H180050   0.833   0.629  12.711 -0.1307  0.5887 -0.1894
19545TIP3    H280051   0.712   0.550  12.665  0.0991 -0.5657  1.1342
19546TIP3   OH280052   5.237   3.988   0.741 -0.1693 -0.7339 -0.7811
19546TIP3    H180053   5.176   3.942   0.800 -0.4104  1.2191  0.5647
19546TIP3    H280054   5.237   4.078   0.772  2.0526 -0.2929 -1.9064
19547TIP3   OH280055   2.452   0.404  15.857  0.0558  0.2961 -0.1738
19547TIP3    H180056   2.518   0.381  15.923 -0.8216  0.3839  0.7547
19547TIP3    H280057   2.488   0.482  15.814  0.7068  0.1523  0.0936
19548TIP3   OH280058   1.190   6.438   1.909 -0.4970  0.2483 -0.0035
19548TIP3    H180059   1.096   6.437   1.891 -0.3522  1.2655 -0.8957
19548TIP3    H280060   1.221   6.521   1.872  0.5301  0.5465  1.4400
19549TIP3   OH280061   4.480   4.590   0.307  0.1692  0.3370  0.4822
19549TIP3    H180062   4.512   4.501   0.295 -0.6471  0.1602 -0.5513
19549TIP3    H280063   4.417   4.602   0.236 -0.0685  1.5795  0.8867
19550TIP3   OH280064   6.634   0.988   4.951 -0.0627 -0.3541 -0.4939
19550TIP3    H180065   6.678   1.071   4.967  0.2388 -0.0018 -2.7295
19550TIP3    H280066   6.658   0.965   4.861 -2.3177 -1.4837 -0.8928
19551TIP3   OH280067   6.580   0.243  15.332 -0.3894  0.2091 -0.5874
19551TIP3    H180068   6.503   0.202  15.294 -1.0420  0.9806 -0.1281
19551TIP3    H280069   6.614   0.300  15.263 -0.4170  0.1075 -0.6840
19552TIP3   OH280070   2.322   6.600   4.229 -0.2759  0.1040 -0.1392
19552TIP3    H180071   2.308   6.687   4.268 -1.9534 -0.0212 -0.3694
19552TIP3    H280072   2.400   6.610   4.175  1.1252  0.7449  1.8722
19553TIP3   OH280073   0.827   3.521   1.000 -0.0775  0.4207 -0.5660
19553TIP3    H180074   0.747   3.567   0.972  0.7722  2.5097  0.2173
19553TIP3    H280075   0.832   3.445   0.942 -2.4974  0.3275 -0.7801
19554TIP3   OH280076   1.375   3.769   2.819  0.1027  0.3685  0.7585
19554TIP3    H180077   1.303   3.820   2.856 -0.3728 -0.9387  1.6914
19554TIP3    H280078   1.354   3.678   2.840  0.2148 -0.3917 -2.1202
19555TIP3   OH280079   2.635   0.409   4.869 -0.4329 -0.0904 -0.0780
19555TIP3    H180080   2.681   0.412   4.785  0.7580 -0.7516  0.5260
19555TIP3    H280081   2.583   0.329   4.865  0.6726 -0.8492  0.3214
19556TIP3   OH280082   2.397   1.372   4.274  0.5781  0.0935 -0.1452
19556TIP3    H180083   2.326   1.435   4.286  0.5061  0.2009 -1.0210
19556TIP3    H280084   2.476   1.426   4.269  0.4206  0.2283 -1.8059
19557TIP3   OH280085   1.531   0.796   2.042 -0.2694  0.0546 -0.4536
19557TIP3    H180086   1.551   0.881   2.004  0.7943  0.1976  0.3808
19557TIP3    H280087   1.616   0.754   2.056 -0.6472 -0.3047  1.0103
19558TIP3   OH280088   0.376   2.448   2.410  0.5189 -0.1917  0.1213
19558TIP3    H180089   0.288   2.480   2.430  0.7107  0.1913  0.3717
19558TIP3    H280090   0.379   2.442   2.315  0.6208  0.9650  0.0390
19559TIP3   OH280091   1.461   0.223   4.688 -0.4318 -0.2759 -0.2478
19559TIP3    H180092   1.372   0.244   4.661  0.8397  2.6594 -2.6551
19559TIP3    H280093   1.481   0.284   4.759 -0.0777 -0.4505 -0.1888
19560TIP3   OH280094   5.144   4.353  16.245  0.5118  0.4638  0.0651
19560TIP3    H180095   5.100   4.437  16.234  1.1882  0.8305  0.0935
19560TIP3    H280096   5.172   4.329  16.157 -1.1331 -0.5637 -0.2158
19561TIP3   OH280097   0.044   1.886  15.563 -0.5678  0.1784 -0.3402
19561TIP3    H180098  -0.020   1.952  15.588 -1.2279 -0.7634  0.5507
19561TIP3    H280099  -0.002   1.829  15.502 -0.4950 -0.3460  0.0893
19562TIP3   OH280100   2.433   0.543  14.681 -0.0541  0.1376  0.0886
19562TIP3    H180101   2.449   0.582  14.767 -1.6866 -0.3177  0.6318
19562TIP3    H280102   2.489   0.466  14.679  0.5913  0.5846  0.4113
19563TIP3   OH280103   3.206   0.943  11.861  0.2484 -1.2487  0.4478
19563TIP3    H180104   3.288   0.992  11.847  0.1611 -0.9261  1.0217
19563TIP3    H280105   3.220   0.860  11.816 -1.2736  0.8737 -4.5856
19564TIP3   OH280106   1.485   0.077   3.115 -0.3295 -0.0848 -0.2350
19564TIP3    H180107   1.484  -0.018   3.125 -1.8882 -0.0772 -0.2008
19564TIP3    H280108   1.575   0.102   3.137 -0.0053 -1.4960  0.1393
19565TIP3   OH280109   5.424   4.650  14.593 -0.1938 -0.2339  0.1359
19565TIP3    H180110   5.373   4.706  14.534  0.1146 -0.8447 -0.7369
19565TIP3    H280111   5.409   4.687  14.680 -1.4288  0.1160 -0.2017
19566TIP3   OH280112   2.685   3.735  13.957 -1.1137  0.4693  0.0998
19566TIP3    H180113   2.596   3.722  13.990 -1.2951 -1.0336 -0.8576
19566TIP3    H280114   2.734   3.769  14.032 -1.4904 -2.7633  2.0179
19567TIP3   OH280115   5.026   2.200  16.860  0.1757 -0.0490  0.0197
19567TIP3    H180116   4.947   2.220  16.808 -0.0002 -0.6264  0.0632
19567TIP3    H280117   5.096   2.193  16.795  0.2913  0.9052  0.0183
19568TIP3   OH280118   4.610   5.514   1.252 -0.1885 -0.1462  0.1558
19568TIP3    H180119   4.597   5.541   1.343 -1.3642  0.2941 -0.1282
19568TIP3    H280120   4.638   5.594   1.207 -0.5028 -0.1425 -0.0401
19569TIP3   OH280121   0.429   3.876  16.152 -0.2385 -0.3525  0.2849
19569TIP3    H180122   0.453   3.811  16.219 -0.1459  0.9342  1.5475
19569TIP3    H280123   0.336   3.892  16.167 -0.3643 -0.5073 -0.3167
19570TIP3   OH280124   3.569   0.567  13.355  0.6928  0.0378 -0.0501
19570TIP3    H180125   3.574   0.624  13.431 -2.3129  0.3873 -0.0003
19570TIP3    H280126   3.501   0.606  13.300  1.5610 -1.1614 -2.0929
19571TIP3   OH280127   1.424   1.133   6.196  0.3894  0.1701 -0.1429
19571TIP3    H180128   1.372   1.063   6.235 -1.1357  1.4995  0.2830
19571TIP3    H280129   1.463   1.179   6.271  0.0277  0.7925 -0.3304
19572TIP3   OH280130   2.862   6.247   4.810 -0.3730  0.5823  0.7734
19572TIP3    H180131   2.792   6.227   4.748  0.8350 -1.5886  0.0036
19572TIP3    H280132   2.926   6.298   4.760 -0.5292  0.9568  0.9506
19573TIP3   OH280133   4.693   2.687  16.651  0.2385  0.2303  0.3814
19573TIP3    H180134   4.678   2.654  16.740  0.6947 -0.7514  0.1052
19573TIP3    H280135   4.676   2.781  16.658 -1.6430 -0.1134  1.0679
19574TIP3   OH280136   2.913   6.257   0.981 -0.4185  0.0925 -0.4782
19574TIP3    H180137   2.967   6.184   1.014 -0.9301  0.8887  2.3938
19574TIP3    H280138   2.957   6.285   0.901  1.8926 -1.0293  0.3130
19575TIP3   OH280139   1.918   0.807   4.536  0.2593  0.1737 -0.0350
19575TIP3    H180140   1.907   0.896   4.569 -1.4715 -0.2425  0.6429
19575TIP3    H280141   1.896   0.813   4.443 -1.1597  0.2429  0.2888
19576TIP3   OH280142   2.755   0.506  13.791 -0.2518 -0.5300  0.2415
19576TIP3    H180143   2.672   0.519  13.837 -0.9654 -0.3235 -1.0790
19576TIP3    H280144   2.798   0.436  13.840 -2.2569 -2.3146 -0.4184
19577TIP3   OH280145   5.188   0.514   0.600  0.4556 -0.5342 -0.5649
19577TIP3    H180146   5.103   0.547   0.630  0.6573 -1.3864  1.0348
19577TIP3    H280147   5.251   0.575   0.638  0.6307 -0.5897 -0.7661
19578TIP3   OH280148   5.825   6.310  11.791  0.3446 -0.7383  0.6853
19578TIP3    H180149   5.830   6.252  11.867  0.4747 -1.6928 -0.0295
19578TIP3    H280150   5.760   6.270  11.733 -0.4031  0.4422  0.6614
19579TIP3   OH280151   1.388   2.153  11.687  0.7664  0.5621 -0.3252
19579TIP3    H180152   1.346   2.067  11.688  2.8680 -0.5468 -0.8719
19579TIP3    H280153   1.446   2.153  11.764  2.7368  0.3797 -1.7312
19580TIP3   OH280154   3.369   3.206   1.428 -0.7695 -0.3156  0.0615
19580TIP3    H180155   3.317   3.257   1.366 -0.1644 -1.2399 -1.2493
19580TIP3    H280156   3.401   3.132   1.377  2.6304  0.6643  0.5175
19581TIP3   OH280157   4.631   1.714   0.360 -0.2753 -0.2382  0.5410
19581TIP3    H180158   4.713   1.752   0.391 -0.3840 -1.0889  1.9653
19581TIP3    H280159   4.649   1.621   0.350 -0.3840 -0.0599 -1.6376
19582TIP3   OH280160   2.073   0.346   6.217 -0.5239  0.0890  0.5727
19582TIP3    H180161   1.991   0.319   6.177  0.1315 -1.7898  0.3545
19582TIP3    H280162   2.140   0.318   6.154  0.4207 -1.3748  2.1338
19583TIP3   OH280163   4.124   1.355  11.049  0.4343 -0.1750  0.2408
19583TIP3    H180164   4.211   1.316  11.059 -0.2459 -2.1013 -0.7865
19583TIP3    H280165   4.126   1.399  10.964 -0.3675 -2.7027 -1.2114
19584TIP3   OH280166   3.408   2.489   1.279  0.6361  0.3129  0.1315
19584TIP3    H180167   3.445   2.470   1.365 -0.0290 -1.1150  0.1456
19584TIP3    H280168   3.326   2.536   1.297 -0.3852 -1.4778  0.4161
19585TIP3   OH280169   4.387   1.179   5.233 -0.0852 -0.4150 -0.2217
19585TIP3    H180170   4.452   1.146   5.171 -1.1294 -1.4413 -0.8078
19585TIP3    H280171   4.423   1.157   5.319  1.7773  1.7654 -0.3556
19586TIP3   OH280172   4.590   3.308   2.441 -0.0830  0.5022  0.4693
19586TIP3    H180173   4.495   3.318   2.441 -0.2044 -0.5601  0.9961
19586TIP3    H280174   4.615   3.317   2.532 -0.0468 -2.2429  0.8032
19587TIP3   OH280175   6.112   0.233   3.179  0.2337 -1.7125 -0.0269
19587TIP3    H180176   6.194   0.185   3.164  0.9233  0.0046 -2.4428
19587TIP3    H280177   6.132   0.323   3.152 -2.1948 -1.0289  0.2643
19588TIP3   OH280178   0.630   0.333   3.753 -0.3099 -0.6401  0.0921
19588TIP3    H180179   0.709   0.292   3.718 -0.5257  0.0943 -1.3559
19588TIP3    H280180   0.660   0.418   3.786 -0.5558 -0.1717 -0.8711
19589TIP3   OH280181   2.960   2.597  11.081  0.1058  0.3436 -0.1307
19589TIP3    H180182   2.912   2.669  11.121 -0.5771  0.0945 -0.4772
19589TIP3    H280183   2.894   2.528  11.069  0.5759 -0.0487 -0.5161
19590TIP3   OH280184   6.422   4.733  12.062  0.0741 -0.4117  0.2225
19590TIP3    H180185   6.383   4.663  12.010 -0.0279 -0.1926  0.0026
19590TIP3    H280186   6.490   4.689  12.114 -0.2574 -0.7416  0.3842
19591TIP3   OH280187   5.006   0.288  17.481  0.4381  0.5656  0.6716
19591TIP3    H180188   4.944   0.283  17.554 -2.9504  4.1551 -1.5765
19591TIP3    H280189   5.079   0.339  17.514  0.9314 -1.2706  2.5866
19592TIP3   OH280190   4.437   4.211   4.384  0.2726 -0.4943 -0.8690
19592TIP3    H180191   4.398   4.295   4.410  0.8371 -0.3666 -0.4112
19592TIP3    H280192   4.457   4.222   4.291  1.6328  0.4058 -0.4961
19593TIP3   OH280193   3.305   0.177  15.233  0.0890 -0.3955 -0.2485
19593TIP3    H180194   3.242   0.165  15.162  0.0802 -0.5010 -0.2229
19593TIP3    H280195   3.354   0.094  15.236 -0.7187 -0.8575  0.6612
19594TIP3   OH280196   2.551   0.692  10.825 -0.0738  0.0180  0.0664
19594TIP3    H180197   2.542   0.664  10.734 -1.0032  0.9429 -0.1457
19594TIP3    H280198   2.638   0.661  10.851 -0.6545 -2.2238 -0.4141
19595TIP3   OH280199   3.916   2.509  11.707  0.4513 -0.2611 -0.3628
19595TIP3    H180200   3.826   2.497  11.675 -0.3060 -0.0838  1.5774
19595TIP3    H280201   3.935   2.429  11.756  2.2421 -1.3077 -2.5764
19596TIP3   OH280202   0.012   0.479  14.130  0.3413 -0.1457 -0.1047
19596TIP3    H180203  -0.037   0.541  14.075  0.1180 -0.8027 -0.6759
19596TIP3    H280204   0.052   0.418  14.067  0.3073 -0.7570  0.4520
19597TIP3   OH280205   3.432   3.969  14.350  0.0814  0.2343 -0.8041
19597TIP3    H180206   3.413   3.887  14.306 -1.0084  0.6769 -1.1889
19597TIP3    H280207   3.414   3.952  14.443 -2.7693  0.7278 -1.1657
19598TIP3   OH280208   2.964   4.703   5.159  0.6291 -0.1780 -1.0414
19598TIP3    H180209   3.027   4.652   5.210  0.0963  1.8210  1.8371
19598TIP3    H280210   2.880   4.659   5.174  0.4850  0.3644 -0.2134
19599TIP3   OH280211   1.492   4.247   5.640  0.3650  0.0842  0.2111
19599TIP3    H180212   1.586   4.262   5.628  0.0354  2.1305 -0.1978
19599TIP3    H280213   1.486   4.196   5.721  1.8137  0.1218  0.3731
19600TIP3   OH280214   5.781   2.951  15.406  0.3901  0.1430 -0.1787
19600TIP3    H180215   5.783   3.033  15.357 -0.0373 -0.2124 -0.8069
19600TIP3    H280216   5.706   2.904  15.369  0.7060 -0.5785  0.0961
19601TIP3   OH280217   0.376   4.235   2.424 -0.0172 -0.4331  0.5514
19601TIP3    H180218   0.459   4.238   2.375  1.2333  0.7797  2.5996
19601TIP3    H280219   0.382   4.154   2.476 -1.1387 -1.4798 -0.8705
19602TIP3   OH280220   0.178   2.955  15.673  0.1857 -0.7951  0.0880
19602TIP3    H180221   0.104   2.935  15.731  0.8173 -0.3788  1.0661
19602TIP3    H280222   0.215   3.035  15.709  0.4628 -0.4072 -1.0412
19603TIP3   OH280223   1.684   0.551   5.789 -0.0111 -0.3400  0.1529
19603TIP3    H180224   1.760   0.506   5.826  0.7916  1.1697  0.4201
19603TIP3    H280225   1.667   0.623   5.849 -1.5279 -0.5123 -0.0351
19604TIP3   OH280226   0.410   4.913   3.036  0.8541 -0.0276 -0.6269
19604TIP3    H180227   0.481   4.866   3.079 -0.0474  1.3324  2.6478
19604TIP3    H280228   0.382   4.978   3.100 -1.6240  1.2506 -2.8088
19605TIP3   OH280229   0.541   4.791   4.872  0.5703  0.1167 -0.2885
19605TIP3    H180230   0.632   4.787   4.841  2.1611  0.0587  3.6811
19605TIP3    H280231   0.530   4.881   4.902 -0.7171  0.1276 -0.7372
19606TIP3   OH280232   2.544   3.897  13.791  0.2249 -0.7965 -0.3627
19606TIP3    H180233   2.597   3.878  13.869  1.0972 -1.0502 -1.0003
19606TIP3    H280234   2.564   3.825  13.731 -0.8869 -0.9188 -0.6163
19607TIP3   OH280235   0.003   1.073  14.860  0.6086  0.2878  0.2206
19607TIP3    H180236   0.011   1.165  14.834  0.3433  0.5095  0.8934
19607TIP3    H280237   0.016   1.074  14.955 -0.6181 -0.2091  0.4064
19608TIP3   OH280238   1.305   5.248   2.145 -0.1386 -0.6361  0.3654
19608TIP3    H180239   1.272   5.232   2.056  2.2585 -0.4782 -0.6086
19608TIP3    H280240   1.391   5.207   2.147  1.4165  2.3497  1.4318
19609TIP3   OH280241   6.556   0.848  13.551 -0.0428  0.6598 -0.1273
19609TIP3    H180242   6.568   0.868  13.643 -1.3774  0.3119  0.1414
19609TIP3    H280243   6.507   0.766  13.551  0.4157  0.3683 -1.1564
19610TIP3   OH280244   6.694   5.547   4.379  0.0817 -0.0329  0.4352
19610TIP3    H180245   6.637   5.622   4.399  0.2953 -0.2004  1.7393
19610TIP3    H280246   6.653   5.506   4.303 -1.5873 -0.1659  1.3516
19611TIP3   OH280247   3.722   5.484  16.149 -1.0078 -0.0251 -0.7472
19611TIP3    H180248   3.793   5.438  16.104 -1.4225 -0.8808 -0.5402
19611TIP3    H280249   3.645   5.469  16.094 -1.7683 -2.0449  0.7835
19612TIP3   OH280250   6.266   5.099   5.136 -0.3708 -0.0005 -0.1180
19612TIP3    H180251   6.274   5.018   5.187  0.3426  0.5293  0.6386
19612TIP3    H280252   6.250   5.069   5.046 -2.2125 -0.9612  0.4582
19613TIP3   OH280253   0.383   4.389  11.084  0.0573  0.3111 -0.0335
19613TIP3    H180254   0.428   4.340  11.015 -0.3744  1.1656 -0.9589
19613TIP3    H280255   0.443   4.461  11.105  0.2170  0.0142  0.5384
19614TIP3   OH280256   2.642   6.198   2.570  0.8692  0.5938  0.2274
19614TIP3    H180257   2.671   6.109   2.550  0.6427  0.4908  0.3639
19614TIP3    H280258   2.714   6.236   2.620  1.0724  0.5705 -0.0422
19615TIP3   OH280259   6.578   0.262  13.090 -0.0109  0.2616 -0.1297
19615TIP3    H180260   6.595   0.293  13.002 -0.2138  0.7787  0.0108
19615TIP3    H280261   6.664   0.260  13.132  0.4675 -2.2295 -1.0255
19616TIP3   OH280262   6.402   4.093  13.990  0.0725 -0.4022  0.4826
19616TIP3    H180263   6.373   4.181  14.012 -2.1654 -0.5400 -1.4992
19616TIP3    H280264   6.357   4.036  14.052  0.9122 -0.2354  1.2639
19617TIP3   OH280265   1.564   6.658   4.698  0.6138 -0.0726  0.6133
19617TIP3    H180266   1.535   6.743   4.732  1.0488 -0.4167  1.9207
19617TIP3    H280267   1.651   6.675   4.663  1.2605 -0.2119  2.0752
19618TIP3   OH280268   2.476   2.015   0.059  0.3602 -0.4462 -0.4827
19618TIP3    H180269   2.400   2.009   0.002 -2.8589 -3.8645  3.5561
19618TIP3    H280270   2.537   1.950   0.024 -1.2850 -2.0697 -0.4775
19619TIP3   OH280271   5.790   5.733   2.477 -0.0963  0.4746 -0.2204
19619TIP3    H180272   5.825   5.759   2.392  1.4338  0.2535  0.3193
19619TIP3    H280273   5.836   5.788   2.540 -0.6662  0.1182  0.5250
19620TIP3   OH280274   1.646   1.590   6.613 -0.0510 -0.3719  0.4274
19620TIP3    H180275   1.730   1.545   6.626 -0.4342 -1.5761 -1.0383
19620TIP3    H280276   1.583   1.538   6.663 -0.3129 -0.8766 -0.4084
19621TIP3   OH280277   6.221   3.716   0.931 -0.2567  0.0736  0.1597
19621TIP3    H180278   6.246   3.626   0.951 -0.9709  0.1810  1.6181
19621TIP3    H280279   6.134   3.708   0.890  0.1366  0.0398 -0.6921
19622TIP3   OH280280   3.265   2.812  15.376  0.3080  0.3647  0.7235
19622TIP3    H180281   3.306   2.898  15.382  3.4977 -0.6611 -2.7010
19622TIP3    H280282   3.325   2.754  15.423 -1.4948 -0.2262  2.4601
19623TIP3   OH280283   1.306   4.282  16.741 -0.4428 -0.0386  0.1495
19623TIP3    H180284   1.318   4.346  16.671 -1.1563 -1.5812 -1.4479
19623TIP3    H280285   1.221   4.303  16.779 -0.1803  0.6312  0.3717
19624TIP3   OH280286   1.136   4.090  16.439  0.8490 -0.4745 -0.7339
19624TIP3    H180287   1.058   4.036  16.427  0.5199 -0.3566  0.7545
19624TIP3    H280288   1.167   4.069  16.528  1.5590  0.7038 -0.6828
19625TIP3   OH280289   4.182   1.798  11.967  0.3081 -0.1796 -0.0203
19625TIP3    H180290   4.213   1.798  11.876  1.5728 -2.4493  0.3303
19625TIP3    H280291   4.118   1.727  11.971  3.2937 -3.0785  1.6363
19626TIP3   OH280292   6.302   0.229  11.292 -0.3843  0.1877  0.3376
19626TIP3    H180293   6.287   0.266  11.205 -1.0386 -1.5653 -0.3401
19626TIP3    H280294   6.285   0.136  11.282  0.7606 -0.2623  2.0683
19627TIP3   OH280295   6.648   0.775   0.410  0.0047  0.2021  0.0234
19627TIP3    H180296   6.735   0.774   0.371  0.0363 -1.2843  0.0694
19627TIP3    H280297   6.663   0.779   0.504 -0.0097  1.2337 -0.0169
19628TIP3   OH280298   3.259   1.293   4.825 -0.4298  0.2891  0.1150
19628TIP3    H180299   3.296   1.232   4.762  0.2860  1.2278 -0.3928
19628TIP3    H280300   3.176   1.253   4.851 -0.1237 -0.7366 -0.4318
19629TIP3   OH280301   6.222   6.184   3.574  0.2343  0.2441  0.3370
19629TIP3    H180302   6.268   6.175   3.657  2.3164  0.2491 -0.7635
19629TIP3    H280303   6.193   6.095   3.553  0.3168  0.1239  0.7272
19630TIP3   OH280304   0.265   0.592  16.146  0.5094 -0.3690 -0.6063
19630TIP3    H180305   0.194   0.529  16.149  0.7284 -0.5962  0.0476
19630TIP3    H280306   0.324   0.566  16.217 -0.2539  1.5839  0.8301
19631TIP3   OH280307   1.567   0.527   3.177 -0.1359  0.4444  0.0341
19631TIP3    H180308   1.528   0.613   3.160 -0.0425  0.3855 -0.4696
19631TIP3    H280309   1.492   0.468   3.181 -0.2541  0.6414  0.9938
19632TIP3   OH280310   5.248   3.310  17.097  0.2017 -0.1318 -0.3542
19632TIP3    H180311   5.280   3.343  17.180  0.7871 -2.0132  0.2199
19632TIP3    H280312   5.307   3.238  17.075  0.6063  0.8860 -2.8726
19633TIP3   OH280313   2.073   1.028  13.898  0.0313 -0.3986  0.2329
19633TIP3    H180314   2.077   0.979  13.816 -0.0145 -0.1156  0.0586
19633TIP3    H280315   1.979   1.034  13.918  0.0693 -0.9720  0.6168
19634TIP3   OH280316   3.905   6.066  17.115 -0.4487 -0.6140 -0.6809
19634TIP3    H180317   3.973   6.016  17.069 -1.2625 -1.4984 -0.9566
19634TIP3    H280318   3.841   6.088  17.047 -1.3375 -1.3797 -0.1302
19635TIP3   OH280319   4.705   1.245  12.104 -0.1249 -0.1003  0.0307
19635TIP3    H180320   4.631   1.279  12.155 -0.9866  0.3438 -1.4597
19635TIP3    H280321   4.755   1.193  12.167 -1.7241 -0.4432  1.0791
19636TIP3   OH280322   4.752   2.610  15.068 -0.2994 -0.1989 -0.3611
19636TIP3    H180323   4.730   2.574  14.982  0.2493 -0.0237 -0.5744
19636TIP3    H280324   4.712   2.548  15.130 -1.7983  0.3528 -0.7252
19637TIP3   OH280325   1.710   0.258   2.116  0.2008 -0.0841  0.1144
19637TIP3    H180326   1.669   0.282   2.033  2.5817  2.0596 -0.5710
19637TIP3    H280327   1.690   0.332   2.174  2.0438  0.5015  0.0775
19638TIP3   OH280328   2.105   1.535  12.445  0.3192 -0.8272 -0.0774
19638TIP3    H180329   2.080   1.457  12.396 -0.0458 -1.3206  0.8671
19638TIP3    H280330   2.196   1.520  12.470  0.3565 -0.7939 -0.1939
19639TIP3   OH280331   6.511   5.578   4.679 -0.6580 -0.2077  0.0643
19639TIP3    H180332   6.417   5.579   4.695 -0.8406  1.0457 -0.9322
19639TIP3    H280333   6.528   5.492   4.641 -1.1734 -0.9309  1.4277
19640TIP3   OH280334   0.693   4.749   2.281 -0.3571  0.4958 -0.6649
19640TIP3    H180335   0.723   4.684   2.217 -1.8085 -0.2195 -0.6723
19640TIP3    H280336   0.605   4.721   2.303 -1.0624  2.5214 -0.6993
19641TIP3   OH280337   2.191   4.311  12.284  0.4214  0.0838 -0.4562
19641TIP3    H180338   2.211   4.235  12.338 -1.9868 -0.5091 -0.2878
19641TIP3    H280339   2.151   4.373  12.344  0.1454  0.4960 -1.0561
19642TIP3   OH280340   1.653   6.588   0.546 -0.9821 -0.2576  0.1858
19642TIP3    H180341   1.651   6.497   0.518  1.2968  0.8317 -4.5986
19642TIP3    H280342   1.612   6.637   0.474  1.9722  2.7007  0.2283
19643TIP3   OH280343   1.041   3.094   1.983  0.2695  0.7952 -0.3656
19643TIP3    H180344   1.069   3.114   2.073 -0.6986  0.4602  0.0180
19643TIP3    H280345   0.979   3.022   1.992  1.2815 -0.2433 -1.4502
19644TIP3   OH280346   3.428   2.849   6.618 -0.0015  0.5305 -1.0723
19644TIP3    H180347   3.500   2.841   6.680 -1.2668 -0.7908  0.2885
19644TIP3    H280348   3.368   2.778   6.640 -2.5861  2.5569 -0.9986
19645TIP3   OH280349   6.516   2.481   5.502 -0.0816 -0.3338  0.1345
19645TIP3    H180350   6.469   2.451   5.580 -1.9598  2.0624  0.0411
19645TIP3    H280351   6.600   2.436   5.506 -0.7995 -1.6305  2.5825
19646TIP3   OH280352   4.264   4.200  16.695  0.1490 -0.4862  0.6557
19646TIP3    H180353   4.276   4.272  16.634  0.3822  0.3558  1.6676
19646TIP3    H280354   4.177   4.213  16.733 -0.4861 -1.6642 -0.3123
19647TIP3   OH280355   0.315   5.952  12.793  0.2525 -0.3943  0.2414
19647TIP3    H180356   0.357   6.034  12.765 -0.1133 -0.2360  0.1449
19647TIP3    H280357   0.386   5.889  12.797  0.2851 -0.4920 -1.2983
19648TIP3   OH280358   0.012   5.334  13.957 -0.2359 -0.0592 -0.3406
19648TIP3    H180359  -0.054   5.402  13.970 -0.5134 -0.8499  3.6385
19648TIP3    H280360  -0.036   5.259  13.923 -1.3002 -0.3044  1.5791
19649TIP3   OH280361   5.910   5.385   3.184 -0.4986  0.0855 -0.6027
19649TIP3    H180362   5.938   5.474   3.207 -0.5320  0.5339 -2.2163
19649TIP3    H280363   5.965   5.360   3.110  0.2621 -1.6852  0.4932
19650TIP3   OH280364   5.846   1.398  13.379  0.0162  0.3697 -0.1016
19650TIP3    H180365   5.818   1.343  13.452  2.3846 -0.5625  0.1839
19650TIP3    H280366   5.858   1.338  13.306 -2.6662  1.3391 -1.4730
19651TIP3   OH280367   3.220   0.228  14.326 -0.4002  0.0293  0.3318
19651TIP3    H180368   3.309   0.257  14.307  0.0735 -0.5785  1.4832
19651TIP3    H280369   3.230   0.167  14.399 -1.7981  0.1765  0.6829
19652TIP3   OH280370   5.616   1.405   4.024  0.4840 -0.0436  0.3498
19652TIP3    H180371   5.630   1.487   4.071 -2.1309  0.7786 -0.1228
19652TIP3    H280372   5.535   1.369   4.060  0.1991 -1.0956 -1.1949
19653TIP3   OH280373   1.270   0.546   2.506  0.2026  0.0170 -0.2775
19653TIP3    H180374   1.202   0.504   2.560 -0.6419 -0.4105 -1.6216
19653TIP3    H280375   1.284   0.631   2.548  0.1928 -0.6195  1.0927
19654TIP3   OH280376   3.588   0.015  13.813  0.3618 -0.2192  0.1227
19654TIP3    H180377   3.554   0.010  13.902  0.4541  0.4437  0.1937
19654TIP3    H280378   3.529   0.074  13.767  2.5942  2.7511  0.8217
19655TIP3   OH280379   6.641   0.145  11.807 -0.4125  0.1900  0.6513
19655TIP3    H180380   6.696   0.193  11.868 -0.5616  0.8541  0.2776
19655TIP3    H280381   6.651   0.192  11.724 -0.7532 -0.2815  0.3372
19656TIP3   OH280382   1.527   2.339   0.264 -0.4833 -0.3447 -0.3201
19656TIP3    H180383   1.515   2.280   0.339 -3.6171 -1.5685 -1.6207
19656TIP3    H280384   1.465   2.308   0.198  0.6950  1.9269 -2.6948
19657TIP3   OH280385   3.456   3.933   1.177  0.1606  0.5307  0.2471
19657TIP3    H180386   3.435   3.847   1.142  0.5679  0.5211  0.0181
19657TIP3    H280387   3.524   3.967   1.119 -1.6109  1.9945 -1.1199
19658TIP3   OH280388   3.489   2.031  14.375 -0.0841 -0.1604  0.2235
19658TIP3    H180389   3.483   2.126  14.372  0.1228 -0.1563 -1.9769
19658TIP3    H280390   3.578   2.013  14.404  0.0014  0.3188  0.2602
19659TIP3   OH280391   0.336   4.214  11.665  0.5051  0.9411 -0.4591
19659TIP3    H180392   0.379   4.190  11.747 -0.6464  1.2352  0.2639
19659TIP3    H280393   0.407   4.235  11.605  1.3770  0.5196  0.4036
19660TIP3   OH280394   0.277   1.784  15.321  0.2426 -0.4155  0.5648
19660TIP3    H180395   0.231   1.702  15.340 -0.3825 -0.5327 -1.2296
19660TIP3    H280396   0.315   1.811  15.405  1.0170 -2.8760  1.0952
19661TIP3   OH280397   6.147   4.457   1.059  0.5513  0.0671  0.4291
19661TIP3    H180398   6.108   4.533   1.015  0.5838 -0.4716 -0.5565
19661TIP3    H280399   6.212   4.424   0.997 -1.1074 -2.1974 -0.2297
19662TIP3   OH280400   1.244   3.023   3.144 -0.2044  0.2824 -0.3279
19662TIP3    H180401   1.297   2.970   3.084  1.5967  2.2582 -0.5977
19662TIP3    H280402   1.183   2.961   3.183  1.3929 -1.8694 -1.0520
19663TIP3   OH280403   2.115   3.265   2.554 -0.4305  0.2746  0.0878
19663TIP3    H180404   2.207   3.249   2.531 -0.2753  1.3844 -0.1251
19663TIP3    H280405   2.066   3.241   2.475 -0.3062 -0.1193  0.1282
19664TIP3   OH280406   1.886   3.706   1.513 -0.2390  0.4296 -0.6374
19664TIP3    H180407   1.879   3.625   1.564  0.3986  0.0511 -1.1425
19664TIP3    H280408   1.963   3.694   1.459 -0.2722  1.2883 -0.8902
19665TIP3   OH280409   3.651   0.185  16.060 -0.2084  0.0662 -0.0922
19665TIP3    H180410   3.662   0.151  16.149  2.8375  1.6764  0.2961
19665TIP3    H280411   3.591   0.258  16.070  0.1256  0.2492  0.6879
19666TIP3   OH280412   0.310   6.514  12.058 -0.3654  0.1390  0.0316
19666TIP3    H180413   0.360   6.506  11.977  0.3547 -1.6212  0.6224
19666TIP3    H280414   0.251   6.439  12.058 -2.3968  1.6336 -0.1733
19667TIP3   OH280415   4.826   0.536  16.973 -0.3840  0.4596  0.1135
19667TIP3    H180416   4.865   0.452  16.950  0.8586  1.1449 -0.3967
19667TIP3    H280417   4.789   0.523  17.060 -1.1655 -0.9090 -0.3958
19668TIP3   OH280418   5.290   1.631   0.042 -0.1382 -0.2597  0.3897
19668TIP3    H180419   5.354   1.578  -0.004  1.7874  1.5880  0.7729
19668TIP3    H280420   5.323   1.636   0.132 -1.2935  0.0349  0.8158
19669TIP3   OH280421   0.830   0.320   5.602 -0.1065 -0.5319 -0.2365
19669TIP3    H180422   0.891   0.330   5.674  0.4246 -1.3319 -0.5672
19669TIP3    H280423   0.773   0.248   5.628 -1.5355  0.7924  0.4835
19670TIP3   OH280424   5.909   1.812  13.427  0.6439 -0.0815 -0.4608
19670TIP3    H180425   5.975   1.862  13.379  2.1216 -0.0044  1.5207
19670TIP3    H280426   5.898   1.860  13.509 -1.1481 -0.6755 -0.3052
19671TIP3   OH280427   3.163   0.807   5.420 -0.0371 -0.4016  0.1695
19671TIP3    H180428   3.191   0.882   5.473  2.6926 -1.9535  1.0682
19671TIP3    H280429   3.070   0.825   5.402 -0.1184  1.9835  2.3621
19672TIP3   OH280430   1.226   0.060  12.292  0.2093 -0.0072 -0.5710
19672TIP3    H180431   1.166   0.123  12.252  0.1958  0.2319 -0.1877
19672TIP3    H280432   1.202   0.061  12.385  0.3124 -0.4676 -0.5403
19673TIP3   OH280433   3.446   1.055  11.860 -0.1029 -0.0621 -0.5873
19673TIP3    H180434   3.473   1.145  11.881 -1.0142  0.0714  0.0889
19673TIP3    H280435   3.527   1.005  11.858  0.3050  0.5427  0.2726
19674TIP3   OH280436   5.833   3.379  14.046  0.1036  0.1206 -0.0643
19674TIP3    H180437   5.827   3.372  14.141 -0.8589  4.6685  0.4847
19674TIP3    H280438   5.751   3.340  14.014  0.5086 -1.5918  0.8898
19675TIP3   OH280439   4.959   0.109  14.984 -0.2080 -0.1130  0.2361
19675TIP3    H180440   4.870   0.076  14.997 -0.1930  0.0884  0.8902
19675TIP3    H280441   4.948   0.190  14.935 -0.4274  0.1728  0.7538
19676TIP3   OH280442   6.165   1.350  15.951 -0.0203  0.1488  0.1291
19676TIP3    H180443   6.158   1.260  15.982  2.2596 -0.3249 -0.5732
19676TIP3    H280444   6.122   1.350  15.866 -0.8350 -0.0194  0.5281
19677TIP3   OH280445   3.603   6.257   1.608  0.1647  0.0332  0.6107
19677TIP3    H180446   3.672   6.240   1.544  0.3001 -2.3371  1.2897
19677TIP3    H280447   3.640   6.228   1.691 -0.8595  0.8456  1.3755
19678TIP3   OH280448   1.395   4.565  13.811 -0.0133 -0.9066  0.4143
19678TIP3    H180449   1.311   4.567  13.857 -0.0922 -2.5555  0.4235
19678TIP3    H280450   1.372   4.572  13.719 -0.0015  0.5365  0.5113
19679TIP3   OH280451   4.592   0.344  17.054 -0.1648  0.2642 -0.2136
19679TIP3    H180452   4.505   0.325  17.088  0.5598 -0.9969  0.9919
19679TIP3    H280453   4.616   0.427  17.095 -0.2436 -0.0854  0.5585
19680TIP3   OH280454   3.623   2.881  11.228 -0.2811 -0.6628 -0.2025
19680TIP3    H180455   3.628   2.786  11.235 -0.2920 -0.6129  0.5691
19680TIP3    H280456   3.537   2.903  11.264  0.1850 -0.2694  0.6837
19681TIP3   OH280457   0.264   3.990   6.060  0.0484 -0.0482 -0.6143
19681TIP3    H180458   0.339   4.021   6.009 -1.2460  0.9364 -1.9971
19681TIP3    H280459   0.259   4.052   6.133 -0.1139  0.6038 -1.1659
19682TIP3   OH280460   6.569   3.157  11.759  0.3519  0.2142  0.6627
19682TIP3    H180461   6.477   3.154  11.733  0.5091  0.3464  0.0753
19682TIP3    H280462   6.589   3.069  11.790  0.1076  0.1053  0.5091
19683TIP3   OH280463   3.329   6.351  14.303 -0.5442 -0.2175  0.1014
19683TIP3    H180464   3.276   6.385  14.230 -1.1683  2.6138  1.7259
19683TIP3    H280465   3.265   6.316  14.365 -0.2584  0.0204  0.5370
19684TIP3   OH280466   0.020   3.960  11.977 -0.1221 -0.5740  0.2459
19684TIP3    H180467  -0.017   3.983  12.062 -0.0761  1.2152 -0.1695
19684TIP3    H280468  -0.048   3.984  11.914  0.5524 -0.1015 -0.3201
19685TIP3   OH280469   5.498   5.017   3.606 -0.0961 -0.2977 -0.0659
19685TIP3    H180470   5.519   5.037   3.697  0.1556  0.0591 -0.2017
19685TIP3    H280471   5.581   5.027   3.560 -0.3778  0.2314 -0.4591
19686TIP3   OH280472   1.968   5.513   4.368  0.4649  0.5582  0.3604
19686TIP3    H180473   1.915   5.593   4.364  0.3824  0.5170  0.6363
19686TIP3    H280474   1.987   5.502   4.461 -1.0213 -0.7255  0.5554
19687TIP3   OH280475   2.830   0.649  14.743  0.5299 -0.5776  0.2441
19687TIP3    H180476   2.748   0.696  14.756  0.8551 -0.3345  1.5077
19687TIP3    H280477   2.847   0.657  14.649 -1.3435 -1.4186 -0.2160
19688TIP3   OH280478   5.339   6.170  17.501  0.0478 -0.2769 -0.8074
19688TIP3    H180479   5.286   6.190  17.424  1.1587 -1.0944 -1.8278
19688TIP3    H280480   5.311   6.081  17.526 -0.0010 -0.1854 -0.5375
19689TIP3   OH280481   4.840   1.497   3.994 -0.0133 -0.4853 -0.2236
19689TIP3    H180482   4.851   1.582   4.036 -0.0469 -1.0966  1.0901
19689TIP3    H280483   4.796   1.516   3.912  0.5732  0.8294 -0.2611
19690TIP3   OH280484   0.928   1.397  13.275 -0.2373 -0.1159 -0.2929
19690TIP3    H180485   0.859   1.420  13.213  0.1117 -1.2165 -1.1212
19690TIP3    H280486   0.886   1.402  13.361 -1.3580 -0.7694 -0.7770
19691TIP3   OH280487   1.015   0.454  16.260  0.1065  0.6273 -0.6208
19691TIP3    H180488   0.932   0.446  16.307  0.8084 -1.2161  0.4198
19691TIP3    H280489   0.990   0.480  16.171 -1.3629  2.7228  0.3180
19692TIP3   OH280490   5.877   0.947  12.807  0.2431  0.1909  0.0044
19692TIP3    H180491   5.907   0.863  12.841 -2.7097 -1.7573 -1.7573
19692TIP3    H280492   5.791   0.960  12.846 -0.0253  1.6240 -0.9791
19693TIP3   OH280493   1.768   0.592  17.191  0.3196 -0.3197  0.2112
19693TIP3    H180494   1.791   0.521  17.250  1.0103 -0.6562 -0.4375
19693TIP3    H280495   1.833   0.586  17.120 -1.1529 -0.6531 -1.1723
19694TIP3   OH280496   2.078   0.868   1.341  0.0332  0.3422  0.5623
19694TIP3    H180497   2.020   0.944   1.337  2.1140  1.9805  0.3257
19694TIP3    H280498   2.112   0.858   1.252  1.2438  0.3434  1.0055
19695TIP3   OH280499   3.494   1.465  13.464 -0.1996  0.3948  0.2340
19695TIP3    H180500   3.458   1.376  13.458 -0.3283  0.4752 -0.2515
19695TIP3    H280501   3.417   1.521  13.468 -0.1397  0.5740 -0.8938
19696TIP3   OH280502   0.840   3.600   1.584  0.1116 -0.1295 -0.1212
19696TIP3    H180503   0.750   3.577   1.606 -0.7682  1.9118 -1.4211
19696TIP3    H280504   0.864   3.538   1.515 -0.9670  0.4680 -1.0684
19697TIP3   OH280505   6.456   5.026  15.234 -0.0965 -0.1841  0.1551
19697TIP3    H180506   6.414   5.001  15.152  0.9983  0.6691 -0.6968
19697TIP3    H280507   6.487   4.944  15.272 -2.5199 -0.8689  0.8642
19698TIP3   OH280508   3.153   6.101   0.615 -0.9386  0.4870  0.0508
19698TIP3    H180509   3.188   6.095   0.526  0.6392 -3.0328  0.7555
19698TIP3    H280510   3.229   6.124   0.669 -1.1193 -0.6809  0.8345
19699TIP3   OH280511   0.515   0.188  15.849  0.4027 -0.3294 -0.2085
19699TIP3    H180512   0.477   0.166  15.934 -0.0661  0.0189 -0.3224
19699TIP3    H280513   0.535   0.104  15.809 -0.3507 -0.5266 -0.1837
19700TIP3   OH280514   3.694   5.985  13.591 -0.6095  0.8598 -1.1005
19700TIP3    H180515   3.699   6.015  13.501 -1.7809  2.0967 -0.7989
19700TIP3    H280516   3.762   6.034  13.637 -0.7740  1.0873 -1.0993
19701TIP3   OH280517   1.102   0.696  12.622  0.0711 -0.2583 -0.1380
19701TIP3    H180518   1.023   0.733  12.663 -0.5726 -0.6856 -0.9586
19701TIP3    H280519   1.080   0.690  12.529  1.4700  0.5974 -0.5548
19702TIP3   OH280520   0.033   3.570   3.358  0.7133  0.0485  0.3864
19702TIP3    H180521  -0.040   3.534   3.409  1.1885 -0.9133  0.4019
19702TIP3    H280522   0.063   3.645   3.409 -0.0090  0.2278  0.5705
19703TIP3   OH280523   5.987   6.212   1.198  0.0047 -0.2599  0.2837
19703TIP3    H180524   5.931   6.288   1.180  0.7779  0.4560  0.7792
19703TIP3    H280525   5.938   6.162   1.264 -0.4033 -0.0698  0.1328
19704TIP3   OH280526   4.225   2.980  15.978  0.1324  0.1743 -0.1007
19704TIP3    H180527   4.162   2.964  15.907 -0.6497  0.6939  0.4602
19704TIP3    H280528   4.189   2.934  16.053  0.0978  0.9654  0.3809
19705TIP3   OH280529   1.018   3.696   3.092  0.0509  0.0088 -0.0737
19705TIP3    H180530   1.026   3.787   3.120  0.7270  1.2714 -3.7554
19705TIP3    H280531   0.927   3.688   3.063 -0.1131 -0.6287  0.6074
19706TIP3   OH280532   5.009   2.792  15.579 -0.0267  0.5578 -0.4780
19706TIP3    H180533   4.929   2.827  15.617  0.6670  0.8427  0.7738
19706TIP3    H280534   5.054   2.868  15.543  0.3895  0.6208  0.1703
19707TIP3   OH280535   5.710   0.082   0.472 -0.2039  0.1140  0.4615
19707TIP3    H180536   5.696   0.171   0.504 -1.2745 -0.1814  0.8656
19707TIP3    H280537   5.764   0.092   0.394  1.0767  0.9776  1.4311
19708TIP3   OH280538   0.541   1.677   2.113  0.7989  0.3548 -0.2735
19708TIP3    H180539   0.613   1.676   2.050 -0.2267 -0.8987 -1.4696
19708TIP3    H280540   0.538   1.588   2.148 -0.3268  0.3127 -0.4391
19709TIP3   OH280541   3.593   2.626   6.150 -0.2548 -0.3060 -0.0335
19709TIP3    H180542   3.658   2.625   6.220  0.1411  0.3041 -0.3864
19709TIP3    H280543   3.632   2.680   6.081  0.4180 -2.7679 -1.7343
19710TIP3   OH280544   0.042   4.285   3.770  0.1775  0.4359 -0.3642
19710TIP3    H180545   0.033   4.364   3.824  0.3749  1.0883 -1.2707
19710TIP3    H280546   0.019   4.313   3.682 -0.6572 -0.7496 -0.5435
19711TIP3   OH280547   6.066   1.026  14.717 -0.1489  0.5018 -0.1597
19711TIP3    H180548   5.981   0.986  14.699 -0.8249  1.0824  1.5283
19711TIP3    H280549   6.053   1.119  14.698  0.3734  0.4618 -0.7266
19712TIP3   OH280550   4.116   0.804   2.070  0.0273  0.1176 -0.7872
19712TIP3    H180551   4.050   0.829   2.005  0.9161  1.7262 -1.1275
19712TIP3    H280552   4.068   0.749   2.132 -2.0426  2.3993 -0.1974
19713TIP3   OH280553   6.612   1.744  15.366 -0.5913  0.5845  0.5650
19713TIP3    H180554   6.536   1.686  15.380 -1.4151  0.6557 -2.7459
19713TIP3    H280555   6.681   1.685  15.334 -0.5520  1.0631 -0.2383
19714TIP3   OH280556   4.996   1.030   2.620  0.0043 -0.1433  0.2237
19714TIP3    H180557   5.008   0.935   2.627 -0.4224 -0.1716  0.6237
19714TIP3    H280558   5.075   1.061   2.575  2.2899 -0.1682  3.7878
19715TIP3   OH280559   1.153   0.004  16.601 -0.3026  0.4187 -0.1860
19715TIP3    H180560   1.062   0.003  16.574 -0.6275 -0.2763  0.8614
19715TIP3    H280561   1.201   0.035  16.524 -1.3346  0.0425 -1.0010
19716TIP3   OH280562   1.938   3.329   0.928 -0.0296 -0.1496  0.1890
19716TIP3    H180563   1.865   3.308   0.986  0.6020  2.1414  1.9704
19716TIP3    H280564   1.998   3.256   0.937 -1.4626 -1.4281 -0.2601
19717TIP3   OH280565   1.832   3.863  12.781 -0.1557  0.2598  0.9372
19717TIP3    H180566   1.919   3.887  12.750  0.0083  0.8028  1.7989
19717TIP3    H280567   1.773   3.891  12.711  0.2548  1.0125  0.8825
19718TIP3   OH280568   0.664   0.045   3.814 -0.4472  0.3701 -0.7242
19718TIP3    H180569   0.645   0.134   3.783  0.4482  1.5241  1.7417
19718TIP3    H280570   0.597   0.028   3.880  1.4762  0.7727  1.4429
19719TIP3   OH280571   0.462   2.561   4.427  0.0304  0.2868  0.0559
19719TIP3    H180572   0.437   2.529   4.513 -0.7043  1.2960  0.2289
19719TIP3    H280573   0.383   2.551   4.374  0.4051 -0.0974 -0.4433
19720TIP3   OH280574   2.269   0.729   0.056 -0.0587  0.5364  0.4456
19720TIP3    H180575   2.323   0.794   0.101 -0.6948 -0.9300  3.6794
19720TIP3    H280576   2.329   0.657   0.036 -0.2828 -0.1399  1.9958
19721TIP3   OH280577   4.190   2.668   3.750 -0.1977  0.7256  0.3364
19721TIP3    H180578   4.109   2.619   3.762  1.8608 -2.8817  1.0697
19721TIP3    H280579   4.213   2.699   3.838  1.2385 -2.0825  1.0916
19722TIP3   OH280580   0.589   6.626  13.713 -0.4700 -0.3291  0.4607
19722TIP3    H180581   0.562   6.553  13.769  0.4381 -0.0395  1.2906
19722TIP3    H280582   0.673   6.600  13.677 -1.8289 -1.2922 -2.2497
19723TIP3   OH280583   4.395   0.840  13.374 -0.8673 -0.0685  0.2671
19723TIP3    H180584   4.342   0.780  13.322 -4.8382  0.7148  2.9433
19723TIP3    H280585   4.373   0.927  13.340 -0.6399  0.2306  0.8672
19724TIP3   OH280586   4.922   5.075   5.211 -0.2198 -0.2634 -0.0382
19724TIP3    H180587   4.873   5.060   5.292  0.5356  0.9516  0.6734
19724TIP3    H280588   4.865   5.130   5.158 -0.6298 -0.8885 -0.2578
19725TIP3   OH280589   5.511   1.768  12.475  0.0988  0.6562 -0.5823
19725TIP3    H180590   5.442   1.818  12.518  0.3540  1.1369 -0.7193
19725TIP3    H280591   5.476   1.749  12.388  0.3059  1.2663 -0.7997
19726TIP3   OH280592   1.394   2.164   1.139  0.5473 -0.2040 -0.0160
19726TIP3    H180593   1.448   2.219   1.196  1.8371 -1.7644  0.3524
19726TIP3    H280594   1.401   2.204   1.053  0.8494  0.6130  0.3803
19727TIP3   OH280595   6.669   2.557  11.547  0.2272  0.4115  0.5457
19727TIP3    H180596   6.726   2.540  11.473 -0.3049  1.2105 -0.0749
19727TIP3    H280597   6.644   2.471  11.580 -0.8870 -0.0058 -1.2840
19728TIP3   OH280598   1.942   4.805   4.695 -0.0932 -0.1947  0.3382
19728TIP3    H180599   2.029   4.832   4.665  0.2236 -0.5898  0.8733
19728TIP3    H280600   1.949   4.709   4.703 -0.5183 -0.2077  0.5689
19729TIP3   OH280601   3.663   6.105  15.702  0.2027  0.4879 -0.0001
19729TIP3    H180602   3.749   6.064  15.694  0.0946  0.2175  0.2302
19729TIP3    H280603   3.668   6.156  15.783 -0.1937 -0.3506  0.5618
19730TIP3   OH280604   2.814   4.534  12.645  0.3427  0.1292  0.3223
19730TIP3    H180605   2.890   4.502  12.693  0.0969 -0.2052  0.4936
19730TIP3    H280606   2.755   4.459  12.642  0.4921  0.0337 -0.7904
19731TIP3   OH280607   3.789   3.221  17.118 -0.3192  0.5021  0.1115
19731TIP3    H180608   3.830   3.216  17.031  1.4395  0.7399  0.8850
19731TIP3    H280609   3.792   3.314  17.140 -1.4841  0.5473  0.1123
19732TIP3   OH280610   0.383   2.061   3.259  0.0412  0.4825 -0.4978
19732TIP3    H180611   0.454   2.010   3.220  1.0836  0.7993  0.9168
19732TIP3    H280612   0.409   2.073   3.351 -0.7928  2.4658 -0.4713
19733TIP3   OH280613   0.201   0.717  13.569  0.1369 -0.3983  0.7980
19733TIP3    H180614   0.224   0.790  13.627  1.6601 -0.9243  0.8923
19733TIP3    H280615   0.163   0.760  13.491  0.5174  0.4651  1.0735
19734TIP3   OH280616   6.627   4.503  15.830  0.0174 -0.3423  0.6458
19734TIP3    H180617   6.660   4.592  15.834 -0.5109  0.1703 -3.0974
19734TIP3    H280618   6.704   4.449  15.813 -0.1721  0.2338 -2.8124
19735TIP3   OH280619   4.842   5.386   6.202 -0.3203 -0.2440  0.3670
19735TIP3    H180620   4.750   5.377   6.228 -0.6454 -1.8242 -1.1502
19735TIP3    H280621   4.877   5.297   6.208  1.1784  0.3561  1.0599
19736TIP3   OH280622   5.632   2.531  15.941 -0.4139  0.0447  0.4226
19736TIP3    H180623   5.707   2.589  15.953  0.8120 -1.1331 -1.2307
19736TIP3    H280624   5.594   2.559  15.858  0.6787 -1.9590 -0.8276
19737TIP3   OH280625   1.629   4.926   3.639 -0.2684 -0.1686  0.4291
19737TIP3    H180626   1.597   4.861   3.701 -0.0972  0.0015  0.6925
19737TIP3    H280627   1.723   4.914   3.636 -0.3425 -0.6160 -0.2940
19738TIP3   OH280628   4.251   2.873  14.562  0.0197  0.3939  0.1906
19738TIP3    H180629   4.215   2.784  14.553  0.3465  0.4816 -4.2069
19738TIP3    H280630   4.175   2.929  14.570 -0.6295  0.0428 -2.5392
19739TIP3   OH280631   3.202   0.242  12.929  0.4253 -0.0685  0.1308
19739TIP3    H180632   3.183   0.206  12.842  0.6094 -0.2771  0.1777
19739TIP3    H280633   3.149   0.321  12.934 -0.7038 -0.8141  0.3814
19740TIP3   OH280634   6.468   1.587  10.932 -0.1640 -0.7505 -0.2361
19740TIP3    H180635   6.399   1.520  10.940 -1.8397  0.9332  0.2014
19740TIP3    H280636   6.545   1.546  10.971 -0.8611 -2.7622 -0.8224
19741TIP3   OH280637   0.700   1.466   4.838 -0.0124 -0.2265 -0.4518
19741TIP3    H180638   0.682   1.415   4.917  1.4610  0.6902  0.5253
19741TIP3    H280639   0.786   1.505   4.853 -0.6097  1.7043 -1.5854
19742TIP3   OH280640   0.896   5.640  14.081  0.3963  0.3045 -0.7307
19742TIP3    H180641   0.825   5.609  14.025  0.2334 -0.3884 -0.1504
19742TIP3    H280642   0.942   5.705  14.027  1.3748 -1.6409 -2.3621
19743TIP3   OH280643   6.092   1.615  16.808  0.1764  0.1472 -0.3072
19743TIP3    H180644   6.024   1.548  16.805  1.8466 -1.6926  0.2311
19743TIP3    H280645   6.110   1.635  16.717 -0.3217 -0.1768 -0.4791
19744TIP3   OH280646   2.951   2.006  14.369  0.3918 -0.5052  0.0528
19744TIP3    H180647   2.962   1.963  14.454  1.7324 -1.1196 -0.3928
19744TIP3    H280648   3.040   2.014  14.334 -0.1355 -0.4164 -1.3668
19745TIP3   OH280649   0.544   0.374  15.636 -0.7536 -0.3049 -0.4745
19745TIP3    H180650   0.530   0.307  15.570 -0.6318 -0.5986 -0.2038
19745TIP3    H280651   0.518   0.332  15.718 -2.2291  0.4898 -0.4948
19746TIP3   OH280652   3.206   3.513   4.575 -0.5699  0.2949  0.0239
19746TIP3    H180653   3.198   3.418   4.578 -2.0635  0.3998  0.0539
19746TIP3    H280654   3.298   3.530   4.595  0.1575 -1.2147 -1.7496
19747TIP3   OH280655   1.493   1.805  12.318 -0.3141  0.2326 -0.4238
19747TIP3    H180656   1.489   1.859  12.240 -0.0327  0.4247 -0.3043
19747TIP3    H280657   1.409   1.821  12.363 -0.4352  0.1935 -0.6364
19748TIP3   OH280658   2.881   2.401  14.915 -0.5000 -0.1832 -0.4877
19748TIP3    H180659   2.933   2.397  14.995 -1.5597 -0.4096  0.2186
19748TIP3    H280660   2.871   2.495  14.897  0.9025 -0.1401 -1.1644
19749TIP3   OH280661   2.805   5.174   0.778 -0.0481  0.1126  0.6170
19749TIP3    H180662   2.743   5.240   0.807 -0.7521  0.4265 -1.4064
19749TIP3    H280663   2.864   5.221   0.718  1.9991 -0.2499  2.2321
19750TIP3   OH280664   4.201   1.245  15.020 -0.3766 -0.2264 -0.6030
19750TIP3    H180665   4.266   1.305  15.057  0.1434 -0.5281 -1.0155
19750TIP3    H280666   4.117   1.284  15.044 -0.0558 -0.1802  0.5042
19751TIP3   OH280667   6.219   2.307  11.640  0.2378 -0.6270 -0.5572
19751TIP3    H180668   6.237   2.219  11.609 -0.1418 -0.9149  0.0170
19751TIP3    H280669   6.189   2.355  11.563  1.1737 -0.7814 -1.0300
19752TIP3   OH280670   2.023   1.163  17.621  0.3623 -0.0169 -0.1832
19752TIP3    H180671   2.113   1.136  17.635 -0.2660 -2.2094  0.0402
19752TIP3    H280672   2.011   1.238  17.679  2.5467  1.5805 -1.6545
19753TIP3   OH280673   2.363   1.451  12.231 -0.4387 -0.2928 -0.2268
19753TIP3    H180674   2.279   1.407  12.219 -0.8601  0.1525  0.9586
19753TIP3    H280675   2.389   1.429  12.320 -0.0773  0.8884 -0.0201
19754TIP3   OH280676   0.187   3.227  15.126  0.0516  0.0462  0.2112
19754TIP3    H180677   0.241   3.284  15.072 -0.8516  0.7070 -0.0066
19754TIP3    H280678   0.099   3.264  15.121 -0.2045 -0.3415  1.5038
19755TIP3   OH280679   5.111   5.936  15.633  0.0665  0.4421  0.5225
19755TIP3    H180680   5.096   5.842  15.630 -1.0036  0.6151  0.1223
19755TIP3    H280681   5.124   5.956  15.726 -2.1175  0.2470  0.9072
19756TIP3   OH280682   4.703   1.431  17.062 -0.4124  0.2570 -0.2722
19756TIP3    H180683   4.741   1.479  16.989  0.3709 -1.1057 -0.7949
19756TIP3    H280684   4.676   1.347  17.025 -0.4419 -0.2711  0.8943
19757TIP3   OH280685   2.489   2.876  12.822  0.0351 -0.3498  0.6500
19757TIP3    H180686   2.433   2.850  12.748 -2.4605  2.1928  1.4785
19757TIP3    H280687   2.474   2.809  12.888  1.2092 -1.8864 -0.5579
19758TIP3   OH280688   6.205   5.964  16.673 -0.2790 -0.4218 -0.0634
19758TIP3    H180689   6.211   5.938  16.765 -0.8207  0.6843  0.3058
19758TIP3    H280690   6.212   5.882  16.624  0.6516 -0.9593  0.9305
19759TIP3   OH280691   1.174   3.133   3.386 -0.2588  0.5767 -0.2865
19759TIP3    H180692   1.220   3.113   3.304 -0.9373  1.4714 -0.9012
19759TIP3    H280693   1.197   3.224   3.405 -2.4215  1.3688 -1.1019
19760TIP3   OH280694   5.124   5.218   2.293 -0.4188  0.3412 -0.0034
19760TIP3    H180695   5.212   5.186   2.273  0.1315  1.3778  0.6974
19760TIP3    H280696   5.126   5.235   2.388 -1.2983  0.5867 -0.0259
19761TIP3   OH280697   2.671   0.958  17.575 -0.1571 -0.0110  0.2008
19761TIP3    H180698   2.589   0.961  17.525  0.0238  1.4657 -0.0263
19761TIP3    H280699   2.660   0.881  17.632 -1.2690 -0.4399 -0.5440
19762TIP3   OH280700   2.649   5.154   5.305  0.1422  0.4306 -0.3801
19762TIP3    H180701   2.706   5.080   5.281 -0.1150  0.2015 -0.2950
19762TIP3    H280702   2.653   5.156   5.401 -0.6808 -0.1472 -0.3200
19763TIP3   OH280703   1.741   2.739   0.557 -0.3528  0.1129  0.2359
19763TIP3    H180704   1.831   2.721   0.529  0.1859  4.0156 -1.1675
19763TIP3    H280705   1.688   2.721   0.480 -0.6464 -0.9243  0.6608
19764TIP3   OH280706   1.700   1.992  13.719 -0.6488  0.0331  0.3614
19764TIP3    H180707   1.683   2.073  13.766 -0.8293 -0.5098  1.2586
19764TIP3    H280708   1.781   2.008  13.671 -0.7665  0.7910  0.4150
19765TIP3   OH280709   5.195   1.840   2.450  0.0609 -0.3032  0.5558
19765TIP3    H180710   5.156   1.925   2.472  0.4124  0.6438 -2.1046
19765TIP3    H280711   5.211   1.844   2.356  0.3117 -3.2749  0.3663
19766TIP3   OH280712   2.263   2.815  14.271  0.3736 -0.3379 -0.2371
19766TIP3    H180713   2.323   2.821  14.345  1.6004  0.6565 -1.2628
19766TIP3    H280714   2.269   2.724  14.243  1.5258 -0.2281 -0.3953
19767TIP3   OH280715   2.021   3.762   0.478 -0.3023  0.8607 -0.4688
19767TIP3    H180716   2.027   3.670   0.451 -1.6153 -0.1847  2.3631
19767TIP3    H280717   2.111   3.794   0.473  0.4500 -1.0458 -0.1064
19768TIP3   OH280718   1.250   2.213  15.614 -0.3917 -0.2853  0.5943
19768TIP3    H180719   1.327   2.176  15.659 -0.7954 -1.1456  0.5985
19768TIP3    H280720   1.252   2.173  15.527 -1.4411 -1.1906  0.9584
19769TIP3   OH280721   6.154   6.686   6.964  0.5668  0.2895 -0.6564
19769TIP3    H180722   6.209   6.749   7.010  1.3238  0.0228 -1.1733
19769TIP3    H280723   6.119   6.629   7.033  0.3169  0.9315 -0.2468
19770TIP3   OH280724   0.529   1.062   0.552 -0.3983  0.1654 -0.0798
19770TIP3    H180725   0.587   1.052   0.627 -0.0452  1.9565 -0.0625
19770TIP3    H280726   0.460   1.122   0.583  0.2622  1.6944 -1.4040
19771TIP3   OH280727   2.904   3.087   2.674  0.1806  0.1450 -0.5463
19771TIP3    H180728   2.826   3.127   2.637  0.3767 -0.8346 -2.0954
19771TIP3    H280729   2.875   3.001   2.704  0.4374  0.2055 -0.1049
19772TIP3   OH280730   1.973   3.280  15.260 -0.2984 -0.1243 -0.0569
19772TIP3    H180731   1.900   3.329  15.297  0.0540  0.8650 -0.6339
19772TIP3    H280732   2.008   3.337  15.192  1.8307  0.0023  1.0655
19773TIP3   OH280733   0.597   6.581   4.831 -0.0743 -0.0368  0.3066
19773TIP3    H180734   0.514   6.534   4.831 -0.6048  0.8517  1.2365
19773TIP3    H280735   0.588   6.647   4.762  0.0133 -0.1942  0.1441
19774TIP3   OH280736   6.264   5.517   4.799 -0.0511  0.6592 -0.1330
19774TIP3    H180737   6.177   5.489   4.771 -1.0204  2.6255  0.6786
19774TIP3    H280738   6.272   5.483   4.888  0.5072 -0.4825 -0.6066
19775TIP3   OH280739   0.073   3.791  12.307 -0.0100 -0.4036 -0.2775
19775TIP3    H180740   0.020   3.773  12.385 -0.4732 -0.9728 -0.7150
19775TIP3    H280741   0.065   3.712  12.254 -1.4636  0.7406 -1.9078
19776TIP3   OH280742   5.479   5.899  11.731  0.1486 -0.3914 -0.0251
19776TIP3    H180743   5.475   5.877  11.638 -1.6247 -1.1609  0.1870
19776TIP3    H280744   5.400   5.860  11.768 -0.5977  2.1345  1.3245
19777TIP3   OH280745   6.439   4.955   3.535 -0.1880  0.2586  0.2214
19777TIP3    H180746   6.482   4.869   3.542  2.8470  1.7628  4.3424
19777TIP3    H280747   6.498   5.014   3.582 -2.6838  4.4557 -1.4615
19778TIP3   OH280748   1.483   2.396  11.132  0.2159 -0.1230 -0.3617
19778TIP3    H180749   1.539   2.435  11.199  1.1581 -1.2383 -0.4585
19778TIP3    H280750   1.423   2.466  11.106 -0.1746  0.3541  1.6257
19779TIP3   OH280751   2.780   0.950  13.934 -0.0065 -0.7710 -0.0768
19779TIP3    H180752   2.751   0.945  14.026 -0.9569  2.1307 -0.0917
19779TIP3    H280753   2.828   0.869  13.919  0.6909 -1.1058  3.1685
19780TIP3   OH280754   1.538   4.713   0.309  0.6765 -0.4757  0.5754
19780TIP3    H180755   1.575   4.712   0.221  0.6775 -1.6957  0.5664
19780TIP3    H280756   1.467   4.778   0.305  1.5462  0.4621  0.0654
19781TIP3   OH280757   2.264   3.736   2.527 -0.0946  0.3968 -0.1067
19781TIP3    H180758   2.306   3.684   2.595  0.7871  0.0114 -0.9280
19781TIP3    H280759   2.180   3.762   2.565  1.0269  1.5774  1.7678
19782TIP3   OH280760   1.788   6.213   1.248  0.2885  0.2826 -0.1608
19782TIP3    H180761   1.814   6.271   1.320  1.1078 -1.0028  0.6302
19782TIP3    H280762   1.835   6.246   1.172  0.7735  0.6293  0.2850
19783TIP3   OH280763   4.766   0.376  13.410  0.1473 -0.0828  0.1798
19783TIP3    H180764   4.685   0.425  13.421 -1.3341 -1.7928 -2.0351
19783TIP3    H280765   4.819   0.430  13.352 -0.6001 -0.1468 -0.5839
19784TIP3   OH280766   6.487   0.380   4.605  0.5102  0.4076  0.2900
19784TIP3    H180767   6.540   0.360   4.528 -0.7688 -2.1425 -0.0412
19784TIP3    H280768   6.545   0.361   4.679  0.7913 -0.0565 -0.0440
19785TIP3   OH280769   5.059   6.464  12.722  0.1225 -0.0384 -0.3536
19785TIP3    H180770   5.023   6.433  12.805  1.0398 -0.3796 -0.0746
19785TIP3    H280771   5.026   6.402  12.657  0.6967 -0.7265 -0.0105
19786TIP3   OH280772   4.088   1.639  17.131 -0.1638  0.4047  0.1111
19786TIP3    H180773   4.160   1.661  17.071  0.3119 -2.2925 -0.4353
19786TIP3    H280774   4.012   1.627  17.074 -0.3546  0.4008  0.3639
19787TIP3   OH280775   1.655   2.844  16.232 -0.0225  0.1575 -0.1319
19787TIP3    H180776   1.649   2.777  16.300  2.7840 -1.6953 -1.4988
19787TIP3    H280777   1.597   2.813  16.163  1.8419 -1.4391 -1.0830
19788TIP3   OH280778   2.045   0.969  15.779 -0.1822  0.0876  0.5059
19788TIP3    H180779   2.082   1.053  15.753 -0.5202  0.6968  1.9087
19788TIP3    H280780   2.057   0.965  15.873  1.2259 -2.1389  0.3155
19789TIP3   OH280781   5.476   3.436  10.729  0.1130  0.1098 -0.5931
19789TIP3    H180782   5.441   3.359  10.774  1.8013 -1.8391 -2.3944
19789TIP3    H280783   5.497   3.497  10.800 -0.7797 -1.2713  0.9542
19790TIP3   OH280784   2.425   3.021   4.039  0.7358  0.2095 -0.5650
19790TIP3    H180785   2.366   3.097   4.042 -0.2499 -0.5109 -1.2071
19790TIP3    H280786   2.400   2.974   3.960  1.4793 -0.6825 -0.2848
19791TIP3   OH280787   6.220   2.743  16.196  0.0973 -0.2728 -0.1054
19791TIP3    H180788   6.158   2.768  16.127  0.7007 -0.3453 -0.6831
19791TIP3    H280789   6.175   2.672  16.244 -1.0102  0.8677  0.6205
19792TIP3   OH280790   6.641   3.633  11.691 -0.2610  0.2159 -0.4446
19792TIP3    H180791   6.626   3.661  11.600  0.3987  3.3173  0.2905
19792TIP3    H280792   6.565   3.667  11.739 -0.4126 -1.0585  0.2497
19793TIP3   OH280793   5.116   4.629   1.369  0.3190  0.3215  0.6316
19793TIP3    H180794   5.146   4.714   1.400  0.5221  0.1395  0.9352
19793TIP3    H280795   5.189   4.570   1.384  0.4216  0.2305 -0.2074
19794TIP3   OH280796   4.100   5.245  11.191 -0.3728 -0.1691 -0.8131
19794TIP3    H180797   4.056   5.264  11.108  0.1824 -0.0824 -1.0983
19794TIP3    H280798   4.096   5.150  11.199 -0.1901 -0.2011 -1.0783
19795TIP3   OH280799   5.988   2.070   4.614  0.0235 -0.4787  0.5882
19795TIP3    H180800   5.949   2.052   4.528 -1.2315  1.4158  0.6962
19795TIP3    H280801   5.999   1.984   4.654 -1.2072 -1.2834 -0.7076
19796TIP3   OH280802   5.670   4.735  13.735 -0.0919  0.5047  0.2778
19796TIP3    H180803   5.665   4.741  13.639 -0.3600  0.7661  0.3082
19796TIP3    H280804   5.676   4.826  13.765  1.6492  0.3840  0.4306
19797TIP3   OH280805   4.994   2.834   1.241 -0.1193  0.0925  0.0865
19797TIP3    H180806   5.020   2.874   1.324  0.8246  2.9017 -1.4537
19797TIP3    H280807   5.077   2.821   1.194 -0.4218 -3.2404  0.1749
19798TIP3   OH280808   3.918   4.622   3.324  0.1535 -0.3489  0.0863
19798TIP3    H180809   3.970   4.681   3.378 -0.1437  0.3569 -0.3932
19798TIP3    H280810   3.974   4.545   3.313  0.3751 -0.3342  1.0575
19799TIP3   OH280811   1.840   2.695  12.784 -0.2572 -0.1427  0.2358
19799TIP3    H180812   1.854   2.601  12.790  0.2284 -0.0232  1.3855
19799TIP3    H280813   1.926   2.731  12.763 -0.2774  0.0863  0.5234
19800TIP3   OH280814   1.439   4.568  16.812  0.0068  0.1005  0.4496
19800TIP3    H180815   1.374   4.637  16.823  1.6524  1.8031  0.0131
19800TIP3    H280816   1.439   4.521  16.896 -1.5231  0.2683  0.5613
19801TIP3   OH280817   0.868   0.012   4.715  0.5742 -0.5172 -0.6360
19801TIP3    H180818   0.833  -0.047   4.648 -2.9493  0.2433  0.3321
19801TIP3    H280819   0.881  -0.044   4.792 -0.2776 -0.5558 -0.5004
19802TIP3   OH280820   5.960   0.300  10.590 -0.2015 -0.3330  0.1932
19802TIP3    H180821   5.990   0.270  10.676  1.4526  0.0256 -0.2203
19802TIP3    H280822   6.036   0.290  10.533 -0.6074  1.3962 -0.7501
19803TIP3   OH280823   1.674   0.211   4.986  0.6424  0.1809 -0.2536
19803TIP3    H180824   1.680   0.117   4.966 -1.1628 -0.1078  0.3888
19803TIP3    H280825   1.684   0.216   5.081  2.1057  0.8070 -0.4196
19804TIP3   OH280826   4.923   6.668  11.466  0.5828 -0.0985  0.1524
19804TIP3    H180827   4.988   6.636  11.404  0.1227 -0.5077 -0.1193
19804TIP3    H280828   4.842   6.625  11.441  0.5755 -1.0086  1.6149
19805TIP3   OH280829   2.835   3.297   4.436 -0.3086 -0.5963 -0.5205
19805TIP3    H180830   2.888   3.344   4.501  0.3992 -2.1292  0.0596
19805TIP3    H280831   2.746   3.299   4.471 -0.5074  1.2109 -1.0442
19806TIP3   OH280832   5.046   0.285  12.324  0.8539 -0.4886 -0.5507
19806TIP3    H180833   5.042   0.237  12.242  0.2878  1.2994 -1.6190
19806TIP3    H280834   5.139   0.303  12.338  0.8553  0.3364 -1.5180
19807TIP3   OH280835   0.256   4.566  12.510 -0.1040 -0.0888 -0.3063
19807TIP3    H180836   0.317   4.585  12.439  0.0011 -0.8041 -0.4123
19807TIP3    H280837   0.185   4.628  12.497 -0.1501 -0.2958 -1.1239
19808TIP3   OH280838   4.281   1.190   6.206 -0.2932  0.0823 -0.4970
19808TIP3    H180839   4.214   1.154   6.265  0.8070 -0.1211  0.6758
19808TIP3    H280840   4.354   1.129   6.213 -0.1470  0.0405 -2.1355
19809TIP3   OH280841   4.698   3.029  12.865 -0.0604 -0.4483  0.3371
19809TIP3    H180842   4.631   3.094  12.883 -1.0723 -1.5152  0.5766
19809TIP3    H280843   4.655   2.964  12.810  1.3213 -0.2289 -1.0791
19810TIP3   OH280844   6.108   4.443   3.031 -0.9572 -0.0001  0.2931
19810TIP3    H180845   6.121   4.379   2.961 -2.2651 -1.2395  1.1193
19810TIP3    H280846   6.152   4.404   3.107  0.0824  1.1266  0.2963
19811TIP3   OH280847   0.895   4.176  16.204 -0.1270  0.4813 -0.3718
19811TIP3    H180848   0.832   4.241  16.233  0.9346  2.1389 -1.6021
19811TIP3    H280849   0.906   4.118  16.279 -0.1962  2.4312  1.2166
19812TIP3   OH280850   0.923   5.194   2.319  1.0891 -0.0914  0.6682
19812TIP3    H180851   0.925   5.216   2.226 -0.7284  1.5910  0.9728
19812TIP3    H280852   1.015   5.202   2.347  1.3153  1.9487 -0.4452
19813TIP3   OH280853   3.762   3.948   1.695  0.1316  0.4433  0.2459
19813TIP3    H180854   3.730   3.913   1.778 -2.0953  0.8472 -0.3656
19813TIP3    H280855   3.713   3.899   1.628 -1.0628  2.7386 -0.6835
19814TIP3   OH280856   2.479   3.405  11.829 -0.3431  0.2838 -0.5154
19814TIP3    H180857   2.567   3.443  11.822  0.5598 -1.0662  2.1985
19814TIP3    H280858   2.485   3.321  11.784 -0.7435  0.8676 -1.6978
19815TIP3   OH280859   1.118   4.246   5.803 -0.3369  0.4623  0.2739
19815TIP3    H180860   1.069   4.308   5.857  0.8426  0.3235  1.5824
19815TIP3    H280861   1.176   4.301   5.750 -2.0606  0.6440 -1.5086
19816TIP3   OH280862   3.890   2.284  13.277  0.0247  1.2558  0.6659
19816TIP3    H180863   3.868   2.338  13.201 -0.3746  1.0765  0.6539
19816TIP3    H280864   3.986   2.281  13.277  0.0684 -1.1468 -1.5847
19817TIP3   OH280865   5.270   0.809   4.492  0.5606  0.6432  0.4167
19817TIP3    H180866   5.301   0.899   4.484 -1.5283  1.4594  0.7215
19817TIP3    H280867   5.241   0.785   4.404  1.3077  0.1890  0.2922
19818TIP3   OH280868   2.128   2.116   5.489  0.2607 -0.3955  0.2248
19818TIP3    H180869   2.131   2.111   5.585  1.3416  2.0399  0.3963
19818TIP3    H280870   2.035   2.115   5.467  0.0035 -0.9720  1.2899
19819TIP3   OH280871   3.758   3.550  16.923 -0.2072  0.7631  0.2960
19819TIP3    H180872   3.700   3.624  16.944  0.1917  1.0543  0.3907
19819TIP3    H280873   3.727   3.519  16.838 -1.1472  0.2637  0.7947
19820TIP3   OH280874   5.253   3.357  14.319  0.0665  0.2841  0.7360
19820TIP3    H180875   5.227   3.348  14.228 -0.0765 -0.4419  0.8402
19820TIP3    H280876   5.323   3.423  14.318 -1.5763  2.1219  0.4341
19821TIP3   OH280877   5.843   5.784   4.945  0.1087  0.0734 -0.2320
19821TIP3    H180878   5.855   5.767   4.852  0.9858 -1.5508  0.1329
19821TIP3    H280879   5.816   5.700   4.982  0.7523  0.4267  1.1228
19822TIP3   OH280880   3.844   3.835   3.697  0.8490  0.2813 -0.0730
19822TIP3    H180881   3.794   3.799   3.624  0.1689 -0.9896  0.9803
19822TIP3    H280882   3.855   3.927   3.676  1.0917 -0.1465 -2.0017
19823TIP3   OH280883   0.294   1.359   2.450  0.2713  0.1057  0.3170
19823TIP3    H180884   0.300   1.396   2.362 -2.4795 -2.9876 -1.4397
19823TIP3    H280885   0.221   1.406   2.491  0.2340  0.1927  0.1504
19824TIP3   OH280886   6.621   1.701   3.848  0.1393  0.1111  0.4452
19824TIP3    H180887   6.675   1.730   3.774  0.7255 -2.2161 -0.1116
19824TIP3    H280888   6.682   1.697   3.922  0.2873 -0.5772  0.2924
19825TIP3   OH280889   4.358   1.973   0.090 -0.1426 -0.7326 -0.2366
19825TIP3    H180890   4.276   1.932   0.116  0.0421 -1.5114 -0.8540
19825TIP3    H280891   4.364   2.051   0.145 -0.5671 -1.4549  0.8732
19826TIP3   OH280892   5.128   4.250   1.252 -0.0152  0.1841 -0.1978
19826TIP3    H180893   5.091   4.337   1.240 -0.0021 -0.1982 -3.9804
19826TIP3    H280894   5.217   4.256   1.219 -0.3550 -1.4599 -1.5625
19827TIP3   OH280895   0.905   6.449  16.281  0.0544  0.2153  0.5434
19827TIP3    H180896   0.939   6.399  16.207 -1.2420 -0.7866  0.5835
19827TIP3    H280897   0.965   6.428  16.353  2.8623  3.1963 -0.7135
19828TIP3   OH280898   0.231   4.532  15.985  0.7192 -0.0080  0.1710
19828TIP3    H180899   0.223   4.477  15.907  1.2358  0.6158 -0.3283
19828TIP3    H280900   0.325   4.542  15.999  0.6518  1.1828 -0.0714
19829TIP3   OH280901   4.007   1.444  15.172 -0.2110 -0.4717 -0.2110
19829TIP3    H180902   3.914   1.464  15.176  0.0668  0.7886  0.9981
19829TIP3    H280903   4.030   1.415  15.260  0.5174 -0.9235 -0.5354
19830TIP3   OH280904   3.927   4.011   0.840  0.2074  0.5549 -0.0551
19830TIP3    H180905   3.880   3.977   0.917  0.0779  0.8214 -0.0173
19830TIP3    H280906   3.977   3.936   0.808  0.0097  0.3565  0.0984
19831TIP3   OH280907   1.962   2.955   5.124  0.0527 -0.0344  0.1247
19831TIP3    H180908   1.928   2.912   5.046 -0.0832 -2.4541  1.4392
19831TIP3    H280909   2.022   2.892   5.163  1.4808  1.7999  1.0822
19832TIP3   OH280910   5.692   0.100  16.585 -0.4378 -0.0158  0.0686
19832TIP3    H180911   5.682   0.094  16.680  0.2008 -0.3593  0.1173
19832TIP3    H280912   5.633   0.032  16.550 -0.3450 -0.1818  0.2357
19833TIP3   OH280913   2.393   5.284  17.427  0.0578 -0.0737 -0.2820
19833TIP3    H180914   2.362   5.211  17.480 -0.6608  0.2520 -0.2459
19833TIP3    H280915   2.326   5.351  17.437  1.3280  1.0943  0.7129
19834TIP3   OH280916   2.345   5.831   2.466 -0.2523  0.0078  0.0585
19834TIP3    H180917   2.348   5.925   2.479 -0.1530 -0.1488  1.3001
19834TIP3    H280918   2.330   5.795   2.554 -1.7409 -1.0647 -0.5996
19835TIP3   OH280919   2.177   2.239  12.481  0.7527 -0.3675 -0.4140
19835TIP3    H180920   2.095   2.235  12.432 -0.0119  0.0834  0.7730
19835TIP3    H280921   2.214   2.151  12.474  0.0935 -0.6158 -0.8327
19836TIP3   OH280922   1.054   1.482   3.696  0.1226 -0.0526  0.5274
19836TIP3    H180923   1.111   1.500   3.621  1.2549  0.3451  1.4509
19836TIP3    H280924   1.054   1.563   3.747 -2.8855  0.6756 -0.3982
19837TIP3   OH280925   0.351   1.399  13.610  0.5547  0.5943 -0.4173
19837TIP3    H180926   0.278   1.458  13.629 -0.8794 -0.3731 -2.5117
19837TIP3    H280927   0.316   1.312  13.629  0.6418  0.0049 -2.7228
19838TIP3   OH280928   0.630   0.522   2.722  0.7802 -0.3128  0.3774
19838TIP3    H180929   0.620   0.433   2.757  0.4721  0.0871  1.3340
19838TIP3    H280930   0.720   0.546   2.742  0.2784  0.3418  1.9499
19839TIP3   OH280931   6.408   1.968  15.874  0.3338  0.0937 -0.2049
19839TIP3    H180932   6.436   1.927  15.792 -0.5642  0.9041 -0.9363
19839TIP3    H280933   6.405   2.061  15.854 -0.3805  0.2521  0.6040
19840TIP3   OH280934   0.551   0.008  16.445  0.0736  0.5742  0.4879
19840TIP3    H180935   0.595   0.080  16.490  0.1718  1.1089 -0.4392
19840TIP3    H280936   0.579  -0.071  16.493  1.5666  0.9526  0.2940
19841TIP3   OH280937   5.786   6.470   2.002 -0.2079  0.4032  0.3951
19841TIP3    H180938   5.747   6.524   1.934 -0.9824  0.6580  1.0390
19841TIP3    H280939   5.790   6.526   2.079 -0.7702 -0.3667  0.9943
19842TIP3   OH280940   1.247   2.058  12.727  0.1550  0.1561  0.7883
19842TIP3    H180941   1.255   2.094  12.815 -0.0247  0.3237  0.7375
19842TIP3    H280942   1.316   1.991  12.721  0.9067  0.9279  0.6683
19843TIP3   OH280943   2.932   6.333  14.410 -0.3262 -0.7321 -0.6988
19843TIP3    H180944   2.865   6.301  14.348 -1.0311  2.5846 -1.8795
19843TIP3    H280945   3.014   6.297  14.377 -1.0503 -1.4094 -1.8406
19844TIP3   OH280946   5.350   1.098  15.205 -0.3516  0.5862  0.6014
19844TIP3    H180947   5.408   1.023  15.212  0.4038  1.2425  1.7465
19844TIP3    H280948   5.400   1.162  15.153 -1.6113 -0.2243 -1.7732
19845TIP3   OH280949   6.523   4.506   0.280  0.1726  0.1642  0.4091
19845TIP3    H180950   6.502   4.488   0.189  2.1093 -1.0510  0.1422
19845TIP3    H280951   6.613   4.476   0.290 -0.1215 -0.1086  2.8274
19846TIP3   OH280952   4.386   5.695  12.156  0.0529  0.3405  0.4515
19846TIP3    H180953   4.361   5.612  12.115 -0.6559  0.3802  0.7909
19846TIP3    H280954   4.442   5.738  12.091 -0.2250 -0.0481 -0.0532
19847TIP3   OH280955   6.380   2.342  17.164  0.0355 -1.0562  0.0114
19847TIP3    H180956   6.379   2.267  17.104 -0.3809 -0.5496 -0.6304
19847TIP3    H280957   6.299   2.390  17.144  0.8801  0.2248 -0.4422
19848TIP3   OH280958   2.525   1.471  10.723  0.0195 -0.1757  0.4096
19848TIP3    H180959   2.581   1.548  10.724  0.0359 -0.1860  2.1895
19848TIP3    H280960   2.585   1.397  10.732  0.0106 -0.4607 -1.3433
19849TIP3   OH280961   3.313   5.416   2.591 -0.3213  0.3026 -0.5930
19849TIP3    H180962   3.297   5.386   2.680 -0.5951  0.6645 -0.5159
19849TIP3    H280963   3.394   5.467   2.597 -0.2824  0.2387 -0.5718
19850TIP3   OH280964   4.570   4.700  12.741 -0.0331 -0.2409 -0.0896
19850TIP3    H180965   4.573   4.712  12.836  1.2923  0.8228 -0.2378
19850TIP3    H280966   4.659   4.678  12.716  0.2310  1.9501 -1.3599
19851TIP3   OH280967   6.490   5.447  15.930  0.2321  0.6570 -0.5866
19851TIP3    H180968   6.453   5.368  15.890  0.6753  0.6970 -1.0836
19851TIP3    H280969   6.416   5.490  15.972 -0.1609  0.3874 -0.9999
19852TIP3   OH280970   6.424   2.640   2.009  0.1370  0.7302 -0.3099
19852TIP3    H180971   6.500   2.664   2.063  1.4379 -0.6362 -1.4672
19852TIP3    H280972   6.349   2.656   2.067  1.3552  0.9943  1.2907
19853TIP3   OH280973   0.305   0.824   2.608 -0.0166  0.2771 -0.4345
19853TIP3    H180974   0.230   0.764   2.599 -0.3422  0.4788  0.7429
19853TIP3    H280975   0.325   0.851   2.518 -0.0012 -1.4161 -0.9902
19854TIP3   OH280976   4.286   0.626  13.219  0.3320 -0.2831  0.6226
19854TIP3    H180977   4.327   0.567  13.155  2.0401  0.1931  1.2493
19854TIP3    H280978   4.253   0.568  13.287 -1.1327 -0.7621 -0.4365
19855TIP3   OH280979   1.420   0.157   4.279 -0.2915  0.4438  0.6064
19855TIP3    H180980   1.354   0.112   4.225  0.9237  0.6382 -1.1441
19855TIP3    H280981   1.451   0.089   4.339 -0.5854 -0.2551 -0.0037
19856TIP3   OH280982   4.731   2.121  13.536  0.3645  0.3668  0.2395
19856TIP3    H180983   4.822   2.095  13.523  0.7522  1.4379  0.7023
19856TIP3    H280984   4.680   2.042  13.516  1.4579 -0.5788  1.0773
19857TIP3   OH280985   2.226   3.825   3.131 -0.3100 -0.2292  0.0427
19857TIP3    H180986   2.270   3.762   3.075 -1.5146 -0.0323 -1.1662
19857TIP3    H280987   2.290   3.896   3.142  0.1873 -0.5838 -0.5092
19858TIP3   OH280988   1.167   2.328  11.653 -0.1018 -0.0283  0.3487
19858TIP3    H180989   1.234   2.263  11.671  1.0993  0.7202 -1.1339
19858TIP3    H280990   1.161   2.330  11.557 -0.7645  1.3635  0.3951
19859TIP3   OH280991   0.454   0.796   4.089 -0.0739 -0.6458  0.0280
19859TIP3    H180992   0.504   0.821   4.011 -0.7344  2.0062  0.3597
19859TIP3    H280993   0.363   0.811   4.064 -0.5709 -2.9118  0.2929
19860TIP3   OH280994   3.822   2.385  12.463  0.1253  0.5969 -0.9238
19860TIP3    H180995   3.771   2.352  12.537  0.6136  1.4779 -0.1670
19860TIP3    H280996   3.805   2.322  12.392 -2.1547  0.9471 -0.7831
19861TIP3   OH280997   1.562   4.815  13.662  0.7507  0.5339  0.1053
19861TIP3    H180998   1.580   4.898  13.618  1.1200  0.1009 -0.5714
19861TIP3    H280999   1.482   4.782  13.620 -0.2188  1.2153  1.3440
19862TIP3   OH281000   2.605   2.343  16.659 -0.0364  0.4349  0.0197
19862TIP3    H181001   2.618   2.372  16.749  1.3408  0.9440 -0.3183
19862TIP3    H281002   2.593   2.424  16.609 -1.2203  0.1397 -0.2145
19863TIP3   OH281003   1.565   5.105   5.448 -0.2520  0.3850  0.0977
19863TIP3    H181004   1.658   5.104   5.425 -0.0904 -0.8619  0.7284
19863TIP3    H281005   1.525   5.040   5.389 -0.7354  0.9126 -0.1707
19864TIP3   OH281006   0.798   3.284  14.961 -0.0816  0.5417  0.8548
19864TIP3    H181007   0.847   3.366  14.948 -0.9806  1.1846  1.3947
19864TIP3    H281008   0.822   3.231  14.885  1.8367  0.6108  1.3461
19865TIP3   OH281009   3.752   5.652   0.835  0.6187  0.6962  0.0597
19865TIP3    H181010   3.810   5.631   0.762  0.2768  0.8129 -0.2503
19865TIP3    H281011   3.794   5.614   0.912  1.5119  1.4693 -0.0316
19866TIP3   OH281012   3.572   6.398   4.056  0.4608 -0.0318  0.6660
19866TIP3    H181013   3.529   6.483   4.044  0.1984  0.0103  1.8228
19866TIP3    H281014   3.585   6.366   3.967  0.2769  1.0763  0.2174
19867TIP3   OH281015   2.548   3.513  13.789  0.2702 -0.2398  0.1660
19867TIP3    H181016   2.454   3.508  13.804  0.2832  1.4161  1.0426
19867TIP3    H281017   2.587   3.481  13.870  0.4646 -0.7463 -0.1251
19868TIP3   OH281018   1.272   0.243   3.286  0.5485  0.8403 -0.6693
19868TIP3    H181019   1.210   0.313   3.265 -0.2704  0.2532 -0.2483
19868TIP3    H281020   1.299   0.209   3.201 -0.6046  0.3333 -0.8504
19869TIP3   OH281021   4.721   3.151  17.224 -0.0341 -0.1317  0.2165
19869TIP3    H181022   4.723   3.116  17.312 -0.7237  0.8980  0.6662
19869TIP3    H281023   4.779   3.227  17.227 -1.5150  1.0634  0.3480
19870TIP3   OH281024   1.438   5.422   1.348 -0.4688  0.1011  0.2592
19870TIP3    H181025   1.522   5.412   1.394  0.1545 -0.6549 -0.9858
19870TIP3    H281026   1.448   5.504   1.299 -0.5021  0.0687  0.1985
19871TIP3   OH281027   1.866   3.535  11.654 -0.3350 -0.1819 -0.1171
19871TIP3    H181028   1.935   3.600  11.671 -0.5632 -0.1186  0.5971
19871TIP3    H281029   1.914   3.455  11.631 -0.0624  0.4633 -1.8932
19872TIP3   OH281030   1.835   3.964  16.143 -0.1315  0.3732 -0.8297
19872TIP3    H181031   1.926   3.942  16.165 -0.3455  0.3600  0.0799
19872TIP3    H281032   1.789   3.961  16.226 -0.9595  0.4564 -1.2757
19873TIP3   OH281033   2.718   1.040  15.628  0.4029  0.2745 -0.3742
19873TIP3    H181034   2.766   1.030  15.711 -1.3915  0.5585  0.7618
19873TIP3    H281035   2.688   0.952  15.607  0.5557  0.2572 -0.5143
19874TIP3   OH281036   0.913   0.683   2.736  0.5879  0.4267  0.0719
19874TIP3    H181037   0.981   0.745   2.762  0.9285  0.3756 -0.6756
19874TIP3    H281038   0.919   0.612   2.800 -0.7383  1.7882  1.8149
19875TIP3   OH281039   1.289   0.180  15.469 -0.3563  0.0628  0.0422
19875TIP3    H181040   1.334   0.113  15.520 -1.2308  0.3803  1.2724
19875TIP3    H281041   1.209   0.137  15.438 -0.6108  0.3524  0.2942
19876TIP3   OH281042   3.240   0.336  16.412 -0.1465  0.0164 -0.1566
19876TIP3    H181043   3.191   0.419  16.407  0.8108  0.6907  1.0541
19876TIP3    H281044   3.306   0.344  16.343  1.2585  1.2106  1.2414
19877TIP3   OH281045   5.373   2.387  11.369 -0.5254  0.3225  0.1440
19877TIP3    H181046   5.458   2.427  11.349 -0.4562  0.8784  1.4059
19877TIP3    H281047   5.309   2.451  11.338 -0.5328 -0.5909 -1.8071
19878TIP3   OH281048   2.602   2.149  16.458 -0.2232 -0.3141  0.0241
19878TIP3    H181049   2.517   2.106  16.448 -0.9380  1.1839 -0.7547
19878TIP3    H281050   2.590   2.210  16.531 -0.7578  1.8943 -1.7930
19879TIP3   OH281051   2.054   4.400  16.081 -0.4837  0.0427  0.0101
19879TIP3    H181052   1.967   4.437  16.098 -1.7411 -2.2339 -0.9162
19879TIP3    H281053   2.083   4.442  16.001 -1.5469 -0.3852 -0.6266
19880TIP3   OH281054   6.413   6.081  13.848  0.0576 -0.0273  0.4907
19880TIP3    H181055   6.334   6.134  13.835  1.7759  2.8938  0.8654
19880TIP3    H281056   6.437   6.096  13.940  1.1514 -0.7020  0.3343
19881TIP3   OH281057   1.350   0.316   0.959 -0.2461 -0.4375 -0.1219
19881TIP3    H181058   1.376   0.284   0.873 -0.1780 -0.2760 -0.1620
19881TIP3    H281059   1.309   0.241   1.002  0.2651 -0.6868 -0.0637
19882TIP3   OH281060   0.740   1.279  16.567  0.3101  0.1992  0.0660
19882TIP3    H181061   0.738   1.276  16.471  0.7627  0.9464  0.0160
19882TIP3    H281062   0.819   1.330  16.587  0.4459 -0.2955  0.8481
19883TIP3   OH281063   2.433   1.995  11.544  0.3942 -0.5667  0.0220
19883TIP3    H181064   2.461   1.915  11.588  1.4813 -0.8584 -1.1583
19883TIP3    H281065   2.497   2.009  11.475 -1.3849 -0.2646 -1.6473
19884TIP3   OH281066   2.345   2.201   2.312  0.0326 -0.0763 -0.1659
19884TIP3    H181067   2.388   2.279   2.276 -0.8905  0.3432 -0.3779
19884TIP3    H281068   2.302   2.160   2.236  0.5734 -0.8504 -0.0739
19885TIP3   OH281069   6.169   4.738   2.065  0.0979 -0.0295 -0.0330
19885TIP3    H181070   6.139   4.667   2.009  0.9688  0.7041 -1.5116
19885TIP3    H281071   6.161   4.816   2.010  1.6047  0.6353  0.6328
19886TIP3   OH281072   4.931   1.122  15.399 -0.3095 -0.3958 -0.0159
19886TIP3    H181073   4.882   1.056  15.350 -1.4739 -0.0272  0.6177
19886TIP3    H281074   4.894   1.205  15.371 -0.5936 -0.1471  1.0479
19887TIP3   OH281075   5.108   1.336   4.374 -0.0363 -0.4988 -0.6642
19887TIP3    H181076   5.141   1.272   4.310 -1.6975 -1.5105 -0.5460
19887TIP3    H281077   5.031   1.295   4.411  0.0981  0.6888  1.0042
19888TIP3   OH281078   6.046   4.779   1.291  0.2145  0.1253  0.1341
19888TIP3    H181079   6.025   4.871   1.308  0.9835  0.0390  1.7409
19888TIP3    H281080   6.033   4.769   1.196 -0.0357  1.8352 -0.0527
19889TIP3   OH281081   6.063   0.181   2.142  0.4085  0.1439  0.2548
19889TIP3    H181082   6.074   0.092   2.174 -1.6737 -0.4675 -0.5523
19889TIP3    H281083   6.120   0.234   2.197  0.7539 -1.5130  1.5695
19890TIP3   OH281084   6.448   4.434   5.114 -0.1803 -0.7262 -0.1509
19890TIP3    H181085   6.504   4.357   5.127  0.7315  0.1295  1.2399
19890TIP3    H281086   6.448   4.447   5.019  2.2934 -0.5911 -0.2005
19891TIP3   OH281087   2.603   2.962  13.816  1.4201  0.1614  0.6739
19891TIP3    H181088   2.665   2.991  13.883  1.8903  1.7104 -0.3746
19891TIP3    H281089   2.616   2.867  13.811  1.8473  0.1100  2.2728
19892TIP3   OH281090   5.284   3.529   3.983 -0.0651  0.1020 -0.4855
19892TIP3    H181091   5.204   3.582   3.992 -1.0366 -1.0557 -1.8643
19892TIP3    H281092   5.333   3.546   4.064 -2.5359 -0.5418  1.2626
19893TIP3   OH281093   2.485   6.141   3.995  0.1024  0.0155  0.0442
19893TIP3    H181094   2.551   6.206   4.018  0.6278 -0.2971 -0.5704
19893TIP3    H281095   2.496   6.126   3.901  1.6958 -2.7839  0.5674
19894TIP3   OH281096   1.519   1.825  11.850  0.4638 -0.3876  0.0462
19894TIP3    H181097   1.443   1.854  11.801  0.0939  0.2996  1.0118
19894TIP3    H281098   1.525   1.731  11.831 -0.2667 -0.3310 -0.5024
19895TIP3   OH281099   0.339   1.580  15.705 -0.2447 -0.0751  0.1572
19895TIP3    H181100   0.359   1.633  15.628  0.9522  1.0821  1.2195
19895TIP3    H281101   0.246   1.595  15.722  0.1492  2.0900  0.6761
19896TIP3   OH281102   6.404   3.647  14.645  0.1877  0.0717  0.2255
19896TIP3    H181103   6.460   3.724  14.633 -1.7171  1.2712 -1.4476
19896TIP3    H281104   6.452   3.576  14.602 -0.0401  1.3253 -2.2682
19897TIP3   OH281105   2.123   2.885  15.989 -0.2539 -0.2731 -0.5774
19897TIP3    H181106   2.130   2.976  15.960  0.9772  0.1839  0.9632
19897TIP3    H281107   2.030   2.873  16.008 -0.0510  1.9494  2.7741
19898TIP3   OH281108   4.899   0.902  15.123  0.2190  0.2569  0.4443
19898TIP3    H181109   4.951   0.823  15.138  1.3740  0.7870 -0.5431
19898TIP3    H281110   4.963   0.973  15.127 -0.2188  0.8596 -1.6874
19899TIP3   OH281111   3.519   3.310   6.608  0.2385 -0.1016 -0.0169
19899TIP3    H181112   3.590   3.364   6.575 -0.7920  0.6813 -1.0199
19899TIP3    H281113   3.453   3.372   6.638  0.6351 -0.7978  2.4966
19900TIP3   OH281114   1.425   5.483  13.308 -0.6491  0.2230 -0.0461
19900TIP3    H181115   1.408   5.556  13.248  1.5589  0.3117 -0.6545
19900TIP3    H281116   1.469   5.523  13.383  0.6420 -0.4504 -0.4159
19901TIP3   OH281117   2.156   4.428  11.796 -0.3976 -0.3740  0.0677
19901TIP3    H181118   2.169   4.522  11.798 -1.8269 -0.1536  1.0993
19901TIP3    H281119   2.105   4.409  11.876 -0.4688 -1.9490 -0.3127
19902TIP3   OH281120   2.920   6.313  13.341  0.5074  0.0747  0.4955
19902TIP3    H181121   2.981   6.371  13.388 -2.2154  1.7753  2.1772
19902TIP3    H281122   2.974   6.237  13.317  2.9720  0.8222  3.0755
19903TIP3   OH281123   6.472   2.693   4.024  0.3011 -0.1813  0.2077
19903TIP3    H181124   6.438   2.654   3.943  0.6178 -1.5515  0.7101
19903TIP3    H281125   6.411   2.663   4.092  0.2709  0.6299  0.5507
19904TIP3   OH281126   4.026   6.625   4.848 -0.2195 -0.6270 -0.4004
19904TIP3    H181127   4.073   6.666   4.921 -0.6416  0.6851 -0.8411
19904TIP3    H281128   4.092   6.571   4.805  1.1952  1.7988 -1.5058
19905TIP3   OH281129   5.996   3.553   5.801  0.0968  0.1476 -0.2980
19905TIP3    H181130   6.085   3.557   5.764  0.5560 -1.4537  0.5377
19905TIP3    H281131   5.999   3.613   5.875  0.5533 -0.0328 -0.1612
19906TIP3   OH281132   6.563   0.745  16.829 -0.3482  0.1927 -0.3641
19906TIP3    H181133   6.630   0.692  16.871 -1.1890 -0.5678  0.0478
19906TIP3    H281134   6.489   0.686  16.818 -0.8630  0.9404 -1.0633
19907TIP3   OH281135   3.569   3.051   4.554 -0.3396 -0.3334  0.1398
19907TIP3    H181136   3.574   2.989   4.481 -2.4040  0.2218 -0.5619
19907TIP3    H281137   3.509   3.120   4.523 -0.4541  0.4657  1.9720
19908TIP3   OH281138   4.938   4.212   0.132  0.2570 -0.0270 -0.3185
19908TIP3    H181139   4.971   4.258   0.055 -1.8501  0.7365 -0.8264
19908TIP3    H281140   4.970   4.263   0.206  1.5719 -0.2651 -0.7060
19909TIP3   OH281141   0.646   6.377  10.750  0.5105  0.5355  0.3942
19909TIP3    H181142   0.660   6.463  10.710  0.8456  0.1817 -0.2606
19909TIP3    H281143   0.619   6.397  10.840  1.0633  1.3133  0.3964
19910TIP3   OH281144   6.637   2.454  16.830  0.0611 -0.8262 -0.1803
19910TIP3    H181145   6.730   2.463  16.809  0.3020 -0.2429  1.0366
19910TIP3    H281146   6.628   2.366  16.866  0.8992  0.2597  3.0531
19911TIP3   OH281147   2.479   4.360   5.323 -0.2659  0.1556 -0.7805
19911TIP3    H181148   2.520   4.304   5.258  1.6322  1.0717 -0.4326
19911TIP3    H281149   2.438   4.430   5.272 -1.3136 -0.6908 -1.1242
19912TIP3   OH281150   3.088   5.396   1.126  0.9121 -0.2090  0.0140
19912TIP3    H181151   3.105   5.410   1.033 -1.0275  0.6428 -0.2684
19912TIP3    H281152   3.097   5.482   1.166  0.5004 -0.3280  0.3762
19913TIP3   OH281153   3.453   3.056  11.627  0.4388  0.2507 -0.1623
19913TIP3    H181154   3.460   3.149  11.604 -0.9191  0.7638  1.3411
19913TIP3    H281155   3.379   3.024  11.577  0.3730  0.1963 -0.0307
19914TIP3   OH281156   2.292   3.325  14.025  0.0385  0.3014  0.0280
19914TIP3    H181157   2.233   3.329  14.101  0.8846  1.2392  0.6530
19914TIP3    H281158   2.310   3.231  14.014 -0.6002  0.1061  0.5821
19915TIP3   OH281159   1.610   0.378  13.977  0.2394 -0.4950 -0.4314
19915TIP3    H181160   1.552   0.437  13.930  1.9119  0.7947 -0.9900
19915TIP3    H281161   1.593   0.291  13.939 -1.4809 -0.2238 -0.3591
19916TIP3   OH281162   1.852   5.670   3.134 -0.3826 -0.2940 -0.1093
19916TIP3    H181163   1.814   5.726   3.202 -1.0428 -0.3893 -0.3858
19916TIP3    H281164   1.938   5.708   3.115 -0.8495  0.6728 -0.3476
19917TIP3   OH281165   6.635   5.107  12.075  0.0256  0.5204  0.4524
19917TIP3    H181166   6.569   5.176  12.069  0.1168  0.6508  0.8816
19917TIP3    H281167   6.655   5.101  12.169 -0.1886 -0.2810  0.4560
19918TIP3   OH281168   3.964   2.333  17.565  0.5299 -0.2857 -0.8731
19918TIP3    H181169   4.028   2.281  17.615 -1.7408 -2.7281 -0.2670
19918TIP3    H281170   3.980   2.309  17.474  0.6891 -0.6624 -0.7522
19919TIP3   OH281171   0.253   1.664  13.431 -0.1740  0.0103 -0.5778
19919TIP3    H181172   0.258   1.699  13.342 -0.9917  1.0264 -0.2413
19919TIP3    H281173   0.162   1.635  13.439 -0.0776 -0.1519 -0.0997
19920TIP3   OH281174   1.166   5.280  14.613  0.3282  0.0365 -0.5357
19920TIP3    H181175   1.161   5.310  14.522 -1.0723  0.8369 -0.2262
19920TIP3    H281176   1.092   5.221  14.622  1.8563 -1.9670 -0.5476
19921TIP3   OH281177   2.332   3.956  13.355 -0.1661 -0.3919 -0.0949
19921TIP3    H181178   2.392   3.921  13.421 -0.7532 -2.4080 -0.5834
19921TIP3    H281179   2.388   4.006  13.296  0.9700 -1.8067 -0.2597
19922TIP3   OH281180   2.854   5.065   4.124  0.1148 -0.3492  0.4239
19922TIP3    H181181   2.923   5.123   4.157  0.1426 -0.7617  1.1010
19922TIP3    H281182   2.876   4.979   4.159  0.9597 -1.1393 -1.8253
19923TIP3   OH281183   5.914   2.453   3.498  0.1153 -0.0439  0.2240
19923TIP3    H181184   5.964   2.462   3.417  0.2975 -1.6143  0.1205
19923TIP3    H281185   5.909   2.541   3.534  1.9371  0.3422 -0.3729
19924TIP3   OH281186   4.031   1.758  16.159  0.1004  0.5932 -0.0654
19924TIP3    H181187   4.084   1.771  16.081  3.1742 -0.2445  1.7151
19924TIP3    H281188   4.059   1.827  16.219  1.4331 -1.5555  1.9569
19925TIP3   OH281189   5.948   1.287   2.670  0.3930  0.2778  0.3678
19925TIP3    H181190   6.024   1.340   2.697  0.6111  0.3968 -0.4479
19925TIP3    H281191   5.882   1.352   2.646  1.0542  0.2456 -1.7550
19926TIP3   OH281192   5.064   1.363  17.124 -0.1791  0.6372  0.0429
19926TIP3    H181193   4.982   1.376  17.078  0.4012 -0.0002 -1.2218
19926TIP3    H281194   5.131   1.362  17.055  0.8077  0.4469  0.9657
19927TIP3   OH281195   6.604   4.425   3.255  0.2919 -0.4259 -0.0635
19927TIP3    H181196   6.673   4.480   3.217  0.1066 -1.1574 -1.4994
19927TIP3    H281197   6.523   4.470   3.233  0.1803 -0.8772 -0.5764
19928TIP3   OH281198   5.318   3.148  15.797 -0.4481  0.1202 -0.2141
19928TIP3    H181199   5.257   3.190  15.736 -0.0424  2.0820  0.6537
19928TIP3    H281200   5.403   3.187  15.774 -0.2094  0.4836  1.2305
19929TIP3   OH281201   5.877   6.203   4.068  0.8648  0.1495 -0.0532
19929TIP3    H181202   5.814   6.162   4.009  0.6356  0.6820 -0.1830
19929TIP3    H281203   5.926   6.129   4.105  0.6204 -0.2253 -0.4617
19930TIP3   OH281204   2.271   6.062  16.401 -0.1421  0.3076  0.4301
19930TIP3    H181205   2.276   5.993  16.335 -0.7078  0.1451  0.5488
19930TIP3    H281206   2.329   6.131  16.369  1.1590 -0.5988  0.7684
19931TIP3   OH281207   2.176   2.312   1.583 -0.6035 -0.1315 -0.1394
19931TIP3    H181208   2.200   2.231   1.538  0.6943 -0.5838  1.3146
19931TIP3    H281209   2.138   2.284   1.666  3.0931  0.6338  2.0394
19932TIP3   OH281210   4.392   2.030  15.155 -0.0780 -0.1215 -0.3711
19932TIP3    H181211   4.402   1.976  15.233 -0.9456  0.3816  0.1098
19932TIP3    H281212   4.465   2.092  15.159 -0.7170  0.6031  0.6474
19933TIP3   OH281213   2.756   0.176   0.231  0.0444 -0.0472  0.0010
19933TIP3    H181214   2.751   0.169   0.327  0.9163 -0.8372 -0.0011
19933TIP3    H281215   2.761   0.086   0.200 -2.0622  0.0998 -0.9354
19934TIP3   OH281216   3.668   0.891   0.189 -0.8059 -0.3687  0.2681
19934TIP3    H181217   3.637   0.808   0.224  0.1078 -0.4723  0.8598
19934TIP3    H281218   3.605   0.956   0.222 -0.0582 -0.4870  2.0186
19935TIP3   OH281219   4.438   0.909  13.632 -0.3880 -0.2355 -0.2247
19935TIP3    H181220   4.422   0.888  13.540  0.2917 -0.7015 -0.2411
19935TIP3    H281221   4.385   0.846  13.681 -1.7562  0.8193 -0.2822
19936TIP3   OH281222   1.422   3.466   0.936 -0.1052 -0.1861  0.0789
19936TIP3    H181223   1.389   3.383   0.903  1.7222 -0.5370 -0.9943
19936TIP3    H281224   1.478   3.499   0.865 -1.4984  2.4176  0.0781
19937TIP3   OH281225   0.455   5.476  13.205 -0.5493  0.4650  0.1540
19937TIP3    H181226   0.548   5.500  13.207 -1.0402  2.4937  0.5311
19937TIP3    H281227   0.443   5.419  13.281  0.4434 -0.1386 -0.1225
19938TIP3   OH281228   5.897   6.387  13.376 -0.0962 -0.9511 -0.4904
19938TIP3    H181229   5.899   6.373  13.281 -0.3538  1.4108 -0.8920
19938TIP3    H281230   5.830   6.453  13.390 -0.7385 -1.9283  1.4816
19939TIP3   OH281231   2.009   4.658  16.289 -0.1448  0.1782 -0.5114
19939TIP3    H181232   1.958   4.581  16.266 -0.2714  0.4350 -1.1247
19939TIP3    H281233   1.944   4.727  16.305 -0.0080  0.6808 -1.9397
19940TIP3   OH281234   4.181   3.156  14.918  0.4132  0.0062  0.4743
19940TIP3    H181235   4.170   3.229  14.856  0.4183  0.1446  0.6341
19940TIP3    H281236   4.243   3.098  14.876  0.4146  0.1000  0.3467
19941TIP3   OH281237   3.015   1.760  15.452  0.4102 -0.2604 -0.6920
19941TIP3    H181238   3.047   1.774  15.541  1.6089  1.0075 -1.2936
19941TIP3    H281239   2.982   1.670  15.453 -0.8879  0.1650  1.3858
19942TIP3   OH281240   5.734   4.002   5.763 -0.3119  1.0111  0.8624
19942TIP3    H181241   5.819   3.974   5.798 -0.3915 -0.4292 -0.0054
19942TIP3    H281242   5.679   4.016   5.840  0.2666  0.4288  1.3951
19943TIP3   OH281243   3.338   5.516  14.246 -0.4050 -0.1834  0.0909
19943TIP3    H181244   3.354   5.528  14.340  2.3061 -2.2884  0.0412
19943TIP3    H281245   3.424   5.528  14.206 -1.4654  0.4510 -2.1362
19944TIP3   OH281246   0.140   0.152   0.711  0.5403  0.2980 -0.5597
19944TIP3    H181247   0.102   0.151   0.623  0.6814 -0.4100 -0.6118
19944TIP3    H281248   0.224   0.109   0.701  0.1512 -0.6330  0.1105
19945TIP3   OH281249   2.740   5.765  12.060  0.1966 -0.2292 -0.3898
19945TIP3    H181250   2.790   5.843  12.085 -0.7477  0.8326 -1.6941
19945TIP3    H281251   2.799   5.715  12.004  0.9439 -0.6873  0.7586
19946TIP3   OH281252   6.125   5.556  11.394 -0.2066  0.4357 -0.4617
19946TIP3    H181253   6.066   5.629  11.373 -0.8092  0.3625  0.8835
19946TIP3    H281254   6.076   5.502  11.456  0.9918 -0.0275  0.1214
19947TIP3   OH281255   5.115   1.335   5.986  0.5033  0.1066 -1.0683
19947TIP3    H181256   5.112   1.337   5.890  0.2418 -2.0963 -1.1467
19947TIP3    H281257   5.029   1.369   6.012  0.8446  1.4251 -1.5561
19948LIG      S81258   3.099   2.885  16.619 -0.1534  0.0437  0.4337
19948LIG     F181259   4.499   3.631  16.462 -0.7826  0.4306 -0.0561
19948LIG     F281260   4.396   3.768  16.327  0.2531  0.3818  0.3538
19948LIG      O81261   4.253   3.538  16.222 -0.6710  0.1809 -0.2241
19948LIG     N181262   3.217   2.975  16.325 -0.0986 -0.5064  0.5566
19948LIG     N281263   3.639   3.249  15.864  0.3439  0.2379 -0.1890
19948LIG     N381264   3.476   3.376  15.858 -0.2352  0.0705  0.1343
19948LIG     N481265   3.599   3.365  15.812  0.6177 -0.3601  0.4032
19948LIG     N581266   4.213   3.360  16.355  0.1910  0.5348 -0.4696
19948LIG     N681267   4.309   3.429  16.411  0.7263 -0.2660 -0.5068
19948LIG     C181268   3.205   2.832  16.355 -0.2382 -0.6337 -0.3582
19948LIG     C281269   3.253   3.059  16.445  0.1926 -0.3104 -0.5152
19948LIG     C381270   3.110   3.027  16.234  0.8545  0.0851  0.4540
19948LIG     C481271   3.093   2.807  16.452 -0.5238  0.5193 -0.2387
19948LIG     C581272   3.150   3.057  16.560  0.7133  0.5229 -0.8063
19948LIG     C681273   3.149   3.151  16.159 -0.1332 -0.1088 -0.4591
19948LIG     C781274   3.270   3.142  16.087  0.4560 -0.5153 -0.5841
19948LIG     C881275   3.056   3.250  16.143  0.0382  0.6565 -0.5253
19948LIG     C981276   3.303   3.252  16.001 -0.2944 -0.6712 -0.1261
19948LIG    C1081277   3.439   3.271  15.940 -0.3345 -0.2550 -0.4667
19948LIG    C1181278   3.093   3.358  16.057  0.1079  0.3548 -0.4182
19948LIG    C1281279   3.211   3.357  15.989 -0.3883  0.2311  0.0387
19948LIG    C1381280   3.778   3.207  15.851 -0.0364 -0.5696  0.1627
19948LIG    C1481281   3.544   3.181  15.939 -0.0989  0.1321  0.1564
19948LIG    C1581282   3.874   3.269  15.958  0.5565 -0.5250 -0.0692
19948LIG    C1681283   3.914   3.196  16.075  0.6119  0.3540 -1.2456
19948LIG    C1781284   3.937   3.398  15.939 -0.0040  1.1701  0.4720
19948LIG    C1881285   4.079   3.364  16.141 -0.2376 -0.4210 -0.6671
19948LIG    C1981286   4.004   3.248  16.161 -0.0031 -0.2352  0.1054
19948LIG    C2081287   4.038   3.434  16.026  0.6303  0.2295 -0.1560
19948LIG    C2181288   4.182   3.418  16.240  0.8126 -0.1941 -0.0455
19948LIG    C2281289   4.332   3.538  16.333  0.3883  0.7565 -0.1778
19948LIG    C2381290   4.434   3.640  16.341  0.3070 -0.7001  0.2254
19948LIG     H181291   3.297   2.787  16.398 -0.8602 -0.3757  1.3198
19948LIG     H281292   3.176   2.775  16.265 -0.8614  1.1347 -1.3195
19948LIG     H381293   3.238   3.168  16.429  1.6762 -0.1071 -0.6379
19948LIG     H481294   3.357   3.037  16.477  0.3369  1.4679  0.3216
19948LIG     H581295   3.023   3.052  16.298  1.7666  2.3454  0.8968
19948LIG     H681296   3.088   2.944  16.164 -0.3694  0.1658  0.7319
19948LIG     H781297   2.995   2.851  16.424 -0.0585  2.0262  0.4018
19948LIG     H881298   3.083   2.696  16.457  1.6361  0.2653 -0.8130
19948LIG     H981299   3.187   3.117  16.645  0.5310  0.2552 -0.5326
19948LIG    H1081300   3.051   3.095  16.528  0.1172  1.1015  1.5357
19948LIG    H1181301   3.343   3.062  16.093  0.8836 -0.0643  0.4307
19948LIG    H1281302   2.971   3.260  16.208  0.5202 -0.1414  0.2466
19948LIG    H1381303   3.232   3.439  15.923 -1.4728 -0.5313 -1.3131
19948LIG    H1481304   3.032   3.447  16.050 -1.9968 -1.1734 -3.7677
19948LIG    H1581305   3.809   3.232  15.748  0.0997 -0.8717  0.1309
19948LIG    H1681306   3.778   3.097  15.865 -0.7892 -0.5327  0.5004
19948LIG    H1781307   3.562   3.085  15.985 -0.6292  0.2656  0.6509
19948LIG    H1881308   3.867   3.101  16.095  1.2257 -0.6223 -4.0254
19948LIG    H1981309   3.918   3.446  15.844 -1.1976 -1.6418 -0.8225
19948LIG    H2081310   4.025   3.192  16.252  1.0651 -0.3474 -0.1869
19948LIG    H2181311   4.095   3.523  16.005  1.5892  0.3040  2.3796
19948LIG    H2281312   4.514   3.626  16.269 -0.6462  1.9905 -1.5256
   6.71309   6.71309  17.62981
